Title
82332
    1SAPS     N    1   0.804   6.666  10.976 -0.0275 -0.6848  0.4503
    1SAPS   HN1    2   0.868   6.733  11.023  0.6011  2.3959 -4.1857
    1SAPS   HN2    3   0.835   6.651  10.878 -1.5694 -1.3128  0.0191
    1SAPS   HN3    4   0.720   6.725  10.962 -0.6538 -1.4661  0.8226
    1SAPS   C12    5   0.783   6.546  11.050 -0.2978 -0.2186  0.0190
    1SAPS  H12A    6   0.799   6.577  11.152 -0.7873  0.6707 -0.1562
    1SAPS   C13    7   0.638   6.501  11.039  0.0520  0.5056 -0.0823
    1SAPS  O13A    8   0.550   6.557  10.968 -0.3261 -0.3854 -0.1605
    1SAPS  O13B    9   0.613   6.391  11.096  0.0313  0.4044  0.2519
    1SAPS   C11   10   0.880   6.440  11.000 -0.3149  0.6939 -0.4094
    1SAPS  H11A   11   0.847   6.420  10.895  0.7259  0.6310 -0.7375
    1SAPS  H11B   12   0.856   6.344  11.052 -0.4167  0.5769 -0.6655
    1SAPS     P   13   1.129   6.373  10.974 -0.0841 -0.0989 -0.6128
    1SAPS   O13   14   1.209   6.363  11.097  0.1142  0.3802  0.3979
    1SAPS   O14   15   1.072   6.254  10.911  0.5119 -0.0620 -0.3687
    1SAPS   O12   16   1.019   6.477  11.004 -0.1849 -0.6149  0.2477
    1SAPS   O11   17   1.229   6.441  10.872  0.7934  0.2494  0.1639
    1SAPS    C1   18   1.187   6.548  10.785 -0.5675  0.0445  0.2263
    1SAPS    HA   19   1.091   6.596  10.814 -1.4262 -1.1121 -0.5862
    1SAPS    HB   20   1.263   6.627  10.800 -0.5288  0.4530 -1.7517
    1SAPS    C2   21   1.178   6.509  10.633  0.7292  0.8004 -0.7226
    1SAPS    HS   22   1.156   6.606  10.583  0.3813  1.1840  0.1549
    1SAPS   O21   23   1.074   6.419  10.612  0.1952 -0.8128  0.1577
    1SAPS   C21   24   0.952   6.460  10.625 -0.0148 -0.3109  0.8367
    1SAPS   O22   25   0.915   6.572  10.658 -0.0966 -0.1545  0.0571
    1SAPS   C22   26   0.860   6.357  10.561  0.4048 -0.1979  0.5415
    1SAPS   H2R   27   0.870   6.258  10.611 -0.0630 -1.9264 -2.5797
    1SAPS   H2S   28   0.757   6.392  10.582  0.8146  1.0095  0.6282
    1SAPS    C3   29   1.309   6.455  10.574  0.7487  0.3340 -0.2684
    1SAPS    HX   30   1.330   6.355  10.618 -0.0709 -0.0702 -0.7757
    1SAPS    HY   31   1.388   6.523  10.613 -0.8048  2.6913 -0.9735
    1SAPS   O31   32   1.315   6.451  10.425 -0.1738  0.4702 -0.0406
    1SAPS   C31   33   1.304   6.334  10.370 -0.5637 -0.2367  1.0124
    1SAPS   O32   34   1.293   6.228  10.425 -0.1226  0.0167 -0.6305
    1SAPS   C32   35   1.313   6.341  10.217  0.0400 -0.1007 -0.7203
    1SAPS   H2X   36   1.406   6.388  10.178 -0.8194  0.5018 -2.0928
    1SAPS   H2Y   37   1.228   6.410  10.200 -1.8365 -2.0270  0.3187
    1SAPS   C23   38   0.898   6.337  10.409 -0.9148 -0.1223  0.0360
    1SAPS   H3R   39   0.844   6.243  10.389  0.0548 -0.6499 -0.2044
    1SAPS   H3S   40   1.007   6.330  10.385 -1.2227  0.9167 -1.9414
    1SAPS   C24   41   0.862   6.463  10.323 -0.5491  0.2295  0.2635
    1SAPS   H4R   42   0.895   6.427  10.223 -0.1202 -3.2478  1.5155
    1SAPS   H4S   43   0.923   6.548  10.361  0.5244 -0.2751 -0.3041
    1SAPS   C25   44   0.717   6.488  10.322  0.0530  0.0977  0.0075
    1SAPS   H5R   45   0.685   6.532  10.418  1.8854  1.8677 -0.1335
    1SAPS   C26   46   0.626   6.466  10.231  0.7893 -0.7735  0.1208
    1SAPS   H6R   47   0.523   6.493  10.260  1.6606  2.7936  0.3199
    1SAPS   C27   48   0.648   6.398  10.095 -0.1348  0.5272  0.0965
    1SAPS   H7R   49   0.684   6.293  10.102 -0.9155  0.3576  2.4450
    1SAPS   H7S   50   0.733   6.444  10.040 -0.2135 -1.0065 -1.4236
    1SAPS   C28   51   0.530   6.397  10.004 -0.2029  0.5765  0.1414
    1SAPS   H8R   52   0.436   6.381  10.060  0.4937 -0.5737  1.0340
    1SAPS   C29   53   0.526   6.400   9.866 -0.5102  0.0927 -0.3588
    1SAPS   H9R   54   0.430   6.374   9.818  0.4898 -2.4133 -1.1875
    1SAPS  C210   55   0.651   6.415   9.784 -0.2036  0.0419  0.2182
    1SAPS  H10R   56   0.737   6.374   9.841 -1.4716 -1.1640  1.3335
    1SAPS  H10S   57   0.678   6.517   9.750  1.5684 -0.9219 -1.4705
    1SAPS  C211   58   0.637   6.329   9.661 -0.1357 -0.3680  0.4837
    1SAPS  H11R   59   0.652   6.221   9.680  1.3673 -0.1191  0.8257
    1SAPS  C212   60   0.616   6.364   9.531  0.0717  0.1103 -0.5562
    1SAPS  H12R   61   0.606   6.288   9.452 -1.7281  1.2183 -1.4737
    1SAPS  C213   62   0.597   6.504   9.487  0.2182  0.1445  0.0263
    1SAPS  H13R   63   0.685   6.519   9.420 -0.0141 -1.8302 -0.8163
    1SAPS  H13S   64   0.607   6.578   9.569 -0.4013 -0.6681  0.8547
    1SAPS  C214   65   0.461   6.523   9.426  0.1751  0.2468  0.3799
    1SAPS  H14R   66   0.380   6.536   9.499 -1.3685  0.8335 -1.3894
    1SAPS  C215   67   0.428   6.511   9.296 -0.0126 -0.8910  0.0215
    1SAPS  H15R   68   0.327   6.520   9.254  0.9613 -1.1676 -2.5614
    1SAPS  C216   69   0.531   6.489   9.184  0.4139  0.0542 -0.1092
    1SAPS  H16R   70   0.628   6.452   9.224 -0.8498 -0.2722  2.9258
    1SAPS  H16S   71   0.553   6.589   9.141 -1.8047  0.9128  0.6131
    1SAPS  C217   72   0.481   6.398   9.068  0.6244  0.4074  0.6017
    1SAPS  H17R   73   0.556   6.404   8.986 -0.2461 -0.1471 -0.2491
    1SAPS  H17S   74   0.381   6.433   9.034  0.1017 -2.0191 -0.5478
    1SAPS  C218   75   0.460   6.250   9.111 -0.1283 -0.4880  0.0215
    1SAPS  H18R   76   0.371   6.247   9.178 -0.8645  0.6491 -0.8658
    1SAPS  H18S   77   0.552   6.228   9.169  0.8705 -1.6278 -1.8932
    1SAPS  C219   78   0.451   6.147   8.988 -0.7950 -0.5383  0.1883
    1SAPS  H19R   79   0.509   6.179   8.899 -0.9379 -1.9567 -0.4375
    1SAPS  H19S   80   0.347   6.155   8.952 -1.2982  2.1738  1.9354
    1SAPS  C220   81   0.475   6.002   9.019 -0.1460  0.1107 -0.3106
    1SAPS  H20R   82   0.440   5.951   8.927 -1.9820 -0.4877  0.6493
    1SAPS  H20S   83   0.403   5.961   9.093 -1.9981  1.9768 -0.9619
    1SAPS  H20T   84   0.580   5.974   9.038 -0.1437  0.0535 -0.4112
    1SAPS   C33   85   1.281   6.210  10.138 -0.8030  0.3938 -0.0397
    1SAPS   H3X   86   1.189   6.155  10.166 -0.9660 -0.5359 -2.1924
    1SAPS   H3Y   87   1.362   6.140  10.166 -0.4235  1.6272  2.1780
    1SAPS   C34   88   1.288   6.224   9.990  0.5184 -0.5970  0.8301
    1SAPS   H4X   89   1.281   6.123   9.945  0.8960 -0.3945  0.3101
    1SAPS   H4Y   90   1.394   6.250   9.971  0.7604 -2.1976 -0.1938
    1SAPS   C35   91   1.190   6.318   9.916 -0.1399  0.7743  0.0524
    1SAPS   H5X   92   1.209   6.424   9.942  0.4797  0.1698  2.2790
    1SAPS   H5Y   93   1.084   6.300   9.943 -1.1569  2.8368 -2.2226
    1SAPS   C36   94   1.205   6.306   9.763  0.0004  0.9550  0.0821
    1SAPS   H6X   95   1.177   6.201   9.740  1.6420  0.4373  0.3337
    1SAPS   H6Y   96   1.303   6.334   9.719  0.0988  1.0715  0.3783
    1SAPS   C37   97   1.113   6.391   9.679 -0.0872 -0.4434  0.0521
    1SAPS   H7X   98   1.127   6.496   9.712  0.0825 -0.6151  0.5334
    1SAPS   H7Y   99   1.007   6.368   9.702 -0.0869 -0.3049  0.1884
    1SAPS   C38  100   1.148   6.368   9.534  0.1495 -0.7856 -0.0025
    1SAPS   H8X  101   1.146   6.261   9.504  1.9549 -0.7756 -0.2869
    1SAPS   H8Y  102   1.253   6.402   9.518 -0.4867  1.3864  0.2247
    1SAPS   C39  103   1.061   6.450   9.441  0.0732 -0.0062  0.1908
    1SAPS   H9X  104   1.073   6.559   9.459 -2.5016 -0.0192  2.6241
    1SAPS   H9Y  105   0.957   6.411   9.449  1.3630 -3.6674  1.3677
    1SAPS  C310  106   1.110   6.432   9.296  0.0968 -0.0689  0.1594
    1SAPS  H10X  107   1.220   6.447   9.288 -0.0667  0.6570 -0.8785
    1SAPS  H10Y  108   1.071   6.521   9.243 -1.9429 -0.8828  0.1933
    1SAPS  C311  109   1.081   6.302   9.212 -0.3097 -0.4119  0.2051
    1SAPS  H11X  110   1.128   6.217   9.266  0.5027  0.1605  0.4026
    1SAPS  H11Y  111   1.122   6.303   9.109 -2.5109  0.5686 -0.7361
    1SAPS  C312  112   0.929   6.275   9.193 -0.5576 -0.0595  1.0767
    1SAPS  H12X  113   0.897   6.362   9.132  1.0688 -1.6568 -2.3302
    1SAPS  H12Y  114   0.869   6.270   9.286  0.8275  0.3129  2.0266
    1SAPS  C313  115   0.901   6.155   9.097  0.2599  0.2834  0.5398
    1SAPS  H13X  116   0.792   6.138   9.112  0.0765  1.9051  1.3587
    1SAPS  H13Y  117   0.947   6.061   9.133  0.0796 -1.3782 -3.1282
    1SAPS  C314  118   0.929   6.196   8.949 -0.3171 -0.7372  0.5869
    1SAPS  H14X  119   1.040   6.201   8.958 -0.3606 -0.9549  1.3283
    1SAPS  H14Y  120   0.885   6.293   8.917 -1.7450 -1.9138 -1.2560
    1SAPS  C315  121   0.875   6.087   8.857 -0.2894 -0.3307  0.4496
    1SAPS  H15X  122   0.770   6.072   8.890 -0.2547 -0.7316  0.3859
    1SAPS  H15Y  123   0.927   5.989   8.869 -1.1864 -1.0040 -0.8709
    1SAPS  C316  124   0.893   6.125   8.705  0.1742  0.1872  0.2743
    1SAPS  H16X  125   0.996   6.135   8.663  0.5092 -0.3504  0.9572
    1SAPS  H16Y  126   0.856   6.229   8.695  0.3407  0.2869  0.6987
    1SAPS  C317  127   0.815   6.033   8.614  0.1202  0.1409  0.2553
    1SAPS  H17X  128   0.841   5.926   8.628  0.4938  0.0797 -0.7838
    1SAPS  H17Y  129   0.839   6.055   8.507  0.0908 -0.2068  0.1758
    1SAPS  C318  130   0.662   6.038   8.635 -0.4973  0.1190  0.2003
    1SAPS  H18X  131   0.630   5.987   8.729  0.0813  2.0173  1.4815
    1SAPS  H18Y  132   0.608   5.982   8.556 -0.6786  1.9953 -1.0631
    1SAPS  H18Z  133   0.626   6.142   8.623 -0.5911  0.1412  0.6311
    2SAPS     N  134   0.617   2.092  10.916  0.3341 -0.4381  0.0710
    2SAPS   HN1  135   0.603   2.034  11.001  1.9561  1.2917  1.6295
    2SAPS   HN2  136   0.524   2.105  10.873 -0.9719 -0.9300  2.5361
    2SAPS   HN3  137   0.694   2.036  10.874  3.4317  3.2158  0.3317
    2SAPS   C12  138   0.664   2.220  10.973 -0.3389 -0.0209 -0.0795
    2SAPS  H12A  139   0.576   2.282  10.985 -1.2833 -1.5086  0.9492
    2SAPS   C13  140   0.746   2.208  11.109 -0.1140  0.8723  0.2769
    2SAPS  O13A  141   0.735   2.093  11.164 -0.0417 -0.0514 -0.1673
    2SAPS  O13B  142   0.795   2.303  11.169 -0.1524  0.3342  0.0848
    2SAPS   C11  143   0.775   2.276  10.876  0.1495  0.4970  0.6674
    2SAPS  H11A  144   0.856   2.200  10.877  0.1447  0.4801 -0.1190
    2SAPS  H11B  145   0.819   2.374  10.907 -0.1925  0.7679  0.2962
    2SAPS     P  146   0.642   2.393  10.676 -0.0788 -0.0874  0.0757
    2SAPS   O13  147   0.601   2.336  10.546  0.1616 -0.1370 -0.6491
    2SAPS   O14  148   0.532   2.433  10.772 -0.7275 -0.2784 -0.0414
    2SAPS   O12  149   0.726   2.282  10.745 -0.1798  0.5944 -0.0312
    2SAPS   O11  150   0.735   2.518  10.643 -0.1526  0.0267 -0.2072
    2SAPS    C1  151   0.872   2.512  10.623 -0.1853 -0.8438 -0.2414
    2SAPS    HA  152   0.918   2.574  10.704 -1.0374  1.8035 -1.6558
    2SAPS    HB  153   0.917   2.411  10.632  0.8254 -0.2394  3.4009
    2SAPS    C2  154   0.904   2.578  10.484  0.2481 -0.1405 -0.5427
    2SAPS    HS  155   1.014   2.571  10.467  0.3280 -0.0624 -0.0627
    2SAPS   O21  156   0.875   2.721  10.485  0.3850 -0.8995  0.2269
    2SAPS   C21  157   0.967   2.798  10.550 -1.0918  0.4013 -0.0286
    2SAPS   O22  158   1.067   2.760  10.607  0.0630 -0.5366 -0.3394
    2SAPS   C22  159   0.930   2.946  10.536  0.1597 -0.3376 -0.4269
    2SAPS   H2R  160   0.824   2.950  10.504 -0.4274 -0.9132  1.3147
    2SAPS   H2S  161   0.946   2.999  10.632 -0.0350  1.5715 -1.4025
    2SAPS    C3  162   0.829   2.502  10.379  0.3384  0.1905 -0.2119
    2SAPS    HX  163   0.725   2.542  10.376 -0.2812 -1.0620  2.2310
    2SAPS    HY  164   0.811   2.398  10.413 -2.1734  0.5516 -0.2257
    2SAPS   O31  165   0.891   2.500  10.248  0.2126 -1.0798 -0.0348
    2SAPS   C31  166   0.815   2.435  10.157  0.4504  0.4838  0.2584
    2SAPS   O32  167   0.701   2.392  10.174  0.0589 -0.3712 -0.2992
    2SAPS   C32  168   0.895   2.432  10.025 -0.0285  0.1996  0.0134
    2SAPS   H2X  169   0.969   2.352  10.047 -1.8647 -1.8691 -0.8936
    2SAPS   H2Y  170   0.934   2.533  10.001  0.6737 -0.3007 -1.0898
    2SAPS   C23  171   1.021   3.025  10.438  0.1906  0.0738 -0.3900
    2SAPS   H3R  172   1.128   3.027  10.466 -0.1033 -0.6714  0.8686
    2SAPS   H3S  173   0.987   3.131  10.437 -0.3572 -0.0981 -0.4758
    2SAPS   C24  174   1.011   2.977  10.294 -0.4147 -0.1520  0.0043
    2SAPS   H4R  175   0.903   2.953  10.285 -0.4299 -0.0036 -0.2100
    2SAPS   H4S  176   1.069   2.883  10.285  0.4627  0.1988  1.6330
    2SAPS   C25  177   1.052   3.070  10.182  0.6225  0.2386  0.1764
    2SAPS   H5R  178   1.100   3.160  10.222  1.0883 -0.1357  0.4757
    2SAPS   C26  179   1.034   3.059  10.048  0.7562  0.5718  0.2596
    2SAPS   H6R  180   1.092   3.132   9.989  1.1611  1.6212  1.8865
    2SAPS   C27  181   0.964   2.948   9.972 -0.3079  0.4852  0.2976
    2SAPS   H7R  182   0.901   2.889  10.042 -2.0647  0.5157 -1.1639
    2SAPS   H7S  183   1.033   2.881   9.917 -2.6003  0.6632 -3.1367
    2SAPS   C28  184   0.872   3.018   9.878  0.6745 -0.0814 -0.2761
    2SAPS   H8R  185   0.802   3.094   9.917 -0.1912 -0.0330 -1.8317
    2SAPS   C29  186   0.858   2.988   9.744  0.0435 -1.0882 -0.8334
    2SAPS   H9R  187   0.788   3.045   9.681  1.0564  1.4602  0.1757
    2SAPS  C210  188   0.948   2.884   9.671 -0.0753 -1.0950  0.7602
    2SAPS  H10R  189   0.884   2.803   9.630 -2.1051  0.6933  0.2415
    2SAPS  H10S  190   1.028   2.834   9.730  0.8462 -0.8778 -0.2788
    2SAPS  C211  191   1.015   2.963   9.559 -0.2704  0.5505  0.0802
    2SAPS  H11R  192   1.061   3.055   9.598  2.1500 -0.8810  0.7895
    2SAPS  C212  193   1.021   2.933   9.428 -0.6441  0.1741 -1.1337
    2SAPS  H12R  194   1.072   3.001   9.359  1.5773 -2.6129 -2.4822
    2SAPS  C213  195   0.960   2.814   9.361  0.8190  0.6182  0.4089
    2SAPS  H13R  196   0.899   2.760   9.435  1.8169  0.5279  1.1965
    2SAPS  H13S  197   1.034   2.740   9.322 -0.0698 -0.7327  1.2505
    2SAPS  C214  198   0.855   2.856   9.255 -0.8333  0.6267  0.2055
    2SAPS  H14R  199   0.796   2.947   9.276  0.5481  1.3091  1.3287
    2SAPS  C215  200   0.849   2.798   9.132  0.1942 -0.3201 -0.2292
    2SAPS  H15R  201   0.774   2.829   9.058  0.7424 -2.5836 -1.8315
    2SAPS  C216  202   0.931   2.685   9.068 -0.5435 -0.1794 -0.3425
    2SAPS  H16R  203   0.873   2.616   9.002 -0.1233 -1.4213  0.5571
    2SAPS  H16S  204   0.985   2.627   9.145 -0.1767  1.6311  0.8233
    2SAPS  C217  205   1.041   2.746   8.985 -0.2176 -0.3905 -0.5624
    2SAPS  H17R  206   1.084   2.659   8.930 -0.7197  0.0822 -1.7553
    2SAPS  H17S  207   1.109   2.792   9.059 -2.0245  2.2310 -0.3813
    2SAPS  C218  208   0.992   2.852   8.882 -0.2130  0.1129  0.3079
    2SAPS  H18R  209   0.988   2.949   8.935 -1.7046 -0.3699  1.1462
    2SAPS  H18S  210   0.889   2.833   8.845 -0.3454  1.9148 -0.3598
    2SAPS  C219  211   1.077   2.861   8.755  0.4850  0.0495  1.0694
    2SAPS  H19R  212   1.178   2.821   8.781  1.0086  0.8508  0.3400
    2SAPS  H19S  213   1.074   2.967   8.722 -0.6471  0.2908  1.8983
    2SAPS  C220  214   1.019   2.770   8.639 -0.8142  0.4695 -0.5942
    2SAPS  H20R  215   1.056   2.665   8.646 -2.5386 -0.1797 -0.8629
    2SAPS  H20S  216   1.051   2.806   8.538 -0.5694  0.0388 -0.6736
    2SAPS  H20T  217   0.909   2.764   8.648 -0.6453 -2.4098  0.8277
    2SAPS   C33  218   0.810   2.390   9.906  0.4885 -0.6629 -0.4056
    2SAPS   H3X  219   0.719   2.454   9.900  1.8856  1.8948  2.7756
    2SAPS   H3Y  220   0.774   2.287   9.930  1.5227 -0.8539  0.3812
    2SAPS   C34  221   0.886   2.388   9.772  0.2415 -0.4886 -0.2333
    2SAPS   H4X  222   0.824   2.325   9.706  1.2771 -0.3027 -1.4244
    2SAPS   H4Y  223   0.983   2.333   9.776  0.5612  0.1044  0.3283
    2SAPS   C35  224   0.929   2.529   9.719  0.4222  0.5568 -0.1282
    2SAPS   H5X  225   0.976   2.595   9.795 -1.4726 -0.7483  2.3219
    2SAPS   H5Y  226   0.829   2.573   9.695  0.3537 -0.5039 -1.9226
    2SAPS   C36  227   1.003   2.513   9.584  0.6435 -0.1899 -0.3733
    2SAPS   H6X  228   1.094   2.452   9.603 -0.0501 -1.2427 -0.3372
    2SAPS   H6Y  229   1.028   2.610   9.538  0.6224 -0.1571 -0.3162
    2SAPS   C37  230   0.930   2.447   9.470  0.1854 -0.4243  0.4450
    2SAPS   H7X  231   0.839   2.501   9.435 -0.2153 -1.3219  0.0748
    2SAPS   H7Y  232   0.886   2.349   9.498  0.6646  0.1554  3.5895
    2SAPS   C38  233   1.035   2.429   9.357  0.6633  0.2018  0.5245
    2SAPS   H8X  234   1.104   2.345   9.380 -2.0024 -2.7680 -1.3564
    2SAPS   H8Y  235   1.104   2.512   9.334 -0.1846  0.2094 -2.4019
    2SAPS   C39  236   0.976   2.367   9.224 -0.6021  0.1123  0.2920
    2SAPS   H9X  237   0.899   2.437   9.185 -0.6623  0.0926  0.3756
    2SAPS   H9Y  238   0.937   2.265   9.240  0.6135 -0.6671 -1.4667
    2SAPS  C310  239   1.102   2.369   9.125  0.7770 -0.5024  0.6812
    2SAPS  H10X  240   1.192   2.323   9.172  1.1795  1.4491  1.9796
    2SAPS  H10Y  241   1.138   2.474   9.113  1.6454 -0.5146  2.6890
    2SAPS  C311  242   1.064   2.312   8.982  0.6022  0.3306 -0.8832
    2SAPS  H11X  243   0.977   2.366   8.939  1.2606  0.5649 -1.9743
    2SAPS  H11Y  244   1.029   2.208   8.999 -1.4160  1.2498  1.2498
    2SAPS  C312  245   1.184   2.318   8.892 -0.0287 -0.3282  0.3019
    2SAPS  H12X  246   1.268   2.249   8.916  0.3107  0.3265  1.0879
    2SAPS  H12Y  247   1.225   2.422   8.899 -2.8418  0.8545  0.3947
    2SAPS  C313  248   1.158   2.287   8.740 -0.1149 -0.0628 -0.2223
    2SAPS  H13X  249   1.082   2.358   8.702 -0.0332  0.6213  0.8556
    2SAPS  H13Y  250   1.124   2.181   8.744  0.9617 -0.4532 -1.0372
    2SAPS  C314  251   1.286   2.301   8.650  0.4408 -0.1203 -0.1844
    2SAPS  H14X  252   1.370   2.254   8.705  0.5237  1.4204  1.0744
    2SAPS  H14Y  253   1.318   2.407   8.639 -1.8376  0.9290  2.2751
    2SAPS  C315  254   1.269   2.229   8.512 -0.1746  0.5415  0.0475
    2SAPS  H15X  255   1.203   2.285   8.443 -2.8430 -2.6145 -0.2225
    2SAPS  H15Y  256   1.225   2.127   8.520 -0.6410  0.3643 -3.3686
    2SAPS  C316  257   1.399   2.220   8.434  0.4229  0.2153 -0.3893
    2SAPS  H16X  258   1.483   2.184   8.497 -0.7730 -0.9944  0.5704
    2SAPS  H16Y  259   1.423   2.327   8.424 -0.0846  0.5294  1.4253
    2SAPS  C317  260   1.398   2.153   8.300  0.5271  0.3274 -0.2154
    2SAPS  H17X  261   1.374   2.044   8.306 -1.3806  0.6205 -1.4710
    2SAPS  H17Y  262   1.503   2.163   8.266  1.0247 -3.7917 -0.4568
    2SAPS  C318  263   1.284   2.195   8.202  0.3181 -0.0551 -0.5028
    2SAPS  H18X  264   1.267   2.305   8.194 -2.0232  0.0329  3.1097
    2SAPS  H18Y  265   1.191   2.139   8.228  0.9673  0.1400  2.6842
    2SAPS  H18Z  266   1.313   2.155   8.103  1.5226 -0.6897  0.0845
    3SAPS     N  267   0.590   6.131  11.055  0.5871  0.7293 -0.1355
    3SAPS   HN1  268   0.499   6.126  11.004  1.5266 -1.5409 -1.7522
    3SAPS   HN2  269   0.594   6.232  11.079  2.2200  0.4775  0.7539
    3SAPS   HN3  270   0.676   6.118  11.000  1.2030  1.0378  0.7333
    3SAPS   C12  271   0.596   6.059  11.185 -0.0628  0.7284 -0.1027
    3SAPS  H12A  272   0.695   6.073  11.226 -0.5538  0.5228  1.1916
    3SAPS   C13  273   0.507   6.112  11.297 -0.3837  0.2324 -0.4221
    3SAPS  O13A  274   0.423   6.205  11.285  0.2120 -0.3451  0.2173
    3SAPS  O13B  275   0.519   6.048  11.405  0.8429  0.3209 -0.1456
    3SAPS   C11  276   0.558   5.907  11.160 -0.2105  0.3763  0.4595
    3SAPS  H11A  277   0.549   5.865  11.262 -2.2549 -2.6112 -0.7996
    3SAPS  H11B  278   0.644   5.857  11.111 -0.7869  0.1233 -0.3167
    3SAPS     P  279   0.402   5.812  10.959 -0.1111  0.2108  0.5317
    3SAPS   O13  280   0.441   5.670  10.991 -0.6461 -0.2636 -0.0808
    3SAPS   O14  281   0.259   5.832  10.943 -0.2973 -0.4563  0.5030
    3SAPS   O12  282   0.440   5.892  11.080  0.3681 -0.5446 -0.1251
    3SAPS   O11  283   0.489   5.880  10.844 -0.0399  0.5826 -0.0093
    3SAPS    C1  284   0.618   5.836  10.804  0.5315  0.2086  0.2772
    3SAPS    HA  285   0.695   5.914  10.823  1.8367 -0.9421 -0.1594
    3SAPS    HB  286   0.642   5.746  10.863 -3.1759 -0.5977  0.7818
    3SAPS    C2  287   0.608   5.809  10.646 -0.5470 -0.0447 -0.2217
    3SAPS    HS  288   0.713   5.803  10.609 -1.4316  0.0560 -2.9247
    3SAPS   O21  289   0.528   5.907  10.575 -0.9085  0.8658  0.2112
    3SAPS   C21  290   0.588   6.021  10.555  0.4039  0.2820 -0.3189
    3SAPS   O22  291   0.701   6.048  10.588  0.2165  0.0522 -0.8762
    3SAPS   C22  292   0.489   6.113  10.477 -0.4394 -0.5312 -0.5709
    3SAPS   H2R  293   0.383   6.085  10.491 -0.7393  0.8490  0.1731
    3SAPS   H2S  294   0.495   6.207  10.536  1.2076 -0.7809 -0.2813
    3SAPS    C3  295   0.541   5.665  10.625 -0.2830  0.7406  0.1828
    3SAPS    HX  296   0.443   5.669  10.676  0.2289 -0.2213  1.2914
    3SAPS    HY  297   0.598   5.589  10.682 -1.0937  1.9636  2.7698
    3SAPS   O31  298   0.540   5.621  10.490  0.0858 -0.0463  0.1946
    3SAPS   C31  299   0.423   5.640  10.425  0.5567  0.4607  0.0048
    3SAPS   O32  300   0.328   5.704  10.469 -0.3892 -0.0600  0.2904
    3SAPS   C32  301   0.418   5.562  10.295  0.3184  0.6235  0.0924
    3SAPS   H2X  302   0.428   5.455  10.323 -4.4931  0.4277  2.0240
    3SAPS   H2Y  303   0.502   5.599  10.233  0.1155 -0.7746 -1.0707
    3SAPS   C23  304   0.539   6.143  10.333  0.3172 -0.1817 -1.1916
    3SAPS   H3R  305   0.645   6.174  10.345  0.7641 -2.5467  2.9416
    3SAPS   H3S  306   0.482   6.226  10.285  0.4947  1.4012  1.1469
    3SAPS   C24  307   0.537   6.017  10.247  0.0115  0.4007  0.3854
    3SAPS   H4R  308   0.597   5.929  10.278 -1.8537 -2.0508 -2.4571
    3SAPS   H4S  309   0.576   6.037  10.145 -1.8827 -1.2392 -0.7227
    3SAPS   C25  310   0.397   5.966  10.231 -0.0123  0.9325 -0.7071
    3SAPS   H5R  311   0.353   5.927  10.324 -1.5906  1.3323 -1.2575
    3SAPS   C26  312   0.318   5.954  10.125  0.5247 -0.5780 -0.4792
    3SAPS   H6R  313   0.219   5.906  10.131  0.7625 -0.9380  2.8495
    3SAPS   C27  314   0.361   5.988   9.984  0.5959 -0.0533  0.0007
    3SAPS   H7R  315   0.460   6.037   9.980  1.2409 -1.3094  0.1086
    3SAPS   H7S  316   0.280   6.051   9.942  0.8934  0.5895  0.3846
    3SAPS   C28  317   0.360   5.875   9.880 -0.4471 -0.2487  0.2744
    3SAPS   H8R  318   0.332   5.775   9.916  1.7787 -0.5331  1.3596
    3SAPS   C29  319   0.402   5.893   9.753 -0.0345  0.2955  0.3722
    3SAPS   H9R  320   0.397   5.809   9.683  2.3222 -1.6600  2.3607
    3SAPS  C210  321   0.457   6.020   9.702  0.2052  0.4784 -0.0800
    3SAPS  H10R  322   0.566   6.043   9.708  0.1811  0.3886  0.9206
    3SAPS  H10S  323   0.400   6.102   9.750 -1.1775 -0.2472 -0.4453
    3SAPS  C211  324   0.413   6.027   9.563 -0.0268 -0.6225  0.1301
    3SAPS  H11R  325   0.316   6.078   9.552 -0.1239 -1.0777 -1.5262
    3SAPS  C212  326   0.478   5.984   9.451 -0.3155 -0.2129 -0.5395
    3SAPS  H12R  327   0.447   6.001   9.347  0.2620 -1.7533 -0.9888
    3SAPS  C213  328   0.613   5.906   9.454  0.3579 -0.0180  0.5837
    3SAPS  H13R  329   0.610   5.832   9.371 -1.2359  1.3781 -0.6721
    3SAPS  H13S  330   0.616   5.840   9.543 -2.3297  0.4646  1.1254
    3SAPS  C214  331   0.732   5.996   9.451  0.5621 -0.1671  0.0122
    3SAPS  H14R  332   0.737   6.050   9.356 -2.4725  0.6414  0.2034
    3SAPS  C215  333   0.831   6.016   9.542  0.3965  0.5436  0.3809
    3SAPS  H15R  334   0.898   6.100   9.522 -0.0400  0.9686  0.6919
    3SAPS  C216  335   0.841   5.940   9.667 -0.2413  0.2697  0.6371
    3SAPS  H16R  336   0.923   5.867   9.654 -1.9500 -1.3804 -1.7631
    3SAPS  H16S  337   0.759   5.865   9.678  1.0379 -1.4624 -1.0519
    3SAPS  C217  338   0.852   6.020   9.791 -0.3313  0.2552  0.8644
    3SAPS  H17R  339   0.755   6.067   9.817 -1.8364 -0.6429 -2.6044
    3SAPS  H17S  340   0.921   6.107   9.782 -1.3666  0.8545 -2.6858
    3SAPS  C218  341   0.900   5.924   9.904  0.0346 -0.8501 -0.5168
    3SAPS  H18R  342   0.976   5.859   9.856 -0.5604 -0.0444 -2.6953
    3SAPS  H18S  343   0.823   5.866   9.957 -0.4693 -0.0030 -0.3088
    3SAPS  C219  344   0.984   6.003  10.009 -0.4729  0.5463 -0.5809
    3SAPS  H19R  345   1.076   6.048   9.966  0.6296  0.1758  1.2752
    3SAPS  H19S  346   1.019   5.920  10.074  1.2911  1.5035 -0.2411
    3SAPS  C220  347   0.913   6.110  10.093 -0.3644 -0.7430 -0.5017
    3SAPS  H20R  348   0.947   6.113  10.199 -2.2338 -1.5581  0.1601
    3SAPS  H20S  349   0.803   6.095  10.102 -0.5241  0.0618 -1.0581
    3SAPS  H20T  350   0.927   6.208  10.043  2.4600 -1.1650 -0.7060
    3SAPS   C33  351   0.292   5.589  10.217  0.1964  0.5368 -0.5474
    3SAPS   H3X  352   0.312   5.689  10.173  1.2152  0.4665 -0.2530
    3SAPS   H3Y  353   0.206   5.597  10.288  1.3548  1.1205  0.8412
    3SAPS   C34  354   0.264   5.486  10.108 -0.1017 -0.7405  0.2786
    3SAPS   H4X  355   0.236   5.392  10.160  1.0297  0.5510  3.4242
    3SAPS   H4Y  356   0.364   5.470  10.062  0.2323 -1.1984  1.1572
    3SAPS   C35  357   0.172   5.537  10.000 -1.0227  0.1602 -0.1675
    3SAPS   H5X  358   0.197   5.645   9.995  1.3283 -0.3586 -0.5875
    3SAPS   H5Y  359   0.069   5.528  10.040 -0.4449 -0.8494  1.1262
    3SAPS   C36  360   0.181   5.455   9.867  0.3316  0.0691  0.2786
    3SAPS   H6X  361   0.148   5.350   9.884 -0.0633  0.0083 -0.7998
    3SAPS   H6Y  362   0.282   5.445   9.821  0.4862 -1.5592  0.8932
    3SAPS   C37  363   0.079   5.505   9.760  0.4251  0.2053 -0.0392
    3SAPS   H7X  364   0.089   5.614   9.742 -1.3696  1.0847  3.3676
    3SAPS   H7Y  365  -0.026   5.501   9.797  0.1372  0.0361 -0.8354
    3SAPS   C38  366   0.100   5.445   9.618 -0.6851 -0.7279 -0.1198
    3SAPS   H8X  367   0.084   5.335   9.614 -0.9494 -0.7297  0.6995
    3SAPS   H8Y  368   0.206   5.459   9.588 -0.7451 -0.1573 -0.0796
    3SAPS   C39  369   0.020   5.500   9.506  0.6216  0.6876 -0.1755
    3SAPS   H9X  370   0.045   5.603   9.473  1.7235  1.2471  2.1692
    3SAPS   H9Y  371  -0.081   5.515   9.551  0.5890 -0.7852  0.2964
    3SAPS  C310  372   0.004   5.409   9.380  0.3997  0.2476  0.1088
    3SAPS  H10X  373  -0.040   5.309   9.403  3.0828 -1.2093 -0.7347
    3SAPS  H10Y  374   0.109   5.393   9.350  0.4136  0.3998  0.0764
    3SAPS  C311  375  -0.074   5.460   9.259 -0.3269  0.2167  0.3632
    3SAPS  H11X  376  -0.073   5.388   9.174 -0.9426 -1.2782  1.5845
    3SAPS  H11Y  377  -0.021   5.547   9.214  0.9012 -0.2501  0.8703
    3SAPS  C312  378  -0.224   5.495   9.283  0.3413  0.6482  0.4662
    3SAPS  H12X  379  -0.231   5.567   9.367 -0.9850  4.7167 -2.7554
    3SAPS  H12Y  380  -0.283   5.407   9.315  1.1131 -0.9659 -2.1663
    3SAPS  C313  381  -0.295   5.554   9.159 -1.0006 -0.7661  0.3679
    3SAPS  H13X  382  -0.257   5.501   9.069 -0.1616 -1.0482  0.8730
    3SAPS  H13Y  383  -0.266   5.662   9.158 -0.7537 -0.7984  2.1623
    3SAPS  C314  384  -0.454   5.552   9.163 -0.3257  1.2531  0.1928
    3SAPS  H14X  385  -0.479   5.577   9.269 -0.8745  3.7494 -0.4613
    3SAPS  H14Y  386  -0.482   5.449   9.131  2.4453  0.5765 -0.3426
    3SAPS  C315  387  -0.524   5.663   9.073  0.0573 -0.6672 -0.4192
    3SAPS  H15X  388  -0.507   5.662   8.963  2.9139  1.3581 -0.1143
    3SAPS  H15Y  389  -0.482   5.759   9.109  3.2155 -2.3607  0.7940
    3SAPS  C316  390  -0.671   5.659   9.105  0.5919  0.0394 -0.2070
    3SAPS  H16X  391  -0.694   5.626   9.209 -0.7242  2.3669  0.2934
    3SAPS  H16Y  392  -0.714   5.573   9.049  1.7846 -0.6029 -0.1764
    3SAPS  C317  393  -0.744   5.792   9.080 -0.0614 -0.2304 -0.0321
    3SAPS  H17X  394  -0.707   5.870   9.150 -0.8004 -1.2492  1.5561
    3SAPS  H17Y  395  -0.853   5.789   9.102  0.2213  1.2908  1.7803
    3SAPS  C318  396  -0.723   5.836   8.928  0.1918  0.3747  0.0062
    3SAPS  H18X  397  -0.780   5.772   8.857  2.1778 -0.6220 -0.7541
    3SAPS  H18Y  398  -0.621   5.840   8.885  0.2358 -0.0006  0.0686
    3SAPS  H18Z  399  -0.774   5.934   8.928 -0.8516 -0.1548 -0.3281
    4SAPS     N  400   2.514   3.372  10.748  0.6100  0.3778  0.1307
    4SAPS   HN1  401   2.418   3.332  10.739  1.5421 -1.7204 -1.6950
    4SAPS   HN2  402   2.519   3.464  10.701 -3.2172  0.1865 -0.9563
    4SAPS   HN3  403   2.576   3.309  10.692  0.6251  1.3749 -1.0180
    4SAPS   C12  404   2.563   3.378  10.886 -0.0516 -0.1033 -0.2028
    4SAPS  H12A  405   2.602   3.477  10.904 -1.8843  0.3593  1.5615
    4SAPS   C13  406   2.467   3.336  11.004 -0.2319  0.2057  0.0552
    4SAPS  O13A  407   2.345   3.321  10.976 -0.3179  0.8864 -0.0467
    4SAPS  O13B  408   2.510   3.355  11.121 -0.4744 -0.6795 -0.4603
    4SAPS   C11  409   2.687   3.277  10.899  0.4899  0.4474  0.3221
    4SAPS  H11A  410   2.656   3.181  10.853  1.2713 -0.2231  1.1683
    4SAPS  H11B  411   2.733   3.261  10.999  1.2936  1.8292  0.2019
    4SAPS     P  412   2.923   3.244  10.793  0.2648 -0.2600  0.3034
    4SAPS   O13  413   2.994   3.306  10.678 -0.2749  0.3600 -0.2814
    4SAPS   O14  414   2.993   3.217  10.919 -0.3399 -0.3981 -0.4414
    4SAPS   O12  415   2.795   3.334  10.826 -0.1269 -0.4288 -0.4732
    4SAPS   O11  416   2.861   3.103  10.742 -0.0141 -0.4818 -0.5603
    4SAPS    C1  417   2.863   3.075  10.602 -0.5673 -0.0971 -0.2926
    4SAPS    HA  418   2.802   3.152  10.550  0.1204  0.3247 -0.4716
    4SAPS    HB  419   2.966   3.077  10.561 -0.5018  1.1169 -0.1093
    4SAPS    C2  420   2.823   2.932  10.587 -0.1891  0.0081 -0.6274
    4SAPS    HS  421   2.856   2.885  10.682  0.2440  0.3727 -0.5957
    4SAPS   O21  422   2.882   2.873  10.477 -0.8407  0.3193  0.4096
    4SAPS   C21  423   2.869   2.742  10.466  0.2949  0.3103 -0.0485
    4SAPS   O22  424   2.836   2.662  10.556  0.1313 -0.0300 -0.2738
    4SAPS   C22  425   2.923   2.704  10.326  0.0759 -0.4233  0.3167
    4SAPS   H2R  426   2.989   2.784  10.285 -1.1274  0.2619 -0.3536
    4SAPS   H2S  427   2.976   2.607  10.331  2.1237  0.6937  2.1126
    4SAPS    C3  428   2.671   2.936  10.587  0.0519  0.4466  0.2518
    4SAPS    HX  429   2.650   3.002  10.674  0.4353  1.9588 -0.7729
    4SAPS    HY  430   2.632   2.834  10.607 -1.7900  0.5148 -2.5254
    4SAPS   O31  431   2.608   2.980  10.464 -0.5384  0.1955 -0.2369
    4SAPS   C31  432   2.561   3.103  10.460  0.1270 -0.8642  1.1052
    4SAPS   O32  433   2.563   3.185  10.555 -0.2772 -0.6860  0.8099
    4SAPS   C32  434   2.510   3.129  10.320  0.3410  0.0985  0.4932
    4SAPS   H2X  435   2.494   3.237  10.298  2.5053  0.4552  0.4427
    4SAPS   H2Y  436   2.407   3.088  10.315  0.0870  0.8333 -0.8221
    4SAPS   C23  437   2.796   2.688  10.228 -0.5060 -0.1242  0.3780
    4SAPS   H3R  438   2.822   2.666  10.122  0.1323  3.4243 -0.3359
    4SAPS   H3S  439   2.735   2.780  10.232 -1.5962 -0.8506  0.7354
    4SAPS   C24  440   2.690   2.583  10.267  0.1083 -0.1739  0.2490
    4SAPS   H4R  441   2.610   2.589  10.191 -0.4637  1.9911  0.9505
    4SAPS   H4S  442   2.650   2.619  10.365 -0.2950 -1.7003  0.6645
    4SAPS   C25  443   2.751   2.454  10.300  0.7845 -0.1962  0.1344
    4SAPS   H5R  444   2.774   2.434  10.406 -2.3446 -0.6979  0.8024
    4SAPS   C26  445   2.785   2.361  10.210 -1.0833 -0.7711  0.8145
    4SAPS   H6R  446   2.818   2.264  10.250  1.8634 -0.0698  0.3214
    4SAPS   C27  447   2.755   2.374  10.057  0.0216  0.5391 -0.3342
    4SAPS   H7R  448   2.673   2.445  10.031 -0.4122 -0.7507 -2.8054
    4SAPS   H7S  449   2.704   2.281  10.022  1.9559 -1.0432  0.8487
    4SAPS   C28  450   2.879   2.383   9.976  0.1487  0.9310  0.4097
    4SAPS   H8R  451   2.948   2.299   9.998 -1.8208 -1.2980 -1.3985
    4SAPS   C29  452   2.895   2.467   9.872  0.0314 -0.4625 -0.2116
    4SAPS   H9R  453   2.994   2.461   9.823  0.4461  1.9813  0.1877
    4SAPS  C210  454   2.799   2.584   9.831  0.3237 -0.0411 -0.6962
    4SAPS  H10R  455   2.734   2.625   9.911  1.5529 -1.3330  1.0643
    4SAPS  H10S  456   2.729   2.530   9.763 -1.6198  0.4890  0.8018
    4SAPS  C211  457   2.854   2.700   9.749  0.5257  0.3218 -0.2068
    4SAPS  H11R  458   2.871   2.789   9.812 -1.4377 -0.7670  2.0070
    4SAPS  C212  459   2.894   2.709   9.621 -0.1592 -0.1805 -0.0307
    4SAPS  H12R  460   2.929   2.801   9.572 -1.5380 -1.2536 -3.3333
    4SAPS  C213  461   2.875   2.599   9.524 -0.4128 -0.1830 -0.0476
    4SAPS  H13R  462   2.882   2.502   9.577 -2.1406 -0.3504 -0.0580
    4SAPS  H13S  463   2.953   2.605   9.445  0.1461  0.4328  0.5316
    4SAPS  C214  464   2.744   2.601   9.456  0.2633  0.6376 -0.2807
    4SAPS  H14R  465   2.654   2.639   9.507  0.5645  1.5868 -0.4284
    4SAPS  C215  466   2.726   2.597   9.324  0.6664 -0.3378  0.1535
    4SAPS  H15R  467   2.622   2.606   9.287  0.2740 -1.3924  0.9578
    4SAPS  C216  468   2.823   2.571   9.209 -0.0448 -0.3452  0.3821
    4SAPS  H16R  469   2.816   2.465   9.178 -2.6255 -0.5668  1.4913
    4SAPS  H16S  470   2.930   2.582   9.240 -0.2958  4.8455  0.1874
    4SAPS  C217  471   2.779   2.650   9.080 -0.4450  0.1582  0.0519
    4SAPS  H17R  472   2.851   2.624   9.000 -1.8687 -1.5589 -0.7341
    4SAPS  H17S  473   2.785   2.760   9.091  1.5762  0.2519 -1.4373
    4SAPS  C218  474   2.644   2.601   9.016 -0.1315 -0.2251  0.0222
    4SAPS  H18R  475   2.564   2.644   9.081 -2.3723 -1.4013 -1.7895
    4SAPS  H18S  476   2.634   2.491   9.006  0.2402 -0.1923 -0.7209
    4SAPS  C219  477   2.636   2.646   8.873 -0.1348 -0.2686 -0.2233
    4SAPS  H19R  478   2.740   2.670   8.841  0.9744 -0.7585  2.7210
    4SAPS  H19S  479   2.587   2.745   8.880  0.7111  0.0303  4.0880
    4SAPS  C220  480   2.577   2.547   8.767 -0.8166  0.1304  0.6998
    4SAPS  H20R  481   2.540   2.593   8.673  0.4353 -0.6393 -0.1953
    4SAPS  H20S  482   2.496   2.501   8.829  0.7905 -2.3115  1.1403
    4SAPS  H20T  483   2.646   2.464   8.741 -0.5112 -0.0552  2.0357
    4SAPS   C33  484   2.599   3.069  10.205  0.5717  0.3377  0.2197
    4SAPS   H3X  485   2.534   3.069  10.115  0.4413  0.0394  0.3127
    4SAPS   H3Y  486   2.609   2.962  10.234 -0.0761  0.4046  0.7272
    4SAPS   C34  487   2.737   3.133  10.196 -0.3024 -0.1126 -0.9705
    4SAPS   H4X  488   2.793   3.102  10.287 -2.0283  1.0838  0.5748
    4SAPS   H4Y  489   2.727   3.244  10.194  0.7722 -0.0081 -1.1461
    4SAPS   C35  490   2.809   3.095  10.063 -0.1110 -0.7117  0.2081
    4SAPS   H5X  491   2.853   2.993  10.071  0.0797 -0.6990 -0.6810
    4SAPS   H5Y  492   2.902   3.155  10.063 -0.2792 -0.1799  4.1379
    4SAPS   C36  493   2.718   3.107   9.941 -0.8484 -0.2198  0.2097
    4SAPS   H6X  494   2.663   3.202   9.926 -0.3616  0.0228 -0.0672
    4SAPS   H6Y  495   2.646   3.023   9.952 -0.8986 -0.0982  0.8496
    4SAPS   C37  496   2.812   3.093   9.816 -0.1015 -0.0462  0.2349
    4SAPS   H7X  497   2.902   3.032   9.838  0.6228  0.7303 -0.5100
    4SAPS   H7Y  498   2.855   3.195   9.803  0.6203 -0.2851  0.6969
    4SAPS   C38  499   2.744   3.056   9.688 -0.2907 -0.2029 -0.1365
    4SAPS   H8X  500   2.640   3.096   9.686 -0.3123 -0.1917  0.9037
    4SAPS   H8Y  501   2.726   2.946   9.684  0.3186 -0.3277  0.4699
    4SAPS   C39  502   2.823   3.102   9.568 -0.0336  0.0636  0.3027
    4SAPS   H9X  503   2.932   3.082   9.560  0.0750  0.7234  0.0537
    4SAPS   H9Y  504   2.808   3.212   9.566 -2.2541 -0.1658 -2.7240
    4SAPS  C310  505   2.754   3.040   9.442  0.8717 -0.8194  0.6964
    4SAPS  H10X  506   2.662   3.096   9.413  1.6640 -0.6852 -1.8341
    4SAPS  H10Y  507   2.732   2.932   9.456 -1.1624 -1.1193 -3.3246
    4SAPS  C311  508   2.858   3.049   9.326  0.1317  0.0666  0.0264
    4SAPS  H11X  509   2.925   2.962   9.337  1.2372  0.7871 -0.7736
    4SAPS  H11Y  510   2.928   3.134   9.337  0.9684 -0.4870 -0.8492
    4SAPS  C312  511   2.802   3.037   9.184 -0.4521 -0.2888  0.3160
    4SAPS  H12X  512   2.740   3.128   9.173  0.5446  0.4743  0.8038
    4SAPS  H12Y  513   2.740   2.946   9.170 -1.2027  0.4034 -1.0066
    4SAPS  C313  514   2.924   3.032   9.093 -0.5600  0.9278  0.4001
    4SAPS  H13X  515   2.969   2.931   9.100  0.0190  1.1401 -0.1559
    4SAPS  H13Y  516   3.004   3.102   9.127  0.9816  0.1712 -1.4594
    4SAPS  C314  517   2.892   3.078   8.951 -0.2540  0.2018 -0.0647
    4SAPS  H14X  518   2.994   3.092   8.907  0.3330 -2.6573  0.1946
    4SAPS  H14Y  519   2.827   3.167   8.951  2.0196  1.9680  0.4375
    4SAPS  C315  520   2.816   2.969   8.864  0.5587 -0.4901  0.4428
    4SAPS  H15X  521   2.717   2.949   8.909 -0.8402 -1.7524 -2.8474
    4SAPS  H15Y  522   2.881   2.880   8.874  0.3636 -0.9160 -1.6494
    4SAPS  C316  523   2.791   3.011   8.718  0.4737 -0.1034 -0.4688
    4SAPS  H16X  524   2.739   3.109   8.713  0.1799 -0.0765  2.0553
    4SAPS  H16Y  525   2.735   2.934   8.661  0.1941  0.7842 -1.4265
    4SAPS  C317  526   2.921   3.039   8.634  0.2843 -0.1837 -0.0882
    4SAPS  H17X  527   2.990   2.952   8.631  0.7425  0.1358  0.8891
    4SAPS  H17Y  528   2.978   3.120   8.684 -1.6124  0.1168  1.7376
    4SAPS  C318  529   2.879   3.083   8.494  0.1930  0.4362  0.4437
    4SAPS  H18X  530   2.830   3.182   8.482  0.8013  0.6726 -0.2022
    4SAPS  H18Y  531   2.807   3.018   8.441  0.4211 -0.5311  1.2915
    4SAPS  H18Z  532   2.973   3.088   8.435  0.2777 -3.0847  0.0895
    5SAPS     N  533   4.990   0.429  11.089 -0.5069 -0.9416  0.8000
    5SAPS   HN1  534   5.053   0.383  11.020 -1.4719  0.8119 -1.3605
    5SAPS   HN2  535   5.041   0.450  11.177 -0.1250  1.7246  0.0041
    5SAPS   HN3  536   4.902   0.374  11.099 -1.8687  1.1154  0.7631
    5SAPS   C12  537   4.962   0.569  11.020 -0.1370 -0.3323 -0.0989
    5SAPS  H12A  538   4.878   0.557  10.953 -0.4359 -2.5123  0.5689
    5SAPS   C13  539   4.913   0.660  11.130 -0.1049 -0.4243 -0.1892
    5SAPS  O13A  540   4.891   0.618  11.244  0.4051  0.4419 -0.6657
    5SAPS  O13B  541   4.895   0.782  11.105  0.1891  0.4485  0.1793
    5SAPS   C11  542   5.086   0.625  10.947 -0.1430  0.5714  0.3419
    5SAPS  H11A  543   5.162   0.664  11.018  0.5510  0.2830 -0.2256
    5SAPS  H11B  544   5.047   0.715  10.895  0.7113  2.1504  2.2855
    5SAPS     P  545   5.273   0.549  10.774 -0.3238  0.0097 -0.2349
    5SAPS   O13  546   5.399   0.564  10.856 -0.7490 -0.6197  0.4564
    5SAPS   O14  547   5.288   0.440  10.678  0.6226  0.3916  0.1062
    5SAPS   O12  548   5.138   0.527  10.855  0.3216 -0.1794 -0.5644
    5SAPS   O11  549   5.259   0.687  10.699 -0.0848 -0.3397 -0.0030
    5SAPS    C1  550   5.147   0.709  10.614  1.6162  0.2183  0.2085
    5SAPS    HA  551   5.069   0.634  10.638 -0.2552  1.6125 -1.1733
    5SAPS    HB  552   5.093   0.801  10.645  0.7797  0.5162 -1.9358
    5SAPS    C2  553   5.186   0.729  10.463 -0.2702 -0.2252  0.1808
    5SAPS    HS  554   5.103   0.777  10.407  0.4296 -0.4963 -1.1414
    5SAPS   O21  555   5.223   0.610  10.392 -0.0915  0.0163 -0.5645
    5SAPS   C21  556   5.146   0.508  10.408 -0.1292 -0.4429 -0.7170
    5SAPS   O22  557   5.034   0.505  10.458  0.4955  0.0854 -0.5316
    5SAPS   C22  558   5.219   0.393  10.337  0.5914  0.6908 -0.0860
    5SAPS   H2R  559   5.277   0.440  10.255  0.6898 -1.5167 -1.3809
    5SAPS   H2S  560   5.292   0.344  10.405  0.3699  1.0929  0.4504
    5SAPS    C3  561   5.311   0.830  10.452  0.2073  0.2642 -0.0519
    5SAPS    HX  562   5.371   0.798  10.539 -1.2428 -2.0438  0.1741
    5SAPS    HY  563   5.283   0.933  10.484 -0.3843 -0.0144  0.3519
    5SAPS   O31  564   5.370   0.834  10.321 -0.0779 -0.0103 -0.0971
    5SAPS   C31  565   5.467   0.750  10.309  0.3051  0.0124 -0.0994
    5SAPS   O32  566   5.511   0.674  10.394 -0.6555  0.3224 -0.2590
    5SAPS   C32  567   5.530   0.767  10.168  0.4411  0.2055  0.3964
    5SAPS   H2X  568   5.615   0.695  10.163  0.2911  0.0669 -0.3706
    5SAPS   H2Y  569   5.555   0.874  10.150 -0.0148  0.3110  0.3944
    5SAPS   C23  570   5.129   0.285  10.276 -0.4576 -0.4460 -0.3566
    5SAPS   H3R  571   5.036   0.328  10.232  1.1809  1.3908 -2.2423
    5SAPS   H3S  572   5.109   0.219  10.363 -0.0381 -1.6636 -1.1667
    5SAPS   C24  573   5.200   0.225  10.155 -0.1272  0.1210 -0.8801
    5SAPS   H4R  574   5.306   0.255  10.163 -0.3905  1.1476 -1.0407
    5SAPS   H4S  575   5.166   0.272  10.060 -1.3007  0.7462 -0.1837
    5SAPS   C25  576   5.180   0.075  10.153 -0.4373 -0.0421  0.2495
    5SAPS   H5R  577   5.176   0.026  10.252  3.7231  0.2737  0.7820
    5SAPS   C26  578   5.156  -0.001  10.043  0.0517 -0.1445  0.0995
    5SAPS   H6R  579   5.128  -0.107  10.050  1.3797 -0.5982 -1.0349
    5SAPS   C27  580   5.144   0.051   9.899 -0.1014  0.1338  0.7969
    5SAPS   H7R  581   5.217   0.131   9.873  0.2869 -0.5824 -0.3923
    5SAPS   H7S  582   5.048   0.108   9.902 -0.0887  0.2255 -0.0681
    5SAPS   C28  583   5.141  -0.045   9.777  0.6431  0.8042  0.5178
    5SAPS   H8R  584   5.137  -0.153   9.796 -1.4973  0.3966 -1.6299
    5SAPS   C29  585   5.107  -0.007   9.652 -0.1080 -0.3006 -0.1193
    5SAPS   H9R  586   5.109  -0.091   9.581 -1.5479 -0.7491  0.3255
    5SAPS  C210  587   5.077   0.135   9.592 -0.8164 -0.4726 -0.2583
    5SAPS  H10R  588   5.019   0.188   9.671 -0.5654 -1.8682  0.8914
    5SAPS  H10S  589   5.000   0.126   9.513  0.0437  1.4887 -1.4019
    5SAPS  C211  590   5.192   0.221   9.539  0.2672 -0.3182 -0.1969
    5SAPS  H11R  591   5.277   0.233   9.609  0.7513  2.6256 -1.1334
    5SAPS  C212  592   5.193   0.297   9.429 -0.3970  0.1663  0.3491
    5SAPS  H12R  593   5.281   0.361   9.412  0.5564 -0.7819  1.5220
    5SAPS  C213  594   5.095   0.305   9.318  0.1178  0.0727  0.3216
    5SAPS  H13R  595   5.107   0.395   9.253 -2.8403 -0.3501 -0.9824
    5SAPS  H13S  596   4.989   0.316   9.350 -0.2090  0.2903 -0.7833
    5SAPS  C214  597   5.102   0.182   9.220 -0.2762  0.3891  0.8982
    5SAPS  H14R  598   5.132   0.088   9.268 -3.7450 -0.7639  1.1409
    5SAPS  C215  599   5.079   0.180   9.086 -0.4515 -0.0913  0.5274
    5SAPS  H15R  600   5.115   0.095   9.025  2.2231  1.8589 -0.8066
    5SAPS  C216  601   5.046   0.300   9.007  0.4851  0.5000  0.0046
    5SAPS  H16R  602   4.988   0.366   9.075 -0.8755 -1.8075  1.1929
    5SAPS  H16S  603   4.983   0.263   8.923  2.3343 -1.9426 -0.4225
    5SAPS  C217  604   5.168   0.363   8.953  0.4625 -1.4800  0.6007
    5SAPS  H17R  605   5.210   0.291   8.880  0.8904  0.9949 -1.7392
    5SAPS  H17S  606   5.236   0.393   9.036  0.1936  1.7150 -0.2268
    5SAPS  C218  607   5.128   0.485   8.870 -0.6647 -0.0455  0.0730
    5SAPS  H18R  608   5.051   0.455   8.795  1.5611  0.9149 -2.7823
    5SAPS  H18S  609   5.083   0.566   8.932 -2.3133 -0.3872 -0.6212
    5SAPS  C219  610   5.244   0.533   8.781  0.5405 -0.0621  0.4233
    5SAPS  H19R  611   5.280   0.440   8.732 -1.1512  0.1356 -1.3106
    5SAPS  H19S  612   5.324   0.576   8.847 -0.6512  2.9089  0.0716
    5SAPS  C220  613   5.212   0.631   8.666  0.3546 -0.3174  1.2699
    5SAPS  H20R  614   5.167   0.728   8.692  1.3779  0.7517 -0.7082
    5SAPS  H20S  615   5.157   0.588   8.580 -1.1766 -1.2710  2.6550
    5SAPS  H20T  616   5.310   0.645   8.615 -0.5621 -0.1025 -0.4956
    5SAPS   C33  617   5.432   0.715  10.063  0.2645  0.2537  0.1483
    5SAPS   H3X  618   5.347   0.787  10.059  2.3426  2.9547  1.2199
    5SAPS   H3Y  619   5.391   0.618  10.098 -1.1713  0.3250 -1.2194
    5SAPS   C34  620   5.504   0.691   9.928  0.0343 -0.3456 -0.5477
    5SAPS   H4X  621   5.587   0.618   9.937  1.9190  1.7853  0.4207
    5SAPS   H4Y  622   5.560   0.784   9.905  2.0712 -0.6458  2.6355
    5SAPS   C35  623   5.408   0.666   9.817  0.7152  0.1191  0.7923
    5SAPS   H5X  624   5.337   0.751   9.829  2.1939  1.1759  2.7268
    5SAPS   H5Y  625   5.356   0.573   9.848  1.7125 -0.6143  0.3159
    5SAPS   C36  626   5.472   0.652   9.680  0.2682  0.2310 -0.5730
    5SAPS   H6X  627   5.496   0.545   9.659 -4.9614 -0.8069 -2.7482
    5SAPS   H6Y  628   5.554   0.726   9.667 -0.1640  0.9357  0.5711
    5SAPS   C37  629   5.366   0.683   9.572 -0.5541 -0.4185 -0.6760
    5SAPS   H7X  630   5.326   0.786   9.588 -2.1430 -1.2858  1.3343
    5SAPS   H7Y  631   5.278   0.619   9.596 -1.1572 -0.0106 -1.7473
    5SAPS   C38  632   5.421   0.652   9.428  0.4795 -0.1024 -0.5615
    5SAPS   H8X  633   5.457   0.548   9.441  1.3865  0.3085  0.3635
    5SAPS   H8Y  634   5.496   0.732   9.408 -2.4004  3.4048  1.4878
    5SAPS   C39  635   5.308   0.652   9.331 -0.4918  0.5181 -0.1097
    5SAPS   H9X  636   5.216   0.617   9.383 -1.3299  0.2879 -1.6744
    5SAPS   H9Y  637   5.335   0.589   9.244  0.1259  2.1438 -1.1547
    5SAPS  C310  638   5.272   0.795   9.277 -0.7789  0.5077 -0.3230
    5SAPS  H10X  639   5.299   0.872   9.353  0.1310 -0.1989  0.0808
    5SAPS  H10Y  640   5.163   0.797   9.252 -0.5173 -1.0950 -1.7362
    5SAPS  C311  641   5.338   0.836   9.143 -0.9532  1.0891 -0.5087
    5SAPS  H11X  642   5.333   0.752   9.071 -2.1060  2.5613 -2.2301
    5SAPS  H11Y  643   5.449   0.841   9.155 -1.0182 -0.9762  1.8057
    5SAPS  C312  644   5.267   0.960   9.082  0.3722  0.2109  0.1276
    5SAPS  H12X  645   5.272   1.043   9.155 -1.2810  0.0493  0.4682
    5SAPS  H12Y  646   5.163   0.930   9.057  0.0407  1.0669  0.4643
    5SAPS  C313  647   5.356   0.999   8.958 -0.2521  0.5000 -1.0937
    5SAPS  H13X  648   5.362   0.932   8.869  1.3327 -2.5447  1.0980
    5SAPS  H13Y  649   5.462   1.005   8.991  0.2771  2.3463 -2.8857
    5SAPS  C314  650   5.304   1.133   8.898 -0.0576  0.4153  0.0994
    5SAPS  H14X  651   5.207   1.110   8.849  0.3710  0.3594 -0.7519
    5SAPS  H14Y  652   5.364   1.160   8.809  1.7406 -0.1203  1.0996
    5SAPS  C315  653   5.290   1.252   8.993  0.3306 -0.0564 -0.8286
    5SAPS  H15X  654   5.378   1.252   9.061 -1.0215  0.5272  0.9953
    5SAPS  H15Y  655   5.208   1.232   9.064 -0.1281  2.2438 -0.6296
    5SAPS  C316  656   5.255   1.380   8.922  0.0619  1.6970 -0.0999
    5SAPS  H16X  657   5.164   1.364   8.860 -0.2228 -1.0603  0.8919
    5SAPS  H16Y  658   5.327   1.397   8.839 -0.3585  0.1283 -0.8216
    5SAPS  C317  659   5.236   1.491   9.027  0.1362  0.6944  0.6613
    5SAPS  H17X  660   5.328   1.552   9.039  0.5129  0.7720 -2.0098
    5SAPS  H17Y  661   5.201   1.445   9.122  0.4587  0.2397  0.5612
    5SAPS  C318  662   5.125   1.596   8.989 -0.4999  0.2232  0.7390
    5SAPS  H18X  663   5.113   1.678   9.063 -1.7923 -0.3873  1.2359
    5SAPS  H18Y  664   5.029   1.541   8.991  0.4402 -1.5721 -0.6014
    5SAPS  H18Z  665   5.146   1.633   8.887  3.0898  2.2092  1.9764
    6SAPS     N  666   0.277   2.386  10.684  0.2984  0.0065  0.0990
    6SAPS   HN1  667   0.251   2.456  10.612  0.0665  0.2759  0.4375
    6SAPS   HN2  668   0.247   2.410  10.781  0.6325  1.1781 -0.0785
    6SAPS   HN3  669   0.380   2.398  10.681  0.1957  0.7459 -2.0950
    6SAPS   C12  670   0.232   2.248  10.646 -0.1160  0.2434  0.0158
    6SAPS  H12A  671   0.276   2.249  10.547  1.8629  0.4825  0.8479
    6SAPS   C13  672   0.289   2.127  10.728  0.1795 -0.7948 -0.2559
    6SAPS  O13A  673   0.398   2.144  10.786 -0.1198  0.7705 -0.1405
    6SAPS  O13B  674   0.231   2.018  10.733  0.9050 -0.6543 -0.8181
    6SAPS   C11  675   0.080   2.247  10.650 -0.5579  0.0337 -0.1500
    6SAPS  H11A  676   0.033   2.151  10.623  0.8806 -0.9142  0.5990
    6SAPS  H11B  677   0.052   2.315  10.567 -1.6823  0.4035  0.5012
    6SAPS     P  678  -0.124   2.350  10.787 -0.0240  0.0116 -0.4522
    6SAPS   O13  679  -0.211   2.236  10.804  0.3247 -0.3958 -0.1936
    6SAPS   O14  680  -0.127   2.441  10.908  0.2473  0.5967 -0.2932
    6SAPS   O12  681   0.024   2.292  10.773  0.0587 -0.6082 -0.0971
    6SAPS   O11  682  -0.162   2.440  10.663  0.3036 -0.6088 -0.0320
    6SAPS    C1  683  -0.086   2.558  10.632 -0.6008 -0.2734 -0.0586
    6SAPS    HA  684   0.010   2.550  10.687 -1.9181 -3.9954  2.0552
    6SAPS    HB  685  -0.079   2.560  10.521  0.5118  0.4860  0.0117
    6SAPS    C2  686  -0.151   2.695  10.677  0.0143  0.9045  1.1403
    6SAPS    HS  687  -0.157   2.698  10.788  1.7461  3.2658  1.2369
    6SAPS   O21  688  -0.281   2.714  10.608 -0.3964 -0.3105 -0.1123
    6SAPS   C21  689  -0.391   2.682  10.669  0.9486 -0.4403  0.3766
    6SAPS   O22  690  -0.398   2.662  10.788  0.5540 -0.2616 -0.5947
    6SAPS   C22  691  -0.502   2.686  10.565  0.2096 -0.1026 -0.3470
    6SAPS   H2R  692  -0.546   2.788  10.566 -1.5003 -0.8065  0.0286
    6SAPS   H2S  693  -0.463   2.660  10.465  1.1302  2.1112 -0.6093
    6SAPS    C3  694  -0.059   2.811  10.647 -0.1195 -0.0180  0.5841
    6SAPS    HX  695   0.017   2.817  10.727  0.5665  0.2598 -0.0767
    6SAPS    HY  696  -0.127   2.898  10.659 -1.5630 -1.1107  0.6714
    6SAPS   O31  697  -0.000   2.807  10.514 -0.0927  0.1976 -0.1584
    6SAPS   C31  698  -0.025   2.903  10.422 -0.6432  0.1897  0.7402
    6SAPS   O32  699  -0.100   2.994  10.437  0.1307 -0.1335 -0.1262
    6SAPS   C32  700   0.052   2.868  10.289  0.1583 -0.2520 -0.3693
    6SAPS   H2X  701   0.035   2.761  10.265  0.3083 -0.3771  0.0816
    6SAPS   H2Y  702   0.161   2.886  10.307 -0.3501  4.1365 -0.4495
    6SAPS   C23  703  -0.611   2.584  10.601  0.8808 -0.1747 -0.1604
    6SAPS   H3R  704  -0.652   2.601  10.703  0.7552 -1.4341  0.0063
    6SAPS   H3S  705  -0.564   2.484  10.603  0.9162 -0.1781 -0.8455
    6SAPS   C24  706  -0.723   2.575  10.491 -0.7841 -0.2089  0.1359
    6SAPS   H4R  707  -0.793   2.504  10.540 -1.3271  0.5440  0.4703
    6SAPS   H4S  708  -0.676   2.516  10.410 -1.2558  0.4493 -0.6399
    6SAPS   C25  709  -0.785   2.703  10.456 -0.1765 -0.1455  0.2344
    6SAPS   H5R  710  -0.836   2.761  10.534 -0.3122  0.8293 -0.5491
    6SAPS   C26  711  -0.779   2.762  10.335  0.2556  0.4035 -0.6782
    6SAPS   H6R  712  -0.839   2.853  10.317  2.3353  1.9546 -0.1762
    6SAPS   C27  713  -0.723   2.696  10.213  0.0293 -0.6040  0.1332
    6SAPS   H7R  714  -0.757   2.593  10.188  0.5301 -0.5169 -0.9826
    6SAPS   H7S  715  -0.614   2.699  10.235  0.2728  2.8797 -0.9551
    6SAPS   C28  716  -0.738   2.785  10.091  0.5761 -0.2526 -0.8059
    6SAPS   H8R  717  -0.736   2.894  10.106 -1.1484 -0.3504  0.3779
    6SAPS   C29  718  -0.751   2.742   9.964  0.6790 -0.3656  0.3886
    6SAPS   H9R  719  -0.760   2.820   9.886  2.1396 -0.8822 -0.3333
    6SAPS  C210  720  -0.755   2.601   9.911  0.0675 -0.1669 -0.1374
    6SAPS  H10R  721  -0.860   2.565   9.910  0.2691 -1.5122  4.5445
    6SAPS  H10S  722  -0.696   2.537   9.980  1.9630  1.7404  0.1140
    6SAPS  C211  723  -0.687   2.596   9.775 -0.3184 -0.0002  0.3219
    6SAPS  H11R  724  -0.657   2.697   9.743 -2.2300  0.3569 -0.4893
    6SAPS  C212  725  -0.640   2.490   9.706 -0.4795 -0.3614  0.0691
    6SAPS  H12R  726  -0.607   2.512   9.604 -2.8994 -1.6169 -1.0615
    6SAPS  C213  727  -0.648   2.343   9.733 -0.5007 -0.1556 -1.0312
    6SAPS  H13R  728  -0.738   2.321   9.795 -1.5818  1.5857 -1.8859
    6SAPS  H13S  729  -0.564   2.309   9.796 -0.1636  1.7972 -0.3516
    6SAPS  C214  730  -0.640   2.264   9.610 -0.2616  0.4450 -1.3265
    6SAPS  H14R  731  -0.605   2.309   9.516  1.8129 -0.7769 -1.2115
    6SAPS  C215  732  -0.658   2.128   9.596 -0.3938 -0.2876 -0.0392
    6SAPS  H15R  733  -0.640   2.086   9.495 -2.7000 -0.6169 -0.3741
    6SAPS  C216  734  -0.692   2.031   9.703  0.5604  0.4365 -0.4320
    6SAPS  H16R  735  -0.684   2.070   9.806  0.3411 -2.0987  0.6004
    6SAPS  H16S  736  -0.622   1.946   9.690  2.0565  1.6157 -0.4078
    6SAPS  C217  737  -0.839   1.979   9.704  0.5818  0.3191  0.6935
    6SAPS  H17R  738  -0.902   2.069   9.716  1.4625  0.9354  0.8310
    6SAPS  H17S  739  -0.834   1.906   9.788  0.8653 -1.1483 -0.5494
    6SAPS  C218  740  -0.868   1.900   9.573 -0.5344  0.3620  0.3123
    6SAPS  H18R  741  -0.801   1.812   9.573  0.1665  0.8865  0.1298
    6SAPS  H18S  742  -0.839   1.955   9.481  1.7387 -1.2559 -0.0134
    6SAPS  C219  743  -1.009   1.854   9.531 -0.3384 -0.0929 -0.1005
    6SAPS  H19R  744  -1.000   1.780   9.449 -0.6998  1.5577 -1.7060
    6SAPS  H19S  745  -1.069   1.937   9.487 -0.2261  0.3799  0.6277
    6SAPS  C220  746  -1.085   1.785   9.653  0.0317  0.3848 -0.0585
    6SAPS  H20R  747  -1.114   1.856   9.734 -0.6761  0.4109 -0.3226
    6SAPS  H20S  748  -1.031   1.701   9.702  0.9311  0.0846 -1.4852
    6SAPS  H20T  749  -1.177   1.740   9.609 -1.1801  0.5943  2.1135
    6SAPS   C33  750   0.010   2.949  10.164  0.4202  0.0080 -0.6704
    6SAPS   H3X  751   0.020   3.056  10.194  1.6220 -0.2438 -0.1106
    6SAPS   H3Y  752  -0.095   2.919  10.145 -0.2278  0.1505  2.1714
    6SAPS   C34  753   0.100   2.916  10.050  0.6981 -0.4623  0.1383
    6SAPS   H4X  754   0.102   2.812  10.012 -1.0320 -0.8344  0.9538
    6SAPS   H4Y  755   0.204   2.923  10.089  0.4069  1.0082  0.7326
    6SAPS   C35  756   0.091   3.019   9.934  0.2382 -0.2021 -0.2027
    6SAPS   H5X  757   0.128   3.114   9.978 -1.0553  0.1014  0.2724
    6SAPS   H5Y  758  -0.015   3.028   9.903 -0.5263  0.7606  2.4536
    6SAPS   C36  759   0.172   2.979   9.814  0.0828 -0.1075  0.5336
    6SAPS   H6X  760   0.167   2.868   9.807  1.9028 -0.1599 -0.6173
    6SAPS   H6Y  761   0.279   3.003   9.831 -0.3312  1.5281  1.0190
    6SAPS   C37  762   0.118   3.042   9.687  0.4075  0.0114 -0.6822
    6SAPS   H7X  763   0.200   3.105   9.646  1.5722  0.1115  1.6029
    6SAPS   H7Y  764   0.035   3.115   9.705 -0.8714 -1.1762 -1.5784
    6SAPS   C38  765   0.057   2.941   9.584  0.5910  0.4471  0.3174
    6SAPS   H8X  766  -0.025   2.886   9.634  0.9465 -1.0764 -0.6891
    6SAPS   H8Y  767   0.130   2.863   9.555 -0.2288 -0.0473 -0.4659
    6SAPS   C39  768   0.005   3.002   9.453  0.3339  0.1676  0.0383
    6SAPS   H9X  769   0.088   3.069   9.421 -0.3919  2.0320  1.8698
    6SAPS   H9Y  770  -0.080   3.071   9.475  1.0864  1.6958 -1.5797
    6SAPS  C310  771  -0.032   2.913   9.336  0.2240  0.0879  0.0232
    6SAPS  H10X  772  -0.134   2.872   9.356 -0.1998  0.4885 -1.1958
    6SAPS  H10Y  773   0.048   2.837   9.336  1.5469  1.4338 -0.3520
    6SAPS  C311  774  -0.027   2.968   9.198 -0.0984 -0.0802 -0.1759
    6SAPS  H11X  775   0.079   3.001   9.187  1.2588 -3.4707  1.4175
    6SAPS  H11Y  776  -0.087   3.062   9.196  0.1657  0.0770 -1.0283
    6SAPS  C312  777  -0.044   2.864   9.088  0.1987  0.2824  0.6625
    6SAPS  H12X  778   0.027   2.781   9.109 -0.4982 -0.8022 -1.1022
    6SAPS  H12Y  779  -0.019   2.909   8.989  2.4749 -1.6252  0.2827
    6SAPS  C313  780  -0.190   2.810   9.084 -0.7698 -0.5236  0.0261
    6SAPS  H13X  781  -0.254   2.900   9.076  2.4903  1.8166 -1.6617
    6SAPS  H13Y  782  -0.211   2.768   9.185 -0.9198  0.3375  0.3634
    6SAPS  C314  783  -0.200   2.695   8.979  0.5958  0.5130 -0.3437
    6SAPS  H14X  784  -0.281   2.627   9.013  1.1360 -0.3039 -0.6480
    6SAPS  H14Y  785  -0.098   2.651   8.980  0.1824 -0.5669 -1.9363
    6SAPS  C315  786  -0.241   2.758   8.842 -0.2328  0.0707 -0.6549
    6SAPS  H15X  787  -0.199   2.859   8.825 -1.7166  0.9559  0.7079
    6SAPS  H15Y  788  -0.351   2.767   8.832 -0.0905  2.0214 -0.7627
    6SAPS  C316  789  -0.209   2.666   8.725 -0.1397 -0.2330  0.0777
    6SAPS  H16X  790  -0.100   2.648   8.717 -0.2612 -0.6212 -0.8826
    6SAPS  H16Y  791  -0.253   2.722   8.640  2.5044  1.7098 -0.1248
    6SAPS  C317  792  -0.274   2.523   8.738 -0.1684  0.5681  0.1881
    6SAPS  H17X  793  -0.382   2.509   8.758 -0.2067 -4.7495 -2.1416
    6SAPS  H17Y  794  -0.229   2.480   8.830 -2.0508 -0.9635  0.4503
    6SAPS  C318  795  -0.235   2.441   8.617 -0.2053 -0.2789 -0.0279
    6SAPS  H18X  796  -0.263   2.493   8.523  0.2236 -0.4489 -0.2532
    6SAPS  H18Y  797  -0.277   2.340   8.636 -1.3083  0.3980  1.3099
    6SAPS  H18Z  798  -0.127   2.421   8.601 -0.0190  1.8517 -1.8025
    7SAPS     N  799   2.133   3.495  10.943 -0.2623  0.1196  0.2880
    7SAPS   HN1  800   2.155   3.588  10.983  2.1526 -0.6720  1.0090
    7SAPS   HN2  801   2.207   3.425  10.964 -0.3798 -0.0843  0.0229
    7SAPS   HN3  802   2.124   3.516  10.842 -0.3900 -1.2535 -0.0042
    7SAPS   C12  803   1.998   3.465  10.992 -0.5067  0.2091 -0.1498
    7SAPS  H12A  804   1.989   3.358  10.986  0.9861  0.1391 -3.2753
    7SAPS   C13  805   1.995   3.524  11.132  0.0207 -0.0934 -0.4178
    7SAPS  O13A  806   2.086   3.606  11.176 -0.5423  0.3254  0.1936
    7SAPS  O13B  807   1.886   3.511  11.198 -0.6177 -0.2842  0.1625
    7SAPS   C11  808   1.892   3.538  10.905 -0.0246 -0.0645 -0.4764
    7SAPS  H11A  809   1.903   3.646  10.931 -1.2415 -0.5105  2.2621
    7SAPS  H11B  810   1.790   3.505  10.933 -0.0649  0.7121  0.3692
    7SAPS     P  811   1.790   3.547  10.666  0.0946  0.3845 -0.2700
    7SAPS   O13  812   1.833   3.555  10.527 -0.4908 -0.5650 -0.5475
    7SAPS   O14  813   1.676   3.456  10.694  0.3652 -0.0254  0.2939
    7SAPS   O12  814   1.908   3.499  10.768 -0.2173 -0.3759 -0.7352
    7SAPS   O11  815   1.739   3.692  10.710  0.1733 -0.2208  0.4193
    7SAPS    C1  816   1.819   3.814  10.724  0.4465 -1.0531  0.3278
    7SAPS    HA  817   1.814   3.844  10.831 -2.8161 -1.0918  0.2725
    7SAPS    HB  818   1.924   3.801  10.691  0.2012 -3.5545  0.3846
    7SAPS    C2  819   1.764   3.924  10.625  0.2873 -0.2240 -0.3741
    7SAPS    HS  820   1.656   3.929  10.648  0.3948  1.1097 -0.0824
    7SAPS   O21  821   1.799   3.887  10.489  0.4630  0.3451  0.3506
    7SAPS   C21  822   1.702   3.842  10.415 -0.4277  1.2112 -0.3491
    7SAPS   O22  823   1.586   3.835  10.435  0.4332  0.2612  0.2690
    7SAPS   C22  824   1.761   3.802  10.279 -0.7429 -0.2408 -0.5358
    7SAPS   H2R  825   1.750   3.889  10.210  0.1948  0.3513  0.0303
    7SAPS   H2S  826   1.872   3.793  10.275 -0.6620  0.7975 -0.9049
    7SAPS    C3  827   1.829   4.067  10.663  0.1147 -0.0814  0.4226
    7SAPS    HX  828   1.936   4.044  10.648  0.1175 -0.0933  0.4614
    7SAPS    HY  829   1.811   4.089  10.770 -0.2621  0.7681  0.2050
    7SAPS   O31  830   1.790   4.170  10.569 -0.1474 -0.0849 -0.3397
    7SAPS   C31  831   1.671   4.223  10.595  0.6324 -0.8063  0.1457
    7SAPS   O32  832   1.596   4.183  10.678 -0.1341 -0.8187  0.2595
    7SAPS   C32  833   1.648   4.336  10.504  0.1512 -0.9328  0.4766
    7SAPS   H2X  834   1.751   4.371  10.478 -0.2680 -0.5587 -0.7379
    7SAPS   H2Y  835   1.618   4.430  10.556 -0.3501 -0.5236 -0.5132
    7SAPS   C23  836   1.703   3.670  10.212  0.4376 -0.0834 -0.0788
    7SAPS   H3R  837   1.593   3.681  10.209  0.4835  0.1897 -0.7382
    7SAPS   H3S  838   1.742   3.589  10.278  5.7055  2.3095  0.3167
    7SAPS   C24  839   1.760   3.656  10.066  0.8455 -0.5689  0.8428
    7SAPS   H4R  840   1.867   3.629  10.077  1.0618 -0.7413 -1.1680
    7SAPS   H4S  841   1.743   3.757  10.023 -4.4466 -0.8758  1.5162
    7SAPS   C25  842   1.684   3.552   9.987 -0.2761 -0.2695  0.0266
    7SAPS   H5R  843   1.661   3.473  10.059 -2.3292  0.9814  0.8145
    7SAPS   C26  844   1.636   3.552   9.866 -1.5121  0.3192  0.6809
    7SAPS   H6R  845   1.580   3.459   9.845  0.5696 -1.3140  2.0735
    7SAPS   C27  846   1.639   3.654   9.747 -0.6138  0.4806  0.7382
    7SAPS   H7R  847   1.638   3.757   9.788 -1.1923  0.4664  0.7565
    7SAPS   H7S  848   1.545   3.636   9.691  1.5052 -1.5546 -2.5086
    7SAPS   C28  849   1.770   3.632   9.662  0.1101  0.7450 -0.5880
    7SAPS   H8R  850   1.863   3.634   9.721 -0.5335  1.8771  0.4191
    7SAPS   C29  851   1.782   3.627   9.529 -0.0253  0.8612 -0.5277
    7SAPS   H9R  852   1.871   3.589   9.477 -0.7670 -0.4445 -0.9004
    7SAPS  C210  853   1.657   3.634   9.450 -0.5991 -0.3383 -0.3236
    7SAPS  H10R  854   1.597   3.727   9.459 -1.8389 -1.2005  0.8342
    7SAPS  H10S  855   1.589   3.556   9.493 -0.0270  0.4434  2.1370
    7SAPS  C211  856   1.669   3.599   9.301  0.4422  0.0771  0.0623
    7SAPS  H11R  857   1.655   3.493   9.274 -1.8155  0.3312  0.0728
    7SAPS  C212  858   1.673   3.681   9.198 -0.1890  0.0616  0.0130
    7SAPS  H12R  859   1.685   3.645   9.095 -1.8352  0.8052 -0.4820
    7SAPS  C213  860   1.667   3.832   9.203  0.6263 -0.3822  0.5262
    7SAPS  H13R  861   1.695   3.888   9.112  2.7651 -1.5410  0.4116
    7SAPS  H13S  862   1.742   3.876   9.272  1.5188 -0.6668 -0.2407
    7SAPS  C214  863   1.534   3.890   9.232  0.7941  1.0240 -0.1523
    7SAPS  H14R  864   1.451   3.841   9.180  0.9770 -0.6115  0.9965
    7SAPS  C215  865   1.497   3.994   9.306 -0.6679 -0.2078 -0.2656
    7SAPS  H15R  866   1.391   4.015   9.325 -0.2667  3.2564 -1.1774
    7SAPS  C216  867   1.600   4.076   9.381  0.2742 -0.1409 -0.7393
    7SAPS  H16R  868   1.595   4.186   9.369  2.3879  0.1056  0.1774
    7SAPS  H16S  869   1.707   4.056   9.358  1.0017  2.2069  0.2448
    7SAPS  C217  870   1.592   4.036   9.523 -0.2967  0.1772 -0.5967
    7SAPS  H17R  871   1.595   3.927   9.545  1.6784  0.1939 -0.6141
    7SAPS  H17S  872   1.496   4.069   9.568  0.3623 -1.0230  1.8876
    7SAPS  C218  873   1.694   4.113   9.596 -0.6694  0.0655  0.4004
    7SAPS  H18R  874   1.717   4.210   9.546  2.6351 -0.6672  0.2745
    7SAPS  H18S  875   1.786   4.056   9.619 -0.6578  1.1801  3.5882
    7SAPS  C219  876   1.636   4.146   9.739  0.4565 -1.0035  0.4338
    7SAPS  H19R  877   1.532   4.185   9.734  0.1043 -2.0643 -1.4559
    7SAPS  H19S  878   1.706   4.221   9.782  0.7043 -2.1844  2.1657
    7SAPS  C220  879   1.640   4.022   9.830  0.5311 -0.2830  0.4946
    7SAPS  H20R  880   1.733   3.963   9.815  0.5639  0.3812 -2.5145
    7SAPS  H20S  881   1.558   3.952   9.805 -1.0824  0.8604  2.2995
    7SAPS  H20T  882   1.613   4.050   9.934 -0.6789  0.9514 -0.1225
    7SAPS   C33  883   1.561   4.301  10.383  0.0617  0.4003 -0.3947
    7SAPS   H3X  884   1.461   4.275  10.424 -0.8175  1.6704 -1.6796
    7SAPS   H3Y  885   1.595   4.211  10.327  0.0791 -0.8079  1.4559
    7SAPS   C34  886   1.559   4.425  10.295  0.6230  0.4227  0.6443
    7SAPS   H4X  887   1.661   4.440  10.253 -0.3595 -0.1800 -2.2232
    7SAPS   H4Y  888   1.517   4.502  10.363  0.2094 -1.2596  2.3880
    7SAPS   C35  889   1.459   4.408  10.174 -0.5181 -0.4002  0.2800
    7SAPS   H5X  890   1.360   4.425  10.220  0.4793  2.9387  1.5155
    7SAPS   H5Y  891   1.453   4.302  10.141  2.4341 -0.5971  0.0296
    7SAPS   C36  892   1.491   4.525  10.070 -0.1993  0.6078 -0.8780
    7SAPS   H6X  893   1.525   4.618  10.120  0.0067 -0.1941  0.5198
    7SAPS   H6Y  894   1.396   4.528  10.012 -1.0604  1.8432  0.5417
    7SAPS   C37  895   1.606   4.500   9.976  0.6618 -0.6458 -0.2568
    7SAPS   H7X  896   1.596   4.397   9.937  0.8771 -0.7745  0.0263
    7SAPS   H7Y  897   1.707   4.503  10.022  0.6945 -1.0943 -0.2946
    7SAPS   C38  898   1.615   4.592   9.850 -1.1742  0.0248 -0.5120
    7SAPS   H8X  899   1.663   4.684   9.889 -2.7359 -0.5010  3.1092
    7SAPS   H8Y  900   1.509   4.607   9.820 -1.0019  0.5826 -0.8447
    7SAPS   C39  901   1.696   4.514   9.748  0.5146  0.1784  0.0409
    7SAPS   H9X  902   1.646   4.417   9.729 -0.9051  0.9258 -0.1421
    7SAPS   H9Y  903   1.801   4.506   9.784  0.3006 -0.8315  0.4760
    7SAPS  C310  904   1.668   4.581   9.616  0.1805  0.2992  0.9811
    7SAPS  H10X  905   1.717   4.681   9.623 -1.8991  1.2987  2.1037
    7SAPS  H10Y  906   1.558   4.595   9.615 -0.0883 -1.5905  1.1801
    7SAPS  C311  907   1.713   4.503   9.489  0.4865  0.1540 -0.3507
    7SAPS  H11X  908   1.658   4.407   9.497  2.1999 -0.8435 -0.0327
    7SAPS  H11Y  909   1.823   4.486   9.493  1.2846  4.2905  0.0722
    7SAPS  C312  910   1.700   4.559   9.356 -0.0640  0.1845  0.1333
    7SAPS  H12X  911   1.774   4.641   9.345 -3.7928  3.4997 -4.8914
    7SAPS  H12Y  912   1.596   4.598   9.348 -0.1151 -0.1918 -1.2305
    7SAPS  C313  913   1.718   4.448   9.245  0.4982 -0.7269  0.7491
    7SAPS  H13X  914   1.639   4.370   9.259 -1.5530  1.1395  0.2226
    7SAPS  H13Y  915   1.818   4.400   9.250  0.7863 -0.1582  0.5352
    7SAPS  C314  916   1.713   4.505   9.098  0.1775 -0.2119 -0.2696
    7SAPS  H14X  917   1.724   4.424   9.023  0.1328  1.0891 -1.7313
    7SAPS  H14Y  918   1.805   4.565   9.083  0.2829 -0.4315 -0.5077
    7SAPS  C315  919   1.597   4.590   9.050  0.1438 -0.0501 -0.3434
    7SAPS  H15X  920   1.595   4.697   9.080  0.1100  0.1415 -1.0066
    7SAPS  H15Y  921   1.498   4.549   9.080  0.6989 -2.3749 -1.4886
    7SAPS  C316  922   1.597   4.602   8.896  0.1333 -0.1650  0.2738
    7SAPS  H16X  923   1.522   4.679   8.869 -0.2364 -0.5745  0.1312
    7SAPS  H16Y  924   1.564   4.502   8.863 -1.1183 -1.0079  3.6316
    7SAPS  C317  925   1.731   4.663   8.848 -0.3011 -0.4931 -0.1608
    7SAPS  H17X  926   1.812   4.593   8.877 -1.4197 -2.3189 -1.2392
    7SAPS  H17Y  927   1.754   4.758   8.900 -0.8339 -0.3178 -0.2419
    7SAPS  C318  928   1.733   4.691   8.693 -0.5606  0.9853 -0.4003
    7SAPS  H18X  929   1.819   4.758   8.668 -0.2694  1.0862  0.8285
    7SAPS  H18Y  930   1.650   4.763   8.677  0.4031  3.3627  3.7921
    7SAPS  H18Z  931   1.735   4.598   8.633 -2.1427  0.3285  0.5310
    8SAPS     N  932   4.125   5.764  10.658  0.0959 -0.7694 -0.2065
    8SAPS   HN1  933   4.123   5.858  10.703  1.6238 -0.7151 -0.1944
    8SAPS   HN2  934   4.153   5.690  10.724  2.7313  0.6901  0.4544
    8SAPS   HN3  935   4.167   5.768  10.563  1.1185 -0.6692  0.2411
    8SAPS   C12  936   3.981   5.742  10.641  0.6026 -0.6528 -0.1667
    8SAPS  H12A  937   3.959   5.702  10.544 -1.0506  1.6771 -0.8492
    8SAPS   C13  938   3.929   5.642  10.746 -0.1313  0.6713 -0.0444
    8SAPS  O13A  939   4.006   5.601  10.835 -0.0457  0.3312  0.3547
    8SAPS  O13B  940   3.805   5.617  10.741 -0.0714 -0.5342 -0.5312
    8SAPS   C11  941   3.912   5.880  10.663 -0.0180 -0.3995  0.1563
    8SAPS  H11A  942   3.804   5.871  10.640 -0.3751 -2.5407  2.2037
    8SAPS  H11B  943   3.958   5.952  10.592  0.1984  1.1922  1.8220
    8SAPS     P  944   3.851   6.063  10.851 -0.2082  0.1231  0.3487
    8SAPS   O13  945   3.752   6.007  10.950  0.6620  0.7880 -0.2527
    8SAPS   O14  946   3.939   6.173  10.898  0.2529 -0.5408  0.2979
    8SAPS   O12  947   3.940   5.947  10.788  0.5861 -0.0243 -0.1860
    8SAPS   O11  948   3.763   6.107  10.721  0.0489 -0.3671 -0.5294
    8SAPS    C1  949   3.748   6.245  10.691  0.1488  0.0227  0.4637
    8SAPS    HA  950   3.677   6.288  10.766 -2.7707 -1.8137 -1.0385
    8SAPS    HB  951   3.843   6.301  10.703 -0.4846  1.8857 -2.3265
    8SAPS    C2  952   3.673   6.259  10.554  0.6303 -0.8364  0.6517
    8SAPS    HS  953   3.589   6.187  10.544 -1.2533  1.3857 -0.5486
    8SAPS   O21  954   3.761   6.250  10.437  0.4120  0.7524  0.5200
    8SAPS   C21  955   3.796   6.129  10.406 -0.3224  0.2126 -0.0470
    8SAPS   O22  956   3.754   6.027  10.456 -0.2581 -0.2103  0.5103
    8SAPS   C22  957   3.890   6.135  10.291 -0.9035 -0.2125 -0.1920
    8SAPS   H2R  958   3.859   6.213  10.218 -1.7065 -0.5726 -0.2504
    8SAPS   H2S  959   3.993   6.161  10.325 -1.8137  0.8645  1.9213
    8SAPS    C3  960   3.601   6.400  10.550 -0.1261 -0.7256  0.0783
    8SAPS    HX  961   3.676   6.482  10.542 -0.4900 -0.3476  0.4569
    8SAPS    HY  962   3.563   6.422  10.653  1.1903 -0.4251  0.5181
    8SAPS   O31  963   3.492   6.400  10.457  0.2077 -0.2158 -0.7435
    8SAPS   C31  964   3.500   6.495  10.363  0.2232  0.2979 -0.0376
    8SAPS   O32  965   3.587   6.579  10.359  0.2665 -0.3862  0.9042
    8SAPS   C32  966   3.390   6.475  10.260  1.0491 -0.4703 -0.0266
    8SAPS   H2X  967   3.311   6.541  10.303  1.2999  0.8925 -1.5876
    8SAPS   H2Y  968   3.356   6.370  10.274 -1.8495  0.0461 -2.2040
    8SAPS   C23  969   3.904   6.004  10.210  0.0831 -0.6087 -0.7213
    8SAPS   H3R  970   3.807   5.954  10.194  0.0578 -0.3550 -1.3766
    8SAPS   H3S  971   3.967   5.935  10.270  0.1049  0.9682  1.2034
    8SAPS   C24  972   3.981   6.009  10.075  0.5166 -0.0527  0.0396
    8SAPS   H4R  973   3.907   6.052  10.005 -1.0013  1.2064  2.2858
    8SAPS   H4S  974   4.006   5.905  10.045  1.9146  0.2337  0.1300
    8SAPS   C25  975   4.115   6.081  10.086  0.0567 -0.9948  0.3423
    8SAPS   H5R  976   4.186   6.049  10.163 -1.0911 -0.5786  1.6217
    8SAPS   C26  977   4.157   6.192  10.020  0.1936  0.1890 -0.0044
    8SAPS   H6R  978   4.252   6.239  10.046  0.0304  1.7942 -2.0617
    8SAPS   C27  979   4.078   6.268   9.920 -0.5935 -0.2052  0.3403
    8SAPS   H7R  980   4.034   6.199   9.844  5.1156 -1.2023 -2.5552
    8SAPS   H7S  981   4.146   6.326   9.853  0.7176 -1.0243  0.9353
    8SAPS   C28  982   3.970   6.354   9.985  0.7621  0.4377 -0.4902
    8SAPS   H8R  983   3.965   6.353  10.095  1.8223  0.7714 -0.4314
    8SAPS   C29  984   3.893   6.445   9.919 -0.0843  0.3094  0.3399
    8SAPS   H9R  985   3.822   6.508   9.975  0.3661 -0.4579  1.8151
    8SAPS  C210  986   3.898   6.473   9.775 -0.1347 -0.6948  0.2603
    8SAPS  H10R  987   3.923   6.383   9.714  3.5015  0.9865 -0.9695
    8SAPS  H10S  988   3.974   6.553   9.764 -1.5895  0.5333 -1.5838
    8SAPS  C211  989   3.772   6.523   9.719 -0.2202 -0.8698 -0.5622
    8SAPS  H11R  990   3.694   6.446   9.730 -0.2178 -0.6688  1.1415
    8SAPS  C212  991   3.740   6.641   9.667 -0.3736  0.3857 -0.4274
    8SAPS  H12R  992   3.638   6.647   9.627  0.3406 -0.0854 -2.4527
    8SAPS  C213  993   3.829   6.759   9.634  0.0013 -0.2883  0.1629
    8SAPS  H13R  994   3.935   6.746   9.665 -0.0085 -1.8334 -0.3404
    8SAPS  H13S  995   3.784   6.833   9.703  0.1264  1.7715 -1.8218
    8SAPS  C214  996   3.813   6.808   9.490 -0.4186 -0.3927  0.1655
    8SAPS  H14R  997   3.808   6.743   9.401 -1.7307  1.8384 -1.4695
    8SAPS  C215  998   3.790   6.938   9.455  0.6246  0.4280  0.7991
    8SAPS  H15R  999   3.780   6.956   9.347  0.5891 -2.0655  0.3324
    8SAPS  C216 1000   3.778   7.047   9.552 -0.2037 -0.9137 -0.2077
    8SAPS  H16R 1001   3.757   7.023   9.659 -0.9306  1.1319  0.1589
    8SAPS  H16S 1002   3.689   7.106   9.521 -0.5835 -1.2691  0.1976
    8SAPS  C217 1003   3.904   7.140   9.564 -0.1458  0.2332  0.5688
    8SAPS  H17R 1004   3.936   7.174   9.463  1.3249 -3.4131 -0.3547
    8SAPS  H17S 1005   3.986   7.086   9.617  0.2796 -0.7605 -1.0221
    8SAPS  C218 1006   3.870   7.273   9.645  0.6789 -0.4073 -0.2908
    8SAPS  H18R 1007   3.781   7.310   9.589  0.3064 -1.7307 -0.5891
    8SAPS  H18S 1008   3.954   7.346   9.648 -0.0883  0.4656  2.5427
    8SAPS  C219 1009   3.814   7.243   9.792  0.3777 -0.1574  0.0399
    8SAPS  H19R 1010   3.856   7.156   9.847  1.2575 -1.1471 -2.0955
    8SAPS  H19S 1011   3.705   7.222   9.781  0.3266 -0.1666  0.5175
    8SAPS  C220 1012   3.821   7.363   9.883  0.1922  0.2042 -0.0270
    8SAPS  H20R 1013   3.925   7.400   9.887 -0.3551  1.8176 -0.1992
    8SAPS  H20S 1014   3.804   7.323   9.985  0.6649 -3.1359 -1.1233
    8SAPS  H20T 1015   3.746   7.442   9.864  0.6450  0.7457  0.4206
    8SAPS   C33 1016   3.433   6.525  10.122 -0.9057 -0.1337 -0.3328
    8SAPS   H3X 1017   3.528   6.484  10.082 -1.1511 -0.2233 -0.8370
    8SAPS   H3Y 1018   3.467   6.631  10.122  0.5061 -0.5225 -2.5324
    8SAPS   C34 1019   3.325   6.504  10.011  0.1900 -0.1963  0.1124
    8SAPS   H4X 1020   3.239   6.561  10.052  0.4780  2.0758 -2.2378
    8SAPS   H4Y 1021   3.299   6.399   9.985 -2.5850  0.5236 -0.2942
    8SAPS   C35 1022   3.356   6.585   9.885 -0.3877 -0.3154  0.2809
    8SAPS   H5X 1023   3.451   6.558   9.833 -0.3918  0.2779 -0.0457
    8SAPS   H5Y 1024   3.371   6.690   9.917 -2.3268  0.3473 -0.8677
    8SAPS   C36 1025   3.242   6.574   9.780 -0.1777 -0.8561 -0.6480
    8SAPS   H6X 1026   3.235   6.665   9.717 -1.7853 -1.1120 -0.8581
    8SAPS   H6Y 1027   3.141   6.557   9.823  1.4130 -3.1961  2.6067
    8SAPS   C37 1028   3.272   6.461   9.680  0.6451 -0.7912 -0.3616
    8SAPS   H7X 1029   3.286   6.358   9.718  0.3734 -0.2645  1.2409
    8SAPS   H7Y 1030   3.368   6.495   9.634 -0.0746  2.1718  0.1082
    8SAPS   C38 1031   3.161   6.455   9.565  0.2485  0.3840 -0.2307
    8SAPS   H8X 1032   3.117   6.553   9.537 -1.9950 -0.1248  1.2644
    8SAPS   H8Y 1033   3.075   6.406   9.615 -1.5870  2.7610 -0.8417
    8SAPS   C39 1034   3.203   6.365   9.459  0.2395 -0.5241  0.4329
    8SAPS   H9X 1035   3.247   6.270   9.496 -1.9559 -2.6897 -2.0308
    8SAPS   H9Y 1036   3.285   6.422   9.410 -0.9816  3.1556  2.3026
    8SAPS  C310 1037   3.084   6.336   9.357  0.0286  0.2701 -0.1169
    8SAPS  H10X 1038   3.054   6.436   9.321  2.8647  1.1521 -0.3098
    8SAPS  H10Y 1039   2.997   6.295   9.413 -0.3605 -0.9868 -1.5656
    8SAPS  C311 1040   3.128   6.233   9.257  0.4872  0.2877 -0.4540
    8SAPS  H11X 1041   3.159   6.136   9.300 -0.4325 -0.9917 -2.5241
    8SAPS  H11Y 1042   3.218   6.266   9.201 -0.5238  0.7029 -1.8852
    8SAPS  C312 1043   3.023   6.208   9.151  0.1597 -0.1102  0.1404
    8SAPS  H12X 1044   2.990   6.308   9.115 -1.6227 -0.8173 -0.3047
    8SAPS  H12Y 1045   2.940   6.147   9.194 -1.0992  0.8745 -0.8197
    8SAPS  C313 1046   3.068   6.114   9.040  0.4864  0.0449 -0.0126
    8SAPS  H13X 1047   2.979   6.066   8.994 -0.7809  2.7117 -0.5489
    8SAPS  H13Y 1048   3.137   6.032   9.069  0.3013  0.2264  0.9873
    8SAPS  C314 1049   3.139   6.186   8.922 -0.4674  0.1347  0.6376
    8SAPS  H14X 1050   3.188   6.122   8.845  1.4029  1.7555  0.4030
    8SAPS  H14Y 1051   3.222   6.255   8.949 -0.2014  0.5529 -1.1486
    8SAPS  C315 1052   3.032   6.273   8.842 -0.6721  0.1814 -0.3549
    8SAPS  H15X 1053   2.967   6.332   8.910  0.2279 -0.3837  1.0438
    8SAPS  H15Y 1054   2.968   6.193   8.798 -2.3575  0.3074  1.7098
    8SAPS  C316 1055   3.088   6.369   8.729  0.7213  0.0443  0.4026
    8SAPS  H16X 1056   3.172   6.436   8.757  0.2736  1.0350 -0.5644
    8SAPS  H16Y 1057   3.009   6.439   8.694  1.1205  1.5062  2.3163
    8SAPS  C317 1058   3.120   6.285   8.612 -0.3431 -0.2039 -0.3986
    8SAPS  H17X 1059   3.047   6.205   8.586 -0.8511  0.0156  0.3155
    8SAPS  H17Y 1060   3.216   6.235   8.637  0.4477  1.4332 -0.0492
    8SAPS  C318 1061   3.154   6.369   8.488  0.6573  0.2625  0.3372
    8SAPS  H18X 1062   3.066   6.427   8.451 -0.1655 -0.8347  0.5139
    8SAPS  H18Y 1063   3.192   6.305   8.406 -2.1894  0.2051 -1.0641
    8SAPS  H18Z 1064   3.235   6.442   8.512  0.4420  1.0176 -1.1171
    9SAPS     N 1065   0.217   0.342   6.052  0.0593  0.3333 -0.1648
    9SAPS   HN1 1066   0.154   0.289   6.115  0.9489  0.4798  0.8818
    9SAPS   HN2 1067   0.202   0.299   5.958 -0.3442 -1.8625  0.8496
    9SAPS   HN3 1068   0.314   0.316   6.080 -0.8446  0.0462  3.0615
    9SAPS   C12 1069   0.193   0.494   6.045 -0.0699  0.5994 -0.5764
    9SAPS  H12A 1070   0.291   0.536   6.060 -0.1267  0.4870  0.1548
    9SAPS   C13 1071   0.136   0.551   5.909 -0.1026  0.1561  1.5816
    9SAPS  O13A 1072   0.126   0.477   5.805  0.0637 -0.3068 -0.5197
    9SAPS  O13B 1073   0.148   0.678   5.894 -0.2403 -0.0833  0.0357
    9SAPS   C11 1074   0.089   0.531   6.155 -0.3135 -0.0943 -0.1606
    9SAPS  H11A 1075  -0.008   0.481   6.131  0.7385 -1.1635 -2.5333
    9SAPS  H11B 1076   0.077   0.642   6.149  2.2391  0.3607  1.6151
    9SAPS     P 1077   0.111   0.567   6.416 -0.5043  0.0047  0.2011
    9SAPS   O13 1078   0.150   0.471   6.525  0.1604 -1.0212  0.0596
    9SAPS   O14 1079   0.186   0.696   6.409 -0.3343 -0.3005 -0.2494
    9SAPS   O12 1080   0.134   0.492   6.279 -0.2592 -0.6275  0.1499
    9SAPS   O11 1081  -0.041   0.595   6.418  0.1533  0.4324 -0.2253
    9SAPS    C1 1082  -0.096   0.708   6.483  0.5074 -1.0133 -0.7038
    9SAPS    HA 1083  -0.026   0.794   6.484 -1.3183  0.6300 -3.0530
    9SAPS    HB 1084  -0.170   0.757   6.417  1.1585  2.8160  1.1752
    9SAPS    C2 1085  -0.166   0.701   6.623 -0.6727 -0.0884  0.7182
    9SAPS    HS 1086  -0.203   0.800   6.660  1.3757  1.0111 -0.0040
    9SAPS   O21 1087  -0.076   0.644   6.718 -0.4242  1.0462 -0.1459
    9SAPS   C21 1088   0.005   0.733   6.769 -0.1720 -0.1429  0.0664
    9SAPS   O22 1089   0.031   0.841   6.719 -0.5434 -0.3130 -0.0457
    9SAPS   C22 1090   0.085   0.689   6.887  0.3082  0.0743 -0.7330
    9SAPS   H2R 1091   0.089   0.578   6.889 -1.3705 -0.0047  0.1132
    9SAPS   H2S 1092   0.188   0.720   6.860  1.1064 -1.1695  0.7038
    9SAPS    C3 1093  -0.296   0.612   6.606 -0.1228 -0.1181  0.2834
    9SAPS    HX 1094  -0.259   0.520   6.556  0.2177  0.8363 -1.2787
    9SAPS    HY 1095  -0.373   0.661   6.543 -2.6473 -2.3014  1.4398
    9SAPS   O31 1096  -0.363   0.581   6.738  0.0806  0.5643 -0.5356
    9SAPS   C31 1097  -0.327   0.460   6.787  0.8075  0.2491  0.4701
    9SAPS   O32 1098  -0.227   0.392   6.757 -0.0737  0.1727  0.6351
    9SAPS   C32 1099  -0.428   0.412   6.897  0.2141  0.8817  0.3595
    9SAPS   H2X 1100  -0.528   0.452   6.872  0.4377  1.3133  0.1438
    9SAPS   H2Y 1101  -0.384   0.457   6.989  0.8821  1.2617 -0.1362
    9SAPS   C23 1102   0.055   0.760   7.020 -0.1111  0.8369 -0.3681
    9SAPS   H3R 1103   0.056   0.869   6.998  0.3289  1.3502  1.8592
    9SAPS   H3S 1104   0.144   0.741   7.084  0.0271  0.0887 -0.7694
    9SAPS   C24 1105  -0.076   0.720   7.093 -0.0484  0.8306  0.2095
    9SAPS   H4R 1106  -0.168   0.745   7.035 -2.8897 -1.4594  3.3348
    9SAPS   H4S 1107  -0.077   0.784   7.184  0.3123 -2.1113  2.4293
    9SAPS   C25 1108  -0.073   0.578   7.148  0.2747  0.9391  0.1920
    9SAPS   H5R 1109  -0.117   0.502   7.082  1.2569 -0.0935  0.6794
    9SAPS   C26 1110  -0.027   0.544   7.271  0.3080  0.5393 -0.1864
    9SAPS   H6R 1111  -0.027   0.437   7.294 -1.3238  0.5414 -0.0843
    9SAPS   C27 1112   0.042   0.632   7.370 -0.7655 -0.0463 -0.1922
    9SAPS   H7R 1113   0.102   0.700   7.306 -0.9410 -2.1364 -2.7684
    9SAPS   H7S 1114   0.123   0.576   7.421 -0.2700  2.7812  2.3786
    9SAPS   C28 1115  -0.046   0.702   7.475  0.4167  0.1850 -0.1235
    9SAPS   H8R 1116  -0.116   0.775   7.429  2.5019  1.5555 -1.3022
    9SAPS   C29 1117  -0.057   0.681   7.602  0.0125 -0.2414 -1.1924
    9SAPS   H9R 1118  -0.128   0.749   7.650  0.9586  0.1252 -0.2868
    9SAPS  C210 1119   0.027   0.585   7.689  0.2745 -0.3089 -0.2468
    9SAPS  H10R 1120   0.081   0.645   7.766 -0.8758  0.1534  0.2307
    9SAPS  H10S 1121   0.111   0.535   7.636  0.8852  0.6343 -0.1886
    9SAPS  C211 1122  -0.071   0.482   7.743  0.0986 -0.5292  0.5688
    9SAPS  H11R 1123  -0.151   0.448   7.675 -0.5642 -2.9503  2.4058
    9SAPS  C212 1124  -0.056   0.411   7.859 -0.9964  0.4642 -0.2172
    9SAPS  H12R 1125  -0.125   0.328   7.874  1.5458 -1.7088  0.2705
    9SAPS  C213 1126   0.060   0.432   7.956 -0.5725 -0.4539 -0.8665
    9SAPS  H13R 1127   0.045   0.527   8.012 -0.1721 -1.4324  0.9972
    9SAPS  H13S 1128   0.158   0.456   7.910  0.1929 -0.3067  0.7516
    9SAPS  C214 1129   0.089   0.313   8.045 -0.4744  0.7627 -0.4270
    9SAPS  H14R 1130   0.153   0.235   8.001 -1.2581 -2.1862  3.1097
    9SAPS  C215 1131   0.051   0.294   8.180  0.7053  0.2724 -0.3407
    9SAPS  H15R 1132   0.090   0.206   8.233  2.7176  0.1364 -1.9130
    9SAPS  C216 1133  -0.029   0.400   8.262  0.2907  0.4735  0.2210
    9SAPS  H16R 1134  -0.046   0.498   8.212 -1.0884  0.3052  0.3189
    9SAPS  H16S 1135   0.042   0.423   8.344  1.5819  1.8281 -1.2091
    9SAPS  C217 1136  -0.161   0.333   8.313  0.0745  0.3237  0.7499
    9SAPS  H17R 1137  -0.204   0.402   8.389 -0.2498  1.3641 -0.3365
    9SAPS  H17S 1138  -0.144   0.229   8.349 -0.3952 -0.6638 -1.6909
    9SAPS  C218 1139  -0.263   0.323   8.194 -0.0161  0.7630  0.4862
    9SAPS  H18R 1140  -0.219   0.244   8.130 -2.7161  0.0849 -0.7049
    9SAPS  H18S 1141  -0.270   0.420   8.139  0.2267  0.0129 -0.9181
    9SAPS  C219 1142  -0.406   0.287   8.234  0.6887 -0.0191 -0.1510
    9SAPS  H19R 1143  -0.399   0.253   8.340 -0.4150  0.2615  0.0236
    9SAPS  H19S 1144  -0.459   0.210   8.175 -0.4744  0.7201 -0.0976
    9SAPS  C220 1145  -0.498   0.413   8.247  0.7025 -0.0182 -0.4911
    9SAPS  H20R 1146  -0.590   0.389   8.305 -1.5788  0.5109 -3.6796
    9SAPS  H20S 1147  -0.528   0.464   8.154 -0.6560 -0.3109 -0.2422
    9SAPS  H20T 1148  -0.438   0.483   8.309  0.1046 -0.2916  0.4274
    9SAPS   C33 1149  -0.433   0.259   6.894  0.0313 -0.5457 -0.3757
    9SAPS   H3X 1150  -0.419   0.223   6.790 -3.5446 -1.3296 -0.7151
    9SAPS   H3Y 1151  -0.529   0.206   6.913  2.3157 -4.0831  2.4424
    9SAPS   C34 1152  -0.333   0.201   6.993  0.5035 -0.9375 -0.1348
    9SAPS   H4X 1153  -0.232   0.243   6.973 -1.9490  5.2382 -1.7561
    9SAPS   H4Y 1154  -0.333   0.093   6.969 -1.3898 -1.0932  0.3832
    9SAPS   C35 1155  -0.367   0.221   7.143  0.5504  0.1671  0.9261
    9SAPS   H5X 1156  -0.467   0.179   7.165 -0.1961  1.8566  0.8545
    9SAPS   H5Y 1157  -0.376   0.330   7.157  2.7747  1.1093 -3.3045
    9SAPS   C36 1158  -0.270   0.141   7.223  0.4868 -0.2405  0.3615
    9SAPS   H6X 1159  -0.169   0.152   7.178 -0.0937  2.0984 -0.5335
    9SAPS   H6Y 1160  -0.299   0.034   7.212  0.5217 -0.4491  2.0672
    9SAPS   C37 1161  -0.268   0.185   7.371  0.3858 -0.1723  0.6044
    9SAPS   H7X 1162  -0.250   0.294   7.362  4.0923 -0.7876 -1.7883
    9SAPS   H7Y 1163  -0.177   0.145   7.422 -0.2754  0.1256  2.0937
    9SAPS   C38 1164  -0.395   0.140   7.449 -0.0613 -0.8040  0.6896
    9SAPS   H8X 1165  -0.396   0.030   7.430  2.0306 -0.6359 -0.7637
    9SAPS   H8Y 1166  -0.482   0.189   7.400  1.1782  0.5686 -0.2487
    9SAPS   C39 1167  -0.395   0.167   7.600 -0.5808 -0.0441 -1.2642
    9SAPS   H9X 1168  -0.498   0.195   7.632 -0.2728  1.0453 -1.1792
    9SAPS   H9Y 1169  -0.329   0.251   7.632 -1.7185  0.2074  0.5372
    9SAPS  C310 1170  -0.354   0.042   7.685  0.1651 -0.3103 -0.1920
    9SAPS  H10X 1171  -0.265  -0.000   7.633  0.0798  1.9937 -2.4065
    9SAPS  H10Y 1172  -0.444  -0.022   7.695 -1.1437  1.5212  0.3458
    9SAPS  C311 1173  -0.310   0.072   7.832  0.8905 -0.0553  0.7548
    9SAPS  H11X 1174  -0.381   0.149   7.869 -1.5199 -2.1550  0.7488
    9SAPS  H11Y 1175  -0.217   0.132   7.840  0.6893  0.2639  0.7167
    9SAPS  C312 1176  -0.305  -0.054   7.925  0.4017 -0.3530  0.0365
    9SAPS  H12X 1177  -0.255  -0.035   8.023 -0.6940  0.5480  0.4319
    9SAPS  H12Y 1178  -0.273  -0.143   7.867 -0.3028 -0.4215 -0.2473
    9SAPS  C313 1179  -0.443  -0.084   7.976  0.2868 -0.5336  0.3343
    9SAPS  H13X 1180  -0.508  -0.117   7.892  1.1470  1.5737 -1.2885
    9SAPS  H13Y 1181  -0.485   0.015   8.004 -3.2193 -2.2939  1.9316
    9SAPS  C314 1182  -0.463  -0.181   8.095 -0.2894  0.6839  0.3404
    9SAPS  H14X 1183  -0.397  -0.270   8.086 -0.6881  0.3933  0.2898
    9SAPS  H14Y 1184  -0.569  -0.212   8.080 -0.3254  1.2119 -0.5858
    9SAPS  C315 1185  -0.452  -0.119   8.240 -0.6989 -0.2497  0.5802
    9SAPS  H15X 1186  -0.477  -0.210   8.300 -1.6411 -1.2668 -1.2580
    9SAPS  H15Y 1187  -0.538  -0.050   8.249 -1.5161 -1.2768  0.8977
    9SAPS  C316 1188  -0.318  -0.061   8.290 -0.2700  0.6991 -0.1485
    9SAPS  H16X 1189  -0.298   0.021   8.217 -0.9845 -0.9905 -2.3373
    9SAPS  H16Y 1190  -0.247  -0.145   8.277 -2.4246 -1.0012 -1.6315
    9SAPS  C317 1191  -0.325  -0.008   8.437  0.0151  1.1177 -0.1984
    9SAPS  H17X 1192  -0.418   0.050   8.457 -1.4684 -1.5240  1.0495
    9SAPS  H17Y 1193  -0.244   0.063   8.466 -0.7021  1.7591  0.2870
    9SAPS  C318 1194  -0.325  -0.114   8.543  0.3327  0.0583 -0.0658
    9SAPS  H18X 1195  -0.256  -0.200   8.526 -0.6016 -0.6861 -0.2156
    9SAPS  H18Y 1196  -0.426  -0.160   8.538  0.7239 -0.7282 -1.2372
    9SAPS  H18Z 1197  -0.311  -0.072   8.645 -2.7992 -0.1570  0.5448
   10SAPS     N 1198   1.974   1.149   6.303 -0.1565  0.0662 -0.2884
   10SAPS   HN1 1199   1.936   1.165   6.398 -1.0814 -0.8837 -0.4815
   10SAPS   HN2 1200   1.961   1.048   6.279 -1.4923  0.3107 -0.7204
   10SAPS   HN3 1201   2.076   1.165   6.302  0.2667 -0.7500  5.0185
   10SAPS   C12 1202   1.881   1.230   6.207 -0.2298 -0.1618 -0.7473
   10SAPS  H12A 1203   1.864   1.331   6.241 -2.0600 -0.7823  0.3247
   10SAPS   C13 1204   1.931   1.236   6.063 -0.1813 -0.0396 -0.3023
   10SAPS  O13A 1205   2.038   1.181   6.032  0.4033  0.4082 -0.1595
   10SAPS  O13B 1206   1.859   1.297   5.976  0.0535 -0.2744 -0.3780
   10SAPS   C11 1207   1.751   1.154   6.200 -0.3936  0.2297 -0.2280
   10SAPS  H11A 1208   1.765   1.048   6.168 -0.8896  0.4356 -1.1563
   10SAPS  H11B 1209   1.681   1.200   6.127 -1.0687 -2.1211 -1.1801
   10SAPS     P 1210   1.554   1.091   6.366 -0.0568  0.4693 -0.7376
   10SAPS   O13 1211   1.504   1.005   6.256 -0.4578 -0.2329 -0.2851
   10SAPS   O14 1212   1.578   1.016   6.493  0.8296  0.3814 -0.1180
   10SAPS   O12 1213   1.691   1.164   6.333 -0.4639  0.9189  0.4712
   10SAPS   O11 1214   1.453   1.210   6.407 -0.1845  0.7953 -0.1818
   10SAPS    C1 1215   1.499   1.339   6.382 -0.6904  1.0641 -0.3293
   10SAPS    HA 1216   1.540   1.353   6.280 -0.5472  0.5967 -0.3358
   10SAPS    HB 1217   1.417   1.415   6.389 -0.5760  1.0746  1.1991
   10SAPS    C2 1218   1.611   1.394   6.479  1.0775  0.2479  0.0299
   10SAPS    HS 1219   1.700   1.327   6.487  0.2297 -0.7263  2.2457
   10SAPS   O21 1220   1.540   1.402   6.610  0.4696  0.6483  0.3901
   10SAPS   C21 1221   1.625   1.420   6.711  0.1220  1.0084  0.3273
   10SAPS   O22 1222   1.744   1.418   6.690  0.0480  0.0972  0.0173
   10SAPS   C22 1223   1.558   1.460   6.839 -0.6289  0.2929 -0.1956
   10SAPS   H2R 1224   1.482   1.537   6.817 -2.6437 -1.5191  0.0760
   10SAPS   H2S 1225   1.502   1.369   6.869 -0.7156 -1.5825 -5.0501
   10SAPS    C3 1226   1.655   1.526   6.420  0.4855 -0.0176  0.1719
   10SAPS    HX 1227   1.678   1.514   6.312  0.2026  1.9747 -0.1376
   10SAPS    HY 1228   1.750   1.561   6.466  1.1156 -0.2472 -0.9282
   10SAPS   O31 1229   1.550   1.624   6.420 -0.0060 -0.4315 -0.3177
   10SAPS   C31 1230   1.552   1.701   6.526 -0.4924 -0.0814 -0.9061
   10SAPS   O32 1231   1.637   1.700   6.613  0.4124 -0.3064 -0.4067
   10SAPS   C32 1232   1.432   1.801   6.521 -0.1843  0.0019 -0.2153
   10SAPS   H2X 1233   1.452   1.871   6.438 -0.0424 -1.0482 -1.0890
   10SAPS   H2Y 1234   1.428   1.860   6.615 -0.2830 -0.0032 -0.2161
   10SAPS   C23 1235   1.664   1.494   6.949  0.1694 -0.8119  0.0414
   10SAPS   H3R 1236   1.730   1.572   6.907 -0.7719 -0.0448 -0.0706
   10SAPS   H3S 1237   1.720   1.401   6.972 -0.8485 -1.3639  0.3574
   10SAPS   C24 1238   1.585   1.517   7.076  0.3759 -0.2122 -0.2831
   10SAPS   H4R 1239   1.653   1.502   7.162 -1.3824  3.2372  1.9327
   10SAPS   H4S 1240   1.493   1.455   7.084 -0.7350  1.5895  3.1270
   10SAPS   C25 1241   1.534   1.657   7.079 -0.1900  0.4909 -0.0021
   10SAPS   H5R 1242   1.485   1.689   6.986  1.6573  2.0757 -0.5110
   10SAPS   C26 1243   1.547   1.747   7.183 -0.1252 -0.2900  0.1283
   10SAPS   H6R 1244   1.473   1.829   7.187 -0.0357 -0.1520 -0.8215
   10SAPS   C27 1245   1.615   1.729   7.317 -0.6433  0.2347  0.2744
   10SAPS   H7R 1246   1.587   1.625   7.345  0.5843 -1.0344 -2.7934
   10SAPS   H7S 1247   1.566   1.793   7.394  1.6028  0.0515  1.9552
   10SAPS   C28 1248   1.765   1.739   7.320  0.1121  0.2364 -0.4247
   10SAPS   H8R 1249   1.828   1.731   7.230  1.5167  0.3337  0.5143
   10SAPS   C29 1250   1.835   1.756   7.435 -0.6302  0.1808 -0.0848
   10SAPS   H9R 1251   1.945   1.758   7.427 -0.5242 -1.2067  0.7295
   10SAPS  C210 1252   1.782   1.760   7.570 -0.0948 -0.3020 -0.4608
   10SAPS  H10R 1253   1.852   1.705   7.637 -1.1053 -1.9269 -0.6702
   10SAPS  H10S 1254   1.686   1.707   7.585 -1.8824  2.2244 -2.2351
   10SAPS  C211 1255   1.775   1.891   7.627 -0.5889 -0.7547  0.1026
   10SAPS  H11R 1256   1.691   1.958   7.602  0.5433  1.6780  2.2466
   10SAPS  C212 1257   1.843   1.937   7.737  0.6851  0.4430 -0.6562
   10SAPS  H12R 1258   1.812   2.038   7.769 -3.1424 -1.3151  1.9115
   10SAPS  C213 1259   1.941   1.864   7.824  0.3819 -0.0493  0.6219
   10SAPS  H13R 1260   2.017   1.813   7.760  1.4014  1.8328  0.2496
   10SAPS  H13S 1261   1.875   1.792   7.878  2.9061 -1.5457  1.9120
   10SAPS  C214 1262   2.007   1.950   7.927 -0.5199  0.4112  0.7541
   10SAPS  H14R 1263   1.992   2.057   7.906  1.6700  0.3464 -1.6716
   10SAPS  C215 1264   2.072   1.901   8.036  0.2173  0.0318 -0.4738
   10SAPS  H15R 1265   2.108   1.971   8.112 -0.3059 -0.0193 -0.1736
   10SAPS  C216 1266   2.094   1.752   8.064 -0.1425  0.3206  0.4521
   10SAPS  H16R 1267   2.203   1.734   8.054 -0.2276 -0.5370  0.9766
   10SAPS  H16S 1268   2.044   1.694   7.984  0.5158 -0.2963  0.4690
   10SAPS  C217 1269   2.041   1.703   8.193 -0.0010  0.6114  0.3652
   10SAPS  H17R 1270   1.930   1.696   8.196  0.0848 -1.2293  0.2732
   10SAPS  H17S 1271   2.074   1.765   8.279  0.5033 -1.4080  1.6941
   10SAPS  C218 1272   2.087   1.565   8.221  0.7340 -0.2370 -0.0845
   10SAPS  H18R 1273   2.198   1.559   8.212  0.9228  0.8179  1.1776
   10SAPS  H18S 1274   2.047   1.490   8.150 -0.3011 -0.3587  0.6135
   10SAPS  C219 1275   2.039   1.517   8.364  0.2331  0.1643 -0.1084
   10SAPS  H19R 1276   1.930   1.520   8.382  0.0925  2.0828 -1.0742
   10SAPS  H19S 1277   2.091   1.575   8.444 -1.1901  0.4218  0.6606
   10SAPS  C220 1278   2.070   1.371   8.398  0.6222  0.0214  0.0315
   10SAPS  H20R 1279   2.170   1.339   8.361  1.2033  0.8314  0.8396
   10SAPS  H20S 1280   2.009   1.296   8.343 -0.5948  0.0412  1.2953
   10SAPS  H20T 1281   2.041   1.351   8.504  0.4196  1.2523  0.2295
   10SAPS   C33 1282   1.288   1.735   6.507 -0.1424 -0.1194  0.0505
   10SAPS   H3X 1283   1.285   1.677   6.412 -2.1665  1.9530 -1.2420
   10SAPS   H3Y 1284   1.223   1.818   6.474  0.0636 -0.9779 -2.7377
   10SAPS   C34 1285   1.234   1.660   6.625  0.5587  0.3409 -0.2308
   10SAPS   H4X 1286   1.306   1.578   6.644 -1.1506 -1.5923 -1.7453
   10SAPS   H4Y 1287   1.135   1.622   6.592 -0.1865  0.6343  1.5461
   10SAPS   C35 1288   1.222   1.755   6.750  0.1884  0.3016  0.0154
   10SAPS   H5X 1289   1.170   1.850   6.725 -2.0924 -0.5995  1.1552
   10SAPS   H5Y 1290   1.324   1.773   6.791 -0.2275  0.7642  0.8685
   10SAPS   C36 1291   1.138   1.679   6.856  0.1594 -0.0456 -0.6204
   10SAPS   H6X 1292   1.197   1.588   6.884 -0.0843  0.5052  1.8745
   10SAPS   H6Y 1293   1.039   1.655   6.814 -0.4571  1.1025  0.1293
   10SAPS   C37 1294   1.126   1.768   6.987  0.0623  0.3616 -0.2001
   10SAPS   H7X 1295   1.066   1.858   6.962  1.0405  0.7660 -1.1579
   10SAPS   H7Y 1296   1.225   1.810   7.011 -1.0764  1.7417  2.4263
   10SAPS   C38 1297   1.077   1.685   7.107  0.0412 -0.4328  0.5654
   10SAPS   H8X 1298   1.122   1.584   7.109 -0.8238 -0.8127  1.5626
   10SAPS   H8Y 1299   0.966   1.677   7.109  0.0402 -2.0479 -1.9887
   10SAPS   C39 1300   1.118   1.753   7.234 -0.0848  0.2859  0.5738
   10SAPS   H9X 1301   1.092   1.861   7.236 -0.6368  0.1818  3.4496
   10SAPS   H9Y 1302   1.229   1.748   7.236 -0.1163 -1.0618  0.4099
   10SAPS  C310 1303   1.080   1.689   7.379 -0.7924 -0.5043  0.2339
   10SAPS  H10X 1304   1.068   1.578   7.374 -0.0988 -0.6819  1.9689
   10SAPS  H10Y 1305   0.979   1.728   7.403 -0.0027  0.8622  1.4900
   10SAPS  C311 1306   1.181   1.721   7.491 -0.2193 -0.1127  0.1740
   10SAPS  H11X 1307   1.284   1.706   7.451 -0.0086  1.9754 -0.1554
   10SAPS  H11Y 1308   1.158   1.651   7.575  3.7125 -0.3118  1.3037
   10SAPS  C312 1309   1.153   1.855   7.567 -0.0209 -0.6883 -0.3787
   10SAPS  H12X 1310   1.067   1.839   7.636 -0.9677  2.7901 -0.5915
   10SAPS  H12Y 1311   1.119   1.939   7.504  2.0808 -0.0246 -0.7016
   10SAPS  C313 1312   1.273   1.901   7.654 -0.0832 -0.0054  0.6411
   10SAPS  H13X 1313   1.344   1.947   7.582  0.7730 -0.3296  1.2669
   10SAPS  H13Y 1314   1.312   1.806   7.697 -0.9243  0.6651  3.0576
   10SAPS  C314 1315   1.229   1.998   7.761  0.1192  0.4086 -0.1443
   10SAPS  H14X 1316   1.178   1.946   7.845  0.6945  0.9510  0.5530
   10SAPS  H14Y 1317   1.155   2.059   7.704 -1.3505 -0.4933  0.7295
   10SAPS  C315 1318   1.352   2.083   7.809 -0.1882 -0.1541  0.3269
   10SAPS  H15X 1319   1.312   2.165   7.871  0.4373  1.4316 -1.2678
   10SAPS  H15Y 1320   1.379   2.135   7.715 -3.4160 -0.4349 -0.9040
   10SAPS  C316 1321   1.451   2.002   7.891 -0.1399  0.6223  0.4923
   10SAPS  H16X 1322   1.489   1.920   7.827  0.3617  0.7410  0.6307
   10SAPS  H16Y 1323   1.410   1.946   7.977  1.2345 -0.3233  0.5688
   10SAPS  C317 1324   1.569   2.089   7.945 -0.0384  0.0265  0.5031
   10SAPS  H17X 1325   1.512   2.169   7.995 -0.4427 -1.4303  2.5196
   10SAPS  H17Y 1326   1.621   2.133   7.857 -3.8771  0.8864 -1.5138
   10SAPS  C318 1327   1.663   2.014   8.038  0.5115  0.2327  0.3077
   10SAPS  H18X 1328   1.614   1.980   8.132  0.7382  0.3062  0.4531
   10SAPS  H18Y 1329   1.757   2.070   8.058 -0.5115  1.1680  3.0584
   10SAPS  H18Z 1330   1.683   1.909   8.010  0.9970  0.4302 -0.0967
   11SAPS     N 1331   3.413   3.217   5.700 -0.0291  0.3905  0.4706
   11SAPS   HN1 1332   3.440   3.202   5.799  3.5686 -0.4915 -0.4928
   11SAPS   HN2 1333   3.498   3.194   5.645  1.1296 -0.5523  2.5465
   11SAPS   HN3 1334   3.384   3.314   5.676 -0.3308  0.0677 -0.5201
   11SAPS   C12 1335   3.300   3.122   5.670  0.1221  0.0199 -0.0225
   11SAPS  H12A 1336   3.206   3.174   5.688  0.0071  0.1252 -0.8590
   11SAPS   C13 1337   3.290   3.074   5.522 -0.6258  0.0331 -0.8897
   11SAPS  O13A 1338   3.347   3.140   5.432 -0.2262  0.1659 -0.2312
   11SAPS  O13B 1339   3.217   2.983   5.492  0.9474  0.1894  0.7532
   11SAPS   C11 1340   3.310   2.994   5.766 -0.1165 -0.5656  1.0145
   11SAPS  H11A 1341   3.226   2.923   5.751 -0.4523 -0.5454  2.6370
   11SAPS  H11B 1342   3.306   3.019   5.874  1.0398  0.0866  0.9237
   11SAPS     P 1343   3.455   2.787   5.819  0.1519 -0.7350  0.0127
   11SAPS   O13 1344   3.354   2.693   5.787  0.4099 -0.4646 -0.0761
   11SAPS   O14 1345   3.593   2.755   5.791 -0.1942 -0.6756  0.7396
   11SAPS   O12 1346   3.426   2.915   5.736 -0.2304 -0.0274  0.2947
   11SAPS   O11 1347   3.440   2.838   5.967  0.1588  0.9664 -0.1616
   11SAPS    C1 1348   3.529   2.955   6.005 -0.7433  0.5119  0.8970
   11SAPS    HA 1349   3.536   3.028   5.922 -3.8339  0.7341  0.7085
   11SAPS    HB 1350   3.480   3.016   6.084 -1.7417 -1.6045  1.9951
   11SAPS    C2 1351   3.673   2.917   6.055 -0.4090 -0.1023 -0.7425
   11SAPS    HS 1352   3.732   2.875   5.971 -0.6352 -1.4843 -0.2438
   11SAPS   O21 1353   3.658   2.810   6.155 -0.5071  0.6219 -1.4138
   11SAPS   C21 1354   3.755   2.724   6.168 -0.0409 -0.8055 -0.1496
   11SAPS   O22 1355   3.865   2.726   6.115  0.0685 -0.0023  0.7055
   11SAPS   C22 1356   3.715   2.621   6.269 -0.3703  0.7182 -0.0723
   11SAPS   H2R 1357   3.628   2.650   6.331  1.1757  0.1065  2.5710
   11SAPS   H2S 1358   3.710   2.518   6.227  2.1166 -0.2015  1.5995
   11SAPS    C3 1359   3.761   3.036   6.117  0.3092  0.3084 -0.6252
   11SAPS    HX 1360   3.745   3.126   6.054  0.5930  0.1320 -0.9501
   11SAPS    HY 1361   3.869   3.014   6.107  1.0752  1.8198  2.8610
   11SAPS   O31 1362   3.737   3.072   6.256  0.3286  0.3775  0.2598
   11SAPS   C31 1363   3.637   3.151   6.274  0.5611  0.9090  0.3857
   11SAPS   O32 1364   3.570   3.212   6.191  0.4690  0.0708 -0.0047
   11SAPS   C32 1365   3.589   3.151   6.416  0.7370 -0.1233 -0.0110
   11SAPS   H2X 1366   3.490   3.201   6.422  1.1897  0.6830  0.9464
   11SAPS   H2Y 1367   3.660   3.217   6.469  1.5484 -1.0976  0.1292
   11SAPS   C23 1368   3.826   2.613   6.369  0.5430  0.1665 -1.2211
   11SAPS   H3R 1369   3.859   2.711   6.410  1.3812  0.1905 -1.9069
   11SAPS   H3S 1370   3.917   2.560   6.334  1.0322  0.1889 -0.0231
   11SAPS   C24 1371   3.793   2.525   6.494 -0.7167 -0.2760  0.5853
   11SAPS   H4R 1372   3.707   2.573   6.545 -0.7783 -0.2376  0.4478
   11SAPS   H4S 1373   3.887   2.537   6.552 -0.1334 -0.7109 -0.2463
   11SAPS   C25 1374   3.745   2.381   6.486 -0.1036 -0.5247  0.1660
   11SAPS   H5R 1375   3.689   2.357   6.395 -1.1336  0.8805  0.3834
   11SAPS   C26 1376   3.788   2.280   6.559  0.1590 -0.8684  0.3307
   11SAPS   H6R 1377   3.734   2.184   6.547 -0.2698 -0.8353  1.7656
   11SAPS   C27 1378   3.897   2.288   6.659  0.3833  0.6509  0.7034
   11SAPS   H7R 1379   3.847   2.311   6.755 -0.9731  2.8482 -0.4470
   11SAPS   H7S 1380   3.967   2.372   6.641 -0.5178  1.2500 -0.2043
   11SAPS   C28 1381   3.974   2.162   6.670  0.3670 -0.1834  0.1650
   11SAPS   H8R 1382   3.981   2.101   6.578 -2.7052 -1.9674  0.9651
   11SAPS   C29 1383   4.049   2.124   6.781 -1.3865 -0.5431  0.3025
   11SAPS   H9R 1384   4.094   2.024   6.783  0.0217  0.0659  0.7289
   11SAPS  C210 1385   4.056   2.203   6.904  0.2690  0.1566  0.0292
   11SAPS  H10R 1386   4.025   2.308   6.882 -2.1629 -0.1699  1.5375
   11SAPS  H10S 1387   4.162   2.208   6.936  0.3388 -0.0415 -0.1764
   11SAPS  C211 1388   3.990   2.132   7.017  0.3584 -0.1421  0.5141
   11SAPS  H11R 1389   4.046   2.046   7.057 -0.8342 -1.2847 -0.1907
   11SAPS  C212 1390   3.885   2.169   7.088  0.7898 -1.0257 -0.3565
   11SAPS  H12R 1391   3.858   2.120   7.183  0.6391 -0.4810 -0.1153
   11SAPS  C213 1392   3.796   2.287   7.058 -0.3186 -0.0681 -0.0394
   11SAPS  H13R 1393   3.695   2.253   7.029 -0.2977 -1.1875  1.1012
   11SAPS  H13S 1394   3.834   2.353   6.977 -2.6808 -0.5581 -1.6489
   11SAPS  C214 1395   3.782   2.355   7.194  0.7220 -0.4610  0.0983
   11SAPS  H14R 1396   3.875   2.389   7.241  0.6209 -0.4483  0.2906
   11SAPS  C215 1397   3.662   2.379   7.258 -0.0237 -0.2723  0.4651
   11SAPS  H15R 1398   3.665   2.423   7.358  2.8321  0.6516  0.0696
   11SAPS  C216 1399   3.524   2.343   7.217 -0.6356 -0.5660 -0.2527
   11SAPS  H16R 1400   3.461   2.312   7.303  0.0959 -0.6482  0.2541
   11SAPS  H16S 1401   3.525   2.262   7.141  1.2469  0.8539 -1.8737
   11SAPS  C217 1402   3.460   2.468   7.155 -0.0594  0.7063  0.2725
   11SAPS  H17R 1403   3.457   2.556   7.223  0.1598  0.4825  0.5733
   11SAPS  H17S 1404   3.354   2.449   7.131 -0.4153  0.9478  1.5966
   11SAPS  C218 1405   3.522   2.505   7.021 -0.2619  0.1074  0.2511
   11SAPS  H18R 1406   3.524   2.421   6.948  1.0263  0.3337  0.0046
   11SAPS  H18S 1407   3.628   2.530   7.042  0.2406 -0.6284 -1.2733
   11SAPS  C219 1408   3.462   2.630   6.963 -0.0221  0.3015 -0.1613
   11SAPS  H19R 1409   3.483   2.723   7.020 -2.7217  1.4729 -0.9237
   11SAPS  H19S 1410   3.352   2.617   6.962  0.0583 -0.3921  0.1133
   11SAPS  C220 1411   3.502   2.657   6.814  0.3523 -0.4795 -0.0256
   11SAPS  H20R 1412   3.469   2.576   6.745  0.8279 -0.0019 -0.8339
   11SAPS  H20S 1413   3.610   2.669   6.791 -0.0784 -0.2174 -2.0904
   11SAPS  H20T 1414   3.453   2.752   6.784  0.8355  0.3120  1.5876
   11SAPS   C33 1415   3.579   3.012   6.481 -0.0702 -0.0407  0.2636
   11SAPS   H3X 1416   3.681   2.972   6.498 -1.6412 -3.7361  2.1050
   11SAPS   H3Y 1417   3.520   2.945   6.415 -0.7661  0.5800  0.2368
   11SAPS   C34 1418   3.522   3.014   6.626  0.0110 -0.7388  0.1994
   11SAPS   H4X 1419   3.542   2.910   6.660 -1.8825 -0.6772  1.6553
   11SAPS   H4Y 1420   3.414   3.037   6.632  0.1087 -0.3198  0.3265
   11SAPS   C35 1421   3.599   3.109   6.716  0.1674  0.2988 -0.0447
   11SAPS   H5X 1422   3.620   3.207   6.669 -3.8653  1.1250 -0.4138
   11SAPS   H5Y 1423   3.695   3.053   6.724 -0.3417 -0.4540  0.9698
   11SAPS   C36 1424   3.547   3.120   6.861  0.1763 -0.0728  0.3525
   11SAPS   H6X 1425   3.548   3.022   6.912  0.6389 -0.9274 -1.2209
   11SAPS   H6Y 1426   3.451   3.177   6.851  0.9883  0.9438 -4.1687
   11SAPS   C37 1427   3.634   3.213   6.941 -0.1990  0.7302  0.2892
   11SAPS   H7X 1428   3.650   3.310   6.890 -1.1695  1.0365  0.5513
   11SAPS   H7Y 1429   3.739   3.178   6.948  0.4737  2.8262  1.5868
   11SAPS   C38 1430   3.593   3.233   7.088  0.2037  0.3884  0.0164
   11SAPS   H8X 1431   3.577   3.139   7.144 -1.9485  0.7690  0.1299
   11SAPS   H8Y 1432   3.500   3.293   7.088  1.2786  2.1480 -1.1600
   11SAPS   C39 1433   3.705   3.298   7.172 -0.3566  0.6620  0.1579
   11SAPS   H9X 1434   3.718   3.402   7.134 -0.5230  0.6115 -0.0381
   11SAPS   H9Y 1435   3.801   3.245   7.156 -1.2708 -0.7721 -0.7628
   11SAPS  C310 1436   3.676   3.295   7.318 -0.2426 -0.3813 -0.2663
   11SAPS  H10X 1437   3.597   3.218   7.333 -0.9027  0.3879  0.2701
   11SAPS  H10Y 1438   3.628   3.392   7.342  0.0092 -0.4893  0.7211
   11SAPS  C311 1439   3.789   3.273   7.415 -0.1722 -0.6067 -0.1157
   11SAPS  H11X 1440   3.859   3.359   7.400  0.3734 -0.9048  0.6269
   11SAPS  H11Y 1441   3.848   3.182   7.390  0.9989  0.7193 -2.5649
   11SAPS  C312 1442   3.752   3.277   7.564  0.1575  0.2409 -0.5529
   11SAPS  H12X 1443   3.693   3.186   7.588 -1.7491  2.0272  2.1655
   11SAPS  H12Y 1444   3.683   3.359   7.593  1.3044  1.4779 -1.1880
   11SAPS  C313 1445   3.870   3.279   7.662  0.2950  0.0387  0.1159
   11SAPS  H13X 1446   3.929   3.188   7.638  1.9429  0.8105  1.1412
   11SAPS  H13Y 1447   3.829   3.265   7.764 -0.0129 -0.2020 -0.0375
   11SAPS  C314 1448   3.945   3.398   7.648 -0.0786 -0.3154 -0.0611
   11SAPS  H14X 1449   3.891   3.488   7.684 -0.4679 -1.7703  3.3771
   11SAPS  H14Y 1450   3.981   3.423   7.546 -1.4330  0.0735 -0.4597
   11SAPS  C315 1451   4.077   3.386   7.721  0.0518  0.6448 -0.2629
   11SAPS  H15X 1452   4.159   3.459   7.705  0.8076  0.4773  2.3924
   11SAPS  H15Y 1453   4.114   3.292   7.676  0.4214  0.9050 -0.5053
   11SAPS  C316 1454   4.063   3.383   7.869 -0.5782  0.5056  0.0437
   11SAPS  H16X 1455   3.989   3.310   7.908  1.0320  0.1347  2.6151
   11SAPS  H16Y 1456   4.022   3.481   7.900 -1.1086  0.5249 -0.7026
   11SAPS  C317 1457   4.196   3.381   7.950  0.7468 -0.2333 -0.1541
   11SAPS  H17X 1458   4.277   3.336   7.889 -0.0011  1.8310 -2.8538
   11SAPS  H17Y 1459   4.181   3.328   8.047 -1.6336  1.1980  0.3476
   11SAPS  C318 1460   4.243   3.525   7.994  0.3487  0.4426  0.1988
   11SAPS  H18X 1461   4.167   3.584   8.050  0.1210 -0.4302  0.8265
   11SAPS  H18Y 1462   4.254   3.587   7.902  1.3243 -0.2054 -0.1317
   11SAPS  H18Z 1463   4.336   3.526   8.055  1.0145 -0.8012 -0.7444
   12SAPS     N 1464   2.716   6.066   5.683 -0.2496  0.4492  0.8074
   12SAPS   HN1 1465   2.646   5.989   5.688 -1.5856  1.7270  3.4458
   12SAPS   HN2 1466   2.732   6.094   5.584  0.5607 -1.7897  0.2267
   12SAPS   HN3 1467   2.810   6.041   5.721 -0.8064  0.2781  2.1311
   12SAPS   C12 1468   2.671   6.182   5.751 -0.1305  0.0973  0.3636
   12SAPS  H12A 1469   2.741   6.261   5.731 -1.4067  0.7246 -1.8996
   12SAPS   C13 1470   2.532   6.239   5.706 -0.2081 -0.3439  0.1270
   12SAPS  O13A 1471   2.454   6.166   5.644 -0.1582  0.0720 -0.2682
   12SAPS  O13B 1472   2.486   6.339   5.776 -0.0537  0.7066 -0.1252
   12SAPS   C11 1473   2.655   6.151   5.903 -0.4207  0.0304 -0.5963
   12SAPS  H11A 1474   2.588   6.062   5.909  2.3229 -2.1500 -0.0587
   12SAPS  H11B 1475   2.604   6.236   5.952  0.2277  1.6585 -2.6215
   12SAPS     P 1476   2.810   6.145   6.109  0.3676  0.1192  0.2393
   12SAPS   O13 1477   2.714   6.060   6.180 -0.2018 -0.5532 -0.2092
   12SAPS   O14 1478   2.951   6.113   6.144  0.5828 -0.0180  0.0666
   12SAPS   O12 1479   2.785   6.115   5.958  0.1175  0.3896  0.3924
   12SAPS   O11 1480   2.775   6.295   6.133 -0.4453  0.3157  1.2127
   12SAPS    C1 1481   2.673   6.350   6.217 -0.3944 -0.4982  0.8753
   12SAPS    HA 1482   2.656   6.448   6.166  0.4354 -1.6790 -1.8507
   12SAPS    HB 1483   2.578   6.292   6.210 -0.3804 -1.0432  3.9412
   12SAPS    C2 1484   2.704   6.362   6.362  0.1622 -0.7260 -0.0624
   12SAPS    HS 1485   2.812   6.384   6.374 -0.0682 -0.2149  1.2147
   12SAPS   O21 1486   2.674   6.236   6.418 -0.1359  0.2121  0.0041
   12SAPS   C21 1487   2.736   6.214   6.534  0.1048  0.0913 -0.1556
   12SAPS   O22 1488   2.836   6.272   6.579  0.3009 -0.1559  0.0965
   12SAPS   C22 1489   2.662   6.113   6.620  0.2020  0.6446  0.4669
   12SAPS   H2R 1490   2.650   6.019   6.561 -1.2210  0.3106  1.2434
   12SAPS   H2S 1491   2.733   6.099   6.704  0.8077 -0.5927 -0.2234
   12SAPS    C3 1492   2.613   6.470   6.428  0.7439 -0.6536  1.0228
   12SAPS    HX 1493   2.520   6.416   6.402  0.9718 -1.3640  1.6333
   12SAPS    HY 1494   2.621   6.569   6.379  0.3191  0.0149  2.2645
   12SAPS   O31 1495   2.635   6.476   6.568  0.0292 -0.5049 -0.0340
   12SAPS   C31 1496   2.533   6.549   6.631  0.6927  0.3895 -0.5983
   12SAPS   O32 1497   2.435   6.595   6.575 -0.2523 -0.3113 -0.3763
   12SAPS   C32 1498   2.563   6.568   6.781  0.7901  0.1741  0.1578
   12SAPS   H2X 1499   2.654   6.627   6.805 -0.3103  2.3096 -0.7251
   12SAPS   H2Y 1500   2.576   6.464   6.819  0.7047  0.7753  1.9423
   12SAPS   C23 1501   2.523   6.171   6.662 -0.0460 -0.3090 -0.0923
   12SAPS   H3R 1502   2.473   6.197   6.566  0.9483  2.0903 -0.0338
   12SAPS   H3S 1503   2.545   6.259   6.726  0.6820 -0.5081 -0.0518
   12SAPS   C24 1504   2.439   6.076   6.740  0.8073  0.2550 -0.0067
   12SAPS   H4R 1505   2.495   6.031   6.824  0.5197 -0.4705 -0.1940
   12SAPS   H4S 1506   2.417   5.993   6.670  1.1702 -1.4430  1.8158
   12SAPS   C25 1507   2.312   6.150   6.788  0.7795  0.6082  0.0175
   12SAPS   H5R 1508   2.250   6.181   6.703  0.0021 -1.7963 -0.3663
   12SAPS   C26 1509   2.254   6.140   6.910  0.2101 -0.0096  0.0816
   12SAPS   H6R 1510   2.153   6.181   6.923  0.3375 -0.4879  3.3651
   12SAPS   C27 1511   2.312   6.071   7.033 -0.2196  0.4533 -0.3770
   12SAPS   H7R 1512   2.292   6.134   7.122 -1.9014 -1.1714  0.4644
   12SAPS   H7S 1513   2.423   6.083   7.027 -0.2543  0.4145 -1.2127
   12SAPS   C28 1514   2.275   5.925   7.061 -0.1365 -0.1182  0.3786
   12SAPS   H8R 1515   2.298   5.854   6.980  0.6572  0.0321  0.4661
   12SAPS   C29 1516   2.225   5.871   7.172 -0.4371  0.1184 -0.4069
   12SAPS   H9R 1517   2.212   5.762   7.169 -0.4870 -0.0156  2.0840
   12SAPS  C210 1518   2.177   5.938   7.295  0.1853  0.2678  0.1565
   12SAPS  H10R 1519   2.173   6.049   7.286 -0.1604  0.3477  1.1539
   12SAPS  H10S 1520   2.252   5.913   7.373 -0.2588 -0.1007  0.4708
   12SAPS  C211 1521   2.045   5.880   7.349 -0.2164 -0.7258 -0.0707
   12SAPS  H11R 1522   1.999   5.811   7.277 -2.7516 -0.3107  1.0342
   12SAPS  C212 1523   1.992   5.894   7.471  0.0389  0.4576  0.2631
   12SAPS  H12R 1524   1.893   5.855   7.499 -0.5184  0.6245 -1.3339
   12SAPS  C213 1525   2.053   5.974   7.582 -0.4492  0.3632 -0.4186
   12SAPS  H13R 1526   2.163   5.985   7.577 -0.5445  0.9722 -1.3791
   12SAPS  H13S 1527   2.048   5.918   7.678  1.1684 -1.4724 -1.3392
   12SAPS  C214 1528   1.983   6.108   7.590 -0.2756  0.2504  0.2481
   12SAPS  H14R 1529   1.938   6.147   7.497 -0.8979  1.4264  1.0184
   12SAPS  C215 1530   1.972   6.186   7.702 -0.3422  0.0321  0.6645
   12SAPS  H15R 1531   1.909   6.275   7.691 -0.4151  0.1518  1.8890
   12SAPS  C216 1532   2.031   6.167   7.836  0.1824  0.0251 -0.3603
   12SAPS  H16R 1533   1.972   6.098   7.900  1.3074 -0.6556 -0.0309
   12SAPS  H16S 1534   2.014   6.266   7.883  3.1201  0.9936 -1.1276
   12SAPS  C217 1535   2.180   6.137   7.839  0.3387 -0.2560 -0.4113
   12SAPS  H17R 1536   2.227   6.182   7.749  1.8666 -1.0048 -0.0246
   12SAPS  H17S 1537   2.183   6.026   7.845 -1.6098 -0.2659  1.8357
   12SAPS  C218 1538   2.247   6.199   7.964 -0.6547  0.0185  0.5749
   12SAPS  H18R 1539   2.214   6.147   8.057 -1.5154 -2.1954 -0.8888
   12SAPS  H18S 1540   2.217   6.306   7.971  1.4934  0.7041  0.0645
   12SAPS  C219 1541   2.402   6.177   7.952  0.6260  0.6782  0.4157
   12SAPS  H19R 1542   2.458   6.244   8.020  2.1914 -0.4624  0.2947
   12SAPS  H19S 1543   2.439   6.188   7.848 -0.3898 -0.1977 -0.0636
   12SAPS  C220 1544   2.441   6.034   7.997 -0.7231 -0.0970  0.0304
   12SAPS  H20R 1545   2.552   6.033   8.002 -0.4194  0.4950 -3.7187
   12SAPS  H20S 1546   2.414   5.953   7.926 -2.4384 -0.3431  0.9110
   12SAPS  H20T 1547   2.402   5.998   8.095 -0.1309 -1.2061 -0.1214
   12SAPS   C33 1548   2.439   6.631   6.860  0.3617 -0.0096  1.1394
   12SAPS   H3X 1549   2.345   6.582   6.828  0.0440  2.4158 -2.2155
   12SAPS   H3Y 1550   2.446   6.741   6.841  1.3572 -0.4307 -1.2083
   12SAPS   C34 1551   2.449   6.610   7.010 -0.0793  0.4269 -0.1194
   12SAPS   H4X 1552   2.557   6.617   7.037 -0.5148  3.0417  1.2317
   12SAPS   H4Y 1553   2.421   6.504   7.027  1.0252  0.2625  0.7642
   12SAPS   C35 1554   2.366   6.703   7.106  0.5425 -0.3865 -0.0377
   12SAPS   H5X 1555   2.257   6.710   7.085 -0.1619 -0.3998  3.0578
   12SAPS   H5Y 1556   2.422   6.799   7.102  1.3500 -0.8028  0.7818
   12SAPS   C36 1557   2.375   6.645   7.246  0.7865 -0.3563 -0.7302
   12SAPS   H6X 1558   2.478   6.639   7.286  0.5020  0.0140  0.0784
   12SAPS   H6Y 1559   2.326   6.545   7.246 -1.5118  0.7190 -1.0190
   12SAPS   C37 1560   2.286   6.737   7.345 -0.2723  0.4173 -0.3567
   12SAPS   H7X 1561   2.181   6.709   7.323 -0.5087 -1.2222  2.4083
   12SAPS   H7Y 1562   2.306   6.846   7.333  1.1198  0.3885  1.2938
   12SAPS   C38 1563   2.324   6.696   7.484 -0.6612  0.4053  0.0897
   12SAPS   H8X 1564   2.430   6.721   7.502  0.0330 -2.8334  0.9747
   12SAPS   H8Y 1565   2.317   6.586   7.493 -1.7260  0.3375 -1.1981
   12SAPS   C39 1566   2.232   6.769   7.585 -0.8288 -0.0358  0.5158
   12SAPS   H9X 1567   2.129   6.772   7.543 -0.5600 -2.8574 -0.5518
   12SAPS   H9Y 1568   2.268   6.874   7.591  0.3270 -0.1623 -2.5721
   12SAPS  C310 1569   2.239   6.689   7.723  1.3706 -0.1506 -0.5889
   12SAPS  H10X 1570   2.242   6.579   7.711  2.4426 -0.1916 -0.0260
   12SAPS  H10Y 1571   2.154   6.725   7.785  1.8790  0.7104 -0.3781
   12SAPS  C311 1572   2.352   6.735   7.815 -0.5229  0.1343 -0.0046
   12SAPS  H11X 1573   2.379   6.841   7.831  1.9180 -0.6114  1.3910
   12SAPS  H11Y 1574   2.445   6.687   7.778 -0.6765  0.0014 -0.2260
   12SAPS  C312 1575   2.320   6.668   7.947  0.1809 -0.4656 -0.5593
   12SAPS  H12X 1576   2.289   6.563   7.930 -2.2926  0.3205 -1.4060
   12SAPS  H12Y 1577   2.242   6.719   8.007 -0.2492 -1.9563  0.2053
   12SAPS  C313 1578   2.453   6.695   8.020  0.1066  0.4344 -0.0072
   12SAPS  H13X 1579   2.495   6.798   8.014  0.6538  0.2575  0.7217
   12SAPS  H13Y 1580   2.530   6.637   7.966  0.4284  1.1548 -0.3432
   12SAPS  C314 1581   2.450   6.654   8.168 -0.0030  1.1324 -0.0584
   12SAPS  H14X 1582   2.452   6.543   8.170 -0.7971  1.0502 -1.8934
   12SAPS  H14Y 1583   2.359   6.695   8.216  1.4911  1.3104  2.7946
   12SAPS  C315 1584   2.564   6.722   8.240  0.2200 -0.0351  0.5762
   12SAPS  H15X 1585   2.516   6.804   8.297  1.2640 -0.2026  1.7322
   12SAPS  H15Y 1586   2.647   6.755   8.175 -1.0441  2.1397 -0.0305
   12SAPS  C316 1587   2.630   6.640   8.352 -0.3026 -0.3165  0.2375
   12SAPS  H16X 1588   2.717   6.693   8.396 -1.0763 -0.0781  1.5275
   12SAPS  H16Y 1589   2.669   6.544   8.311  1.4774 -0.1149  1.3293
   12SAPS  C317 1590   2.541   6.614   8.474  0.3270  0.1102  0.3078
   12SAPS  H17X 1591   2.468   6.536   8.443  1.5691 -0.7504 -0.5503
   12SAPS  H17Y 1592   2.496   6.707   8.515  2.9340  1.2998  0.7097
   12SAPS  C318 1593   2.612   6.560   8.599 -1.1622  0.1797 -0.8921
   12SAPS  H18X 1594   2.667   6.467   8.572 -0.4236 -0.3128  1.9670
   12SAPS  H18Y 1595   2.547   6.536   8.686  0.5843  0.5712  0.5876
   12SAPS  H18Z 1596   2.692   6.634   8.623  0.3673 -1.0618 -1.9049
   13SAPS     N 1597   3.899   1.118   6.002 -0.8356 -0.2702  0.0608
   13SAPS   HN1 1598   3.849   1.029   5.982 -2.0166  0.5492 -0.7189
   13SAPS   HN2 1599   3.934   1.124   6.100  1.0536  0.4763 -0.6154
   13SAPS   HN3 1600   3.837   1.198   5.978  1.9303  3.2235  3.3258
   13SAPS   C12 1601   4.020   1.116   5.918  0.3958  0.2710 -0.0339
   13SAPS  H12A 1602   4.069   1.024   5.947  1.8835  0.9978 -0.1356
   13SAPS   C13 1603   3.995   1.108   5.769 -0.1665  0.1737 -0.1116
   13SAPS  O13A 1604   3.877   1.110   5.722  0.0459 -0.0430  0.3318
   13SAPS  O13B 1605   4.095   1.091   5.696 -0.1945 -0.6681  0.1843
   13SAPS   C11 1606   4.113   1.233   5.957 -0.1166 -0.6556  0.5755
   13SAPS  H11A 1607   4.055   1.328   5.955  1.7165  0.5074 -0.1075
   13SAPS  H11B 1608   4.194   1.244   5.881 -0.1225 -3.3505  0.0840
   13SAPS     P 1609   4.296   1.226   6.151 -0.3528  0.1306 -0.4455
   13SAPS   O13 1610   4.334   1.088   6.181 -0.2883 -0.3719  0.2540
   13SAPS   O14 1611   4.378   1.305   6.059  0.1697 -0.4941 -0.1112
   13SAPS   O12 1612   4.152   1.220   6.095 -0.1674 -0.4787 -0.4482
   13SAPS   O11 1613   4.260   1.311   6.277 -0.0679  0.7564  0.3282
   13SAPS    C1 1614   4.347   1.410   6.333 -0.1413  0.3655  0.0703
   13SAPS    HA 1615   4.446   1.366   6.357  0.7816  1.5883 -1.2963
   13SAPS    HB 1616   4.356   1.495   6.262 -0.6996  0.4367  0.0734
   13SAPS    C2 1617   4.305   1.470   6.470 -0.5444 -0.3972 -0.2426
   13SAPS    HS 1618   4.300   1.387   6.544  1.5994 -1.5040 -1.2466
   13SAPS   O21 1619   4.179   1.537   6.448  0.1266  0.2721  0.2534
   13SAPS   C21 1620   4.112   1.559   6.553  0.2741 -0.3359  0.8594
   13SAPS   O22 1621   4.138   1.507   6.662  0.1234  0.3511  0.4957
   13SAPS   C22 1622   4.000   1.667   6.535 -0.3977  0.7996  0.6457
   13SAPS   H2R 1623   4.039   1.770   6.524 -0.2698  0.5776 -1.1140
   13SAPS   H2S 1624   3.946   1.631   6.445  1.4139 -2.4544  0.7077
   13SAPS    C3 1625   4.407   1.574   6.517  0.3103  0.5294  0.2637
   13SAPS    HX 1626   4.384   1.673   6.472  0.5407  0.5109  0.1058
   13SAPS    HY 1627   4.502   1.537   6.474 -0.5967 -0.0110 -1.3611
   13SAPS   O31 1628   4.412   1.596   6.665 -0.0685  0.3495  0.0511
   13SAPS   C31 1629   4.484   1.493   6.721 -0.5792 -0.2306  0.3108
   13SAPS   O32 1630   4.519   1.395   6.653 -0.2271 -0.2183 -0.4105
   13SAPS   C32 1631   4.487   1.501   6.875 -0.7178  0.7531 -0.2783
   13SAPS   H2X 1632   4.501   1.609   6.899  4.6667  0.1691  0.3122
   13SAPS   H2Y 1633   4.576   1.452   6.920 -1.5190 -0.0354  0.4788
   13SAPS   C23 1634   3.903   1.680   6.655  0.4691 -0.2525  0.5920
   13SAPS   H3R 1635   3.865   1.582   6.691 -4.0649  0.8736 -0.5248
   13SAPS   H3S 1636   3.819   1.742   6.619  0.3338 -0.7575  0.0269
   13SAPS   C24 1637   3.969   1.763   6.765  0.2620 -0.6513 -0.1717
   13SAPS   H4R 1638   3.990   1.866   6.729 -0.9978  0.1383  1.2433
   13SAPS   H4S 1639   4.067   1.712   6.781  0.4557  0.0865  1.1635
   13SAPS   C25 1640   3.878   1.764   6.892 -0.4455 -0.1136  0.7619
   13SAPS   H5R 1641   3.773   1.794   6.878 -0.2943 -0.0744 -0.3926
   13SAPS   C26 1642   3.909   1.719   7.012 -1.0012 -0.0701 -0.5328
   13SAPS   H6R 1643   3.832   1.719   7.090 -0.7054  2.0262 -0.1941
   13SAPS   C27 1644   4.040   1.657   7.051  0.0588 -0.5671  0.8409
   13SAPS   H7R 1645   4.096   1.613   6.966  2.9361  0.8260  1.8997
   13SAPS   H7S 1646   4.025   1.561   7.104  1.9350 -2.8429 -2.4265
   13SAPS   C28 1647   4.130   1.765   7.118  0.3658 -0.1767  0.4441
   13SAPS   H8R 1648   4.195   1.825   7.053  1.6627 -0.8454  1.0853
   13SAPS   C29 1649   4.123   1.807   7.251 -0.2899 -0.0635  0.3478
   13SAPS   H9R 1650   4.194   1.885   7.281 -1.9973  0.7370  2.5141
   13SAPS  C210 1651   4.023   1.760   7.359 -0.0387 -0.2545 -0.0501
   13SAPS  H10R 1652   4.061   1.664   7.401  0.5176  0.8743  2.1614
   13SAPS  H10S 1653   3.920   1.738   7.324 -0.8292  0.8818  1.4498
   13SAPS  C211 1654   4.018   1.855   7.473  0.1993 -0.4366 -0.4750
   13SAPS  H11R 1655   4.112   1.907   7.493  0.5469 -0.7706 -1.2114
   13SAPS  C212 1656   3.917   1.882   7.560  0.3484 -0.0394 -0.2128
   13SAPS  H12R 1657   3.940   1.953   7.641 -2.1505  0.8394 -0.2078
   13SAPS  C213 1658   3.779   1.824   7.561  0.1909 -0.0080 -0.5109
   13SAPS  H13R 1659   3.772   1.741   7.488  0.3636 -0.5431  0.0730
   13SAPS  H13S 1660   3.707   1.903   7.531  1.7839  1.2773 -1.0948
   13SAPS  C214 1661   3.749   1.756   7.695  0.5062 -0.3356  0.4356
   13SAPS  H14R 1662   3.747   1.646   7.693 -1.3833 -0.3242 -0.9722
   13SAPS  C215 1663   3.723   1.815   7.814 -0.2476  0.4416 -0.1631
   13SAPS  H15R 1664   3.702   1.746   7.897 -1.0684  1.3259  0.3892
   13SAPS  C216 1665   3.716   1.957   7.848 -0.0287 -0.7383  0.3063
   13SAPS  H16R 1666   3.634   1.977   7.920 -0.8617  0.9423 -1.0453
   13SAPS  H16S 1667   3.700   2.021   7.759  0.8851  0.7376  1.1597
   13SAPS  C217 1668   3.842   2.002   7.924 -0.3056  0.1615 -0.3919
   13SAPS  H17R 1669   3.815   2.105   7.954  1.2062  0.3477  0.4053
   13SAPS  H17S 1670   3.926   2.004   7.851  0.2592 -0.9778  0.1961
   13SAPS  C218 1671   3.891   1.933   8.055  0.7671 -0.1410  0.1098
   13SAPS  H18R 1672   3.940   1.837   8.027  1.8539  0.4001  0.1351
   13SAPS  H18S 1673   3.794   1.908   8.103  0.8922 -1.3795 -0.2415
   13SAPS  C219 1674   3.982   2.017   8.140 -0.0912  0.0244  0.0387
   13SAPS  H19R 1675   3.928   2.110   8.166  0.2219 -0.2384  1.7345
   13SAPS  H19S 1676   4.069   2.049   8.078 -2.8268  1.3131 -3.4604
   13SAPS  C220 1677   4.036   1.942   8.265 -0.4579 -0.2905  0.0956
   13SAPS  H20R 1678   4.106   1.861   8.238 -1.0261 -0.7560  0.0002
   13SAPS  H20S 1679   3.954   1.904   8.329 -0.0236 -1.4850 -0.0298
   13SAPS  H20T 1680   4.101   2.014   8.319 -0.9047 -0.0760  0.3509
   13SAPS   C33 1681   4.353   1.448   6.936 -0.1785  0.2780 -0.3267
   13SAPS   H3X 1682   4.322   1.353   6.887 -2.6968  1.8573 -2.0084
   13SAPS   H3Y 1683   4.269   1.519   6.927 -1.6028 -0.9638  2.0505
   13SAPS   C34 1684   4.365   1.401   7.084 -0.2846  0.2739  0.2855
   13SAPS   H4X 1685   4.451   1.330   7.089 -0.8985 -0.7005 -1.8428
   13SAPS   H4Y 1686   4.277   1.357   7.136  0.3397  0.0803  1.2016
   13SAPS   C35 1687   4.412   1.528   7.161  0.1920  0.8117 -0.0219
   13SAPS   H5X 1688   4.351   1.613   7.123 -2.0749  0.6043  2.8499
   13SAPS   H5Y 1689   4.517   1.556   7.134 -0.7231  3.2243 -1.4149
   13SAPS   C36 1690   4.416   1.527   7.317 -0.0793  0.7589 -0.1327
   13SAPS   H6X 1691   4.484   1.459   7.374  0.5966  2.8170  1.6673
   13SAPS   H6Y 1692   4.307   1.519   7.338 -0.2980  0.0119 -1.4656
   13SAPS   C37 1693   4.464   1.669   7.380  0.7151  0.6993 -0.0194
   13SAPS   H7X 1694   4.405   1.753   7.337  2.1178  1.6917 -0.0554
   13SAPS   H7Y 1695   4.572   1.678   7.358  1.2926  1.8523  2.8430
   13SAPS   C38 1696   4.438   1.689   7.531  0.1547  0.0317  0.3141
   13SAPS   H8X 1697   4.497   1.621   7.596  1.5833  1.5145  0.6425
   13SAPS   H8Y 1698   4.331   1.688   7.560 -0.6394 -2.4033 -2.2224
   13SAPS   C39 1699   4.506   1.823   7.578 -0.1292  0.0211 -0.0505
   13SAPS   H9X 1700   4.448   1.906   7.532  0.4650  0.2208 -0.4546
   13SAPS   H9Y 1701   4.615   1.831   7.560 -0.0893 -1.1776 -0.4292
   13SAPS  C310 1702   4.485   1.845   7.727  1.2879 -0.4048  0.6881
   13SAPS  H10X 1703   4.535   1.762   7.781  1.1535 -1.0594 -0.1875
   13SAPS  H10Y 1704   4.378   1.832   7.753  0.6464 -0.3696 -1.7100
   13SAPS  C311 1705   4.526   1.982   7.775  0.1170 -0.3885  0.2305
   13SAPS  H11X 1706   4.478   2.062   7.714 -0.1352 -1.6935 -1.3515
   13SAPS  H11Y 1707   4.634   2.004   7.759 -0.4835  1.3114 -2.0694
   13SAPS  C312 1708   4.500   2.010   7.925  1.4400 -0.1796  0.5749
   13SAPS  H12X 1709   4.393   2.008   7.954  1.3017  0.4738  0.1440
   13SAPS  H12Y 1710   4.534   2.116   7.936  2.0695 -0.4448  1.2999
   13SAPS  C313 1711   4.579   1.920   8.020  0.2067  0.0261 -0.1951
   13SAPS  H13X 1712   4.683   1.914   7.981 -0.1527 -3.0277 -0.9712
   13SAPS  H13Y 1713   4.550   1.814   8.001 -0.8634 -0.5955  4.0149
   13SAPS  C314 1714   4.569   1.964   8.170  0.2264  0.1969 -0.4462
   13SAPS  H14X 1715   4.461   1.947   8.191 -0.0067  0.4552 -1.3564
   13SAPS  H14Y 1716   4.598   2.067   8.198 -0.8849  0.3345  0.2318
   13SAPS  C315 1717   4.663   1.868   8.248  0.2268 -0.2098 -0.2372
   13SAPS  H15X 1718   4.767   1.876   8.210  1.4555  1.3466  3.0593
   13SAPS  H15Y 1719   4.639   1.761   8.227  3.6394 -0.7508 -2.0017
   13SAPS  C316 1720   4.661   1.898   8.398 -0.2273  0.0094  0.0262
   13SAPS  H16X 1721   4.554   1.903   8.427 -0.1076  0.9757  0.3498
   13SAPS  H16Y 1722   4.713   1.994   8.417 -2.1783  1.0624  0.2814
   13SAPS  C317 1723   4.743   1.805   8.493 -0.3836 -0.4733 -0.1853
   13SAPS  H17X 1724   4.703   1.841   8.590 -0.6808  2.3423 -1.2465
   13SAPS  H17Y 1725   4.852   1.825   8.486 -0.1046 -1.9295 -0.1981
   13SAPS  C318 1726   4.731   1.656   8.483  0.3182 -0.5019 -0.2645
   13SAPS  H18X 1727   4.786   1.602   8.563 -0.1360 -1.3635 -0.5283
   13SAPS  H18Y 1728   4.750   1.623   8.379  1.6358  4.0239 -1.6848
   13SAPS  H18Z 1729   4.625   1.634   8.508  0.4478 -0.9328 -0.0949
   14SAPS     N 1730   3.506   2.278   5.708 -0.5840 -0.5551  0.3298
   14SAPS   HN1 1731   3.602   2.310   5.728 -1.5852  2.1538  1.1875
   14SAPS   HN2 1732   3.468   2.337   5.631 -0.9514  0.0862  0.9944
   14SAPS   HN3 1733   3.452   2.287   5.796 -0.6572 -0.8873  0.3209
   14SAPS   C12 1734   3.502   2.132   5.681 -0.5063 -0.1339  1.1986
   14SAPS  H12A 1735   3.408   2.108   5.634  0.0184 -3.4792  1.5857
   14SAPS   C13 1736   3.613   2.075   5.588  0.0297  0.4147  0.5741
   14SAPS  O13A 1737   3.706   2.150   5.552 -0.4362  0.0041  0.5596
   14SAPS  O13B 1738   3.615   1.946   5.575  0.2458 -0.2468  0.6104
   14SAPS   C11 1739   3.493   2.056   5.818 -0.3893 -0.0874  0.9171
   14SAPS  H11A 1740   3.594   2.022   5.852 -0.8508 -1.4927  0.9669
   14SAPS  H11B 1741   3.457   1.954   5.791  1.0075  0.2661 -2.9727
   14SAPS     P 1742   3.292   2.071   6.003 -0.1523 -0.2341  0.0556
   14SAPS   O13 1743   3.259   2.168   6.105  0.0180  0.1936  0.0442
   14SAPS   O14 1744   3.179   2.047   5.911 -0.0386 -0.2089 -0.3638
   14SAPS   O12 1745   3.419   2.124   5.926 -0.9040 -0.3393 -0.2428
   14SAPS   O11 1746   3.336   1.932   6.070 -0.6752  0.1871 -0.2307
   14SAPS    C1 1747   3.467   1.918   6.122  0.3727 -0.3245 -0.1715
   14SAPS    HA 1748   3.525   1.828   6.091  1.2638  0.2857 -0.2990
   14SAPS    HB 1749   3.538   2.001   6.101  1.2260 -1.1450 -0.6175
   14SAPS    C2 1750   3.460   1.897   6.279 -0.1236 -0.0875  0.0500
   14SAPS    HS 1751   3.381   1.822   6.300  0.2076 -0.4093  0.1404
   14SAPS   O21 1752   3.439   2.017   6.346 -0.0008 -0.8588  0.8669
   14SAPS   C21 1753   3.365   2.008   6.454 -0.3329 -0.6414  0.2658
   14SAPS   O22 1754   3.289   1.920   6.481  0.6487  0.2018 -0.0074
   14SAPS   C22 1755   3.387   2.122   6.558  0.1272 -0.7409 -0.0687
   14SAPS   H2R 1756   3.497   2.124   6.574  0.0899 -0.9800  0.2198
   14SAPS   H2S 1757   3.348   2.216   6.514  0.2965 -0.7134 -0.1611
   14SAPS    C3 1758   3.596   1.826   6.330  0.1561 -0.1931 -0.1189
   14SAPS    HX 1759   3.663   1.911   6.305  0.3487 -0.1916  0.4005
   14SAPS    HY 1760   3.642   1.751   6.262  1.9275  0.7710 -0.0427
   14SAPS   O31 1761   3.591   1.794   6.466  0.0655  0.3552 -0.0240
   14SAPS   C31 1762   3.546   1.669   6.504 -0.0696 -0.1597  0.4616
   14SAPS   O32 1763   3.504   1.587   6.421 -0.2563  0.7279 -0.3854
   14SAPS   C32 1764   3.566   1.648   6.650 -0.0859 -0.0120  0.2901
   14SAPS   H2X 1765   3.594   1.743   6.701  1.3110 -0.0875 -0.3005
   14SAPS   H2Y 1766   3.648   1.579   6.677 -0.9095 -0.7093  1.0714
   14SAPS   C23 1767   3.314   2.099   6.692  0.6437  0.2100  0.0151
   14SAPS   H3R 1768   3.326   1.995   6.728 -0.8300  0.1652  0.4357
   14SAPS   H3S 1769   3.205   2.118   6.679 -0.0513 -3.2318 -0.1183
   14SAPS   C24 1770   3.376   2.187   6.807 -0.6357  0.1613  0.2858
   14SAPS   H4R 1771   3.323   2.163   6.901  0.0341 -1.4465  0.2886
   14SAPS   H4S 1772   3.367   2.296   6.785  0.2287  0.2589  0.3752
   14SAPS   C25 1773   3.527   2.170   6.828  0.2856 -0.6455 -0.3687
   14SAPS   H5R 1774   3.583   2.256   6.789 -1.6466  0.1208 -1.6526
   14SAPS   C26 1775   3.589   2.064   6.887  0.1050 -0.8904  0.3700
   14SAPS   H6R 1776   3.699   2.065   6.886  0.1867 -1.5269 -2.7694
   14SAPS   C27 1777   3.517   1.955   6.956 -0.8827 -0.5306 -0.5078
   14SAPS   H7R 1778   3.515   1.872   6.882 -0.6592 -0.0821 -1.0201
   14SAPS   H7S 1779   3.415   1.995   6.972 -0.7655 -0.9107  1.3805
   14SAPS   C28 1780   3.590   1.926   7.090  0.0149 -0.2759  0.4961
   14SAPS   H8R 1781   3.690   1.880   7.086 -0.5552 -1.4939 -1.6972
   14SAPS   C29 1782   3.538   1.943   7.207 -0.3354  0.9238 -1.0566
   14SAPS   H9R 1783   3.600   1.925   7.295 -0.4372  2.9628 -0.5096
   14SAPS  C210 1784   3.398   1.995   7.245 -0.1789  0.3490  0.7550
   14SAPS  H10R 1785   3.328   1.988   7.159  1.1532  1.9300 -0.5377
   14SAPS  H10S 1786   3.411   2.103   7.267  0.0417  0.3060  0.8439
   14SAPS  C211 1787   3.344   1.918   7.358 -0.6693 -0.5035  0.3804
   14SAPS  H11R 1788   3.280   1.831   7.336 -1.4446  0.6111 -2.0480
   14SAPS  C212 1789   3.356   1.959   7.488  0.3214 -0.1492  0.0130
   14SAPS  H12R 1790   3.313   1.891   7.563 -0.5223 -1.7803 -1.8701
   14SAPS  C213 1791   3.435   2.081   7.525  0.1996  0.3809 -0.4582
   14SAPS  H13R 1792   3.500   2.122   7.445 -0.4261 -1.4222 -1.9419
   14SAPS  H13S 1793   3.504   2.060   7.610  0.9616 -0.0996 -1.1723
   14SAPS  C214 1794   3.347   2.193   7.568 -0.5626  0.4641  0.0812
   14SAPS  H14R 1795   3.257   2.211   7.508 -1.5298 -0.3126  1.2529
   14SAPS  C215 1796   3.376   2.285   7.666  0.0100 -0.2901 -0.1729
   14SAPS  H15R 1797   3.293   2.350   7.698 -1.3019 -1.7064 -0.5856
   14SAPS  C216 1798   3.499   2.300   7.748 -0.5978 -0.1214  0.0614
   14SAPS  H16R 1799   3.580   2.227   7.729 -0.1945  0.0094  1.1588
   14SAPS  H16S 1800   3.476   2.292   7.857 -1.0451  1.4953  0.1087
   14SAPS  C217 1801   3.551   2.439   7.732  0.2084 -0.3987 -0.2488
   14SAPS  H17R 1802   3.470   2.509   7.763 -2.1597 -4.2509  3.5535
   14SAPS  H17S 1803   3.572   2.471   7.628 -0.4267  3.1560  0.5872
   14SAPS  C218 1804   3.675   2.485   7.810 -0.4018  0.1959  0.0371
   14SAPS  H18R 1805   3.711   2.585   7.781  0.0790 -0.2399 -0.8891
   14SAPS  H18S 1806   3.749   2.405   7.791 -0.2035  0.5743 -0.7991
   14SAPS  C219 1807   3.673   2.492   7.969  0.1120 -0.4176  0.2173
   14SAPS  H19R 1808   3.666   2.386   8.000  3.0460 -1.1717 -1.3482
   14SAPS  H19S 1809   3.581   2.547   7.999 -0.3613 -1.2658  0.3540
   14SAPS  C220 1810   3.793   2.550   8.042 -0.8785 -0.1321  0.0107
   14SAPS  H20R 1811   3.845   2.629   7.983  0.7924 -0.8016  0.5521
   14SAPS  H20S 1812   3.861   2.464   8.056 -0.8207 -0.1817 -0.5431
   14SAPS  H20T 1813   3.756   2.594   8.138  0.5466  1.5822 -0.1627
   14SAPS   C33 1814   3.443   1.595   6.728  0.7945  0.0734  0.5785
   14SAPS   H3X 1815   3.406   1.500   6.684 -0.6981  1.4141 -1.2056
   14SAPS   H3Y 1816   3.364   1.672   6.724  2.5058  1.9368  1.1950
   14SAPS   C34 1817   3.476   1.559   6.872 -0.4325  0.7236 -0.8437
   14SAPS   H4X 1818   3.558   1.620   6.917 -0.5141  0.5925 -0.5134
   14SAPS   H4Y 1819   3.490   1.449   6.885 -0.2245  0.9602  1.3589
   14SAPS   C35 1820   3.368   1.591   6.978 -0.8572 -0.4197 -0.2733
   14SAPS   H5X 1821   3.280   1.529   6.950  0.6114 -2.1299 -1.2292
   14SAPS   H5Y 1822   3.336   1.697   6.960  0.0489 -0.1646 -0.4094
   14SAPS   C36 1823   3.410   1.551   7.118  0.3263  0.3356 -0.9036
   14SAPS   H6X 1824   3.488   1.622   7.155  2.3228 -2.0035 -0.3080
   14SAPS   H6Y 1825   3.456   1.450   7.114  1.0098  0.6572 -1.4824
   14SAPS   C37 1826   3.289   1.532   7.211 -0.3317  0.0538  0.0218
   14SAPS   H7X 1827   3.221   1.448   7.185 -0.5587  0.5496 -1.0609
   14SAPS   H7Y 1828   3.233   1.627   7.201 -0.9932 -0.4660 -1.6487
   14SAPS   C38 1829   3.333   1.520   7.355 -0.0161 -0.4064 -0.4192
   14SAPS   H8X 1830   3.401   1.608   7.364  1.7278 -1.4178 -2.6481
   14SAPS   H8Y 1831   3.403   1.437   7.379  2.3458  1.7569  0.6962
   14SAPS   C39 1832   3.216   1.527   7.454  0.7564 -0.5440 -0.6165
   14SAPS   H9X 1833   3.157   1.434   7.470 -2.0901  1.2885  0.2706
   14SAPS   H9Y 1834   3.146   1.595   7.401  0.9819  0.0607 -0.1492
   14SAPS  C310 1835   3.255   1.571   7.598  1.3975  0.0064 -0.4576
   14SAPS  H10X 1836   3.159   1.549   7.648  0.9844 -0.8053 -1.5633
   14SAPS  H10Y 1837   3.280   1.680   7.601  0.7559  0.1348  0.8888
   14SAPS  C311 1838   3.362   1.484   7.659  0.1248 -0.5500  0.4560
   14SAPS  H11X 1839   3.451   1.484   7.593 -0.1519 -0.6274  0.0847
   14SAPS  H11Y 1840   3.333   1.377   7.667  1.0780 -0.8502  0.0856
   14SAPS  C312 1841   3.406   1.532   7.799  0.4229  0.8054 -0.1224
   14SAPS  H12X 1842   3.322   1.526   7.871 -0.8679  0.2534 -1.6246
   14SAPS  H12Y 1843   3.430   1.639   7.782  0.3567  0.7974 -0.2639
   14SAPS  C313 1844   3.516   1.453   7.858  0.0645  0.1436  0.0412
   14SAPS  H13X 1845   3.605   1.473   7.795 -0.7121 -2.2131 -1.9619
   14SAPS  H13Y 1846   3.481   1.348   7.849 -0.4244  0.2202  0.9147
   14SAPS  C314 1847   3.540   1.487   8.003 -0.6455  0.3508  0.2896
   14SAPS  H14X 1848   3.449   1.454   8.058  0.0655 -0.4122  1.0255
   14SAPS  H14Y 1849   3.563   1.595   8.014 -1.2540  0.4181  1.0369
   14SAPS  C315 1850   3.671   1.418   8.059  0.1348  0.0114  0.5306
   14SAPS  H15X 1851   3.758   1.448   7.999 -0.1812 -0.8606 -0.3997
   14SAPS  H15Y 1852   3.676   1.307   8.052 -0.6458 -0.0518  0.7978
   14SAPS  C316 1853   3.707   1.464   8.194 -0.5883 -0.2022 -0.3958
   14SAPS  H16X 1854   3.812   1.425   8.195 -0.4595  0.0585  1.8169
   14SAPS  H16Y 1855   3.654   1.414   8.279 -1.1275  3.0033  1.2995
   14SAPS  C317 1856   3.721   1.612   8.231  0.2652 -0.2738 -0.4845
   14SAPS  H17X 1857   3.626   1.670   8.225  0.8922  0.8666  0.2235
   14SAPS  H17Y 1858   3.793   1.656   8.158 -0.8826 -1.1654 -2.2399
   14SAPS  C318 1859   3.767   1.620   8.375 -0.5031 -0.3378 -0.0382
   14SAPS  H18X 1860   3.794   1.724   8.404 -0.1229 -0.2386 -0.7191
   14SAPS  H18Y 1861   3.853   1.553   8.396 -0.0768  0.2870  0.2399
   14SAPS  H18Z 1862   3.686   1.582   8.441  1.2577 -2.5507  0.9457
   15SAPS     N 1863   4.281   3.879   5.951  0.0336 -0.1152  0.0818
   15SAPS   HN1 1864   4.311   3.834   6.040 -2.5350 -2.7376 -0.2211
   15SAPS   HN2 1865   4.372   3.894   5.903  0.5846 -2.2726  0.3282
   15SAPS   HN3 1866   4.225   3.965   5.965 -1.6166 -0.9745 -0.9765
   15SAPS   C12 1867   4.199   3.771   5.881  0.1962  0.1029 -0.2271
   15SAPS  H12A 1868   4.184   3.801   5.778  0.7162 -2.1113 -1.0108
   15SAPS   C13 1869   4.274   3.634   5.872 -0.2097  0.0329  0.2017
   15SAPS  O13A 1870   4.393   3.626   5.922  0.3134  0.4167 -0.5300
   15SAPS  O13B 1871   4.228   3.545   5.798 -0.2980 -0.1298 -0.2676
   15SAPS   C11 1872   4.065   3.759   5.962  1.2677  0.5547  0.1092
   15SAPS  H11A 1873   4.101   3.720   6.059  0.8667  0.3982  0.1944
   15SAPS  H11B 1874   3.999   3.690   5.906 -0.9590  0.8695  2.1824
   15SAPS     P 1875   3.841   3.904   5.981 -0.1842  0.1440 -0.1310
   15SAPS   O13 1876   3.807   4.047   5.975  0.1947  0.4330 -0.9012
   15SAPS   O14 1877   3.782   3.824   5.875 -0.7515  0.2824 -0.3970
   15SAPS   O12 1878   3.995   3.886   5.965 -0.3931 -0.0084 -0.6528
   15SAPS   O11 1879   3.788   3.845   6.117  0.2226 -0.9057  0.1821
   15SAPS    C1 1880   3.846   3.900   6.237 -0.4448  0.2589 -0.7686
   15SAPS    HA 1881   3.909   3.990   6.220  0.3410 -0.1167  0.0800
   15SAPS    HB 1882   3.758   3.920   6.301  0.4575  0.3357  0.4908
   15SAPS    C2 1883   3.948   3.800   6.305  0.8124 -0.0053 -0.3047
   15SAPS    HS 1884   4.042   3.818   6.248  0.7296 -2.2952 -1.2404
   15SAPS   O21 1885   3.890   3.669   6.281  0.1529  0.3718 -0.7714
   15SAPS   C21 1886   3.977   3.573   6.259  0.0389 -0.2345 -0.4548
   15SAPS   O22 1887   4.099   3.587   6.259 -0.0177 -0.0946  0.2095
   15SAPS   C22 1888   3.912   3.437   6.237  0.2991  0.1688  0.0469
   15SAPS   H2R 1889   3.850   3.413   6.326  1.0405  1.4763  0.9449
   15SAPS   H2S 1890   3.841   3.448   6.152 -1.7703  3.4801  1.9714
   15SAPS    C3 1891   3.964   3.821   6.462  0.6296  0.1654 -0.7264
   15SAPS    HX 1892   3.858   3.841   6.489 -0.1923 -2.0127 -2.0552
   15SAPS    HY 1893   4.021   3.916   6.472  0.4242  0.1339  1.2302
   15SAPS   O31 1894   4.019   3.706   6.534  0.0161  0.1551  0.4635
   15SAPS   C31 1895   3.932   3.638   6.603 -0.0733 -0.6511 -0.0527
   15SAPS   O32 1896   3.813   3.670   6.618 -0.3255  0.0935 -0.7956
   15SAPS   C32 1897   3.990   3.502   6.635  0.0897  0.2436  0.2922
   15SAPS   H2X 1898   4.061   3.515   6.720 -1.0374  0.0338  1.3086
   15SAPS   H2Y 1899   4.053   3.469   6.550  1.3558  3.4524 -0.1263
   15SAPS   C23 1900   4.009   3.325   6.185 -0.6340 -0.5162 -0.1883
   15SAPS   H3R 1901   4.065   3.355   6.093 -2.5933 -0.2572 -1.3558
   15SAPS   H3S 1902   3.945   3.243   6.148  1.2739 -2.2536  0.1770
   15SAPS   C24 1903   4.106   3.272   6.292  0.0103 -0.5223  0.6183
   15SAPS   H4R 1904   4.047   3.264   6.385 -0.6137  1.1789  0.3949
   15SAPS   H4S 1905   4.189   3.343   6.310  0.9473 -1.4788  0.1849
   15SAPS   C25 1906   4.162   3.141   6.244  0.1343 -0.0191 -0.6310
   15SAPS   H5R 1907   4.222   3.155   6.153 -0.1666  0.3933 -0.7730
   15SAPS   C26 1908   4.148   3.017   6.300 -0.1740 -0.2236 -0.5679
   15SAPS   H6R 1909   4.199   2.931   6.253 -1.2011 -1.9900  1.4030
   15SAPS   C27 1910   4.076   2.991   6.431  0.5625 -0.1610  0.5134
   15SAPS   H7R 1911   3.975   2.948   6.409  0.4258  0.6753 -0.5859
   15SAPS   H7S 1912   4.034   3.082   6.480 -1.8992 -1.1230  0.3626
   15SAPS   C28 1913   4.154   2.902   6.523 -0.6221  0.2543 -0.8820
   15SAPS   H8R 1914   4.254   2.871   6.487 -0.9561 -1.4646 -0.4118
   15SAPS   C29 1915   4.115   2.842   6.646  0.6543 -0.2716  0.5998
   15SAPS   H9R 1916   4.186   2.774   6.695  1.9672 -0.9152 -2.0680
   15SAPS  C210 1917   3.986   2.861   6.725 -0.4355 -0.1513 -0.0322
   15SAPS  H10R 1918   3.912   2.927   6.675  0.1906  2.1468  1.8529
   15SAPS  H10S 1919   4.000   2.935   6.807 -0.7681  3.9325 -3.3277
   15SAPS  C211 1920   3.911   2.742   6.779 -0.0996 -0.6891  1.0161
   15SAPS  H11R 1921   3.832   2.704   6.712  1.7583 -2.0698 -0.4758
   15SAPS  C212 1922   3.917   2.689   6.900 -0.3953  0.1721  0.1381
   15SAPS  H12R 1923   3.840   2.616   6.931 -1.0628  0.1937 -1.3718
   15SAPS  C213 1924   4.007   2.727   7.018  0.0150 -0.5371 -0.3466
   15SAPS  H13R 1925   4.114   2.727   6.987  0.2695 -1.8792  0.4486
   15SAPS  H13S 1926   3.990   2.655   7.100 -0.9458 -2.0721 -1.8240
   15SAPS  C214 1927   3.989   2.856   7.082 -0.1971 -0.1529  0.2306
   15SAPS  H14R 1928   4.067   2.926   7.049  1.7670 -2.5387 -0.4717
   15SAPS  C215 1929   3.876   2.906   7.139 -0.0435 -0.1521 -0.7365
   15SAPS  H15R 1930   3.881   3.011   7.171 -0.2546  0.6583 -3.1766
   15SAPS  C216 1931   3.750   2.831   7.164  0.5341  0.0401 -0.0548
   15SAPS  H16R 1932   3.762   2.721   7.150  1.3987  0.2504 -1.2004
   15SAPS  H16S 1933   3.665   2.862   7.100  1.4618 -0.0606 -1.3815
   15SAPS  C217 1934   3.714   2.857   7.310 -0.1751  0.1460 -0.0527
   15SAPS  H17R 1935   3.622   2.806   7.345  1.3266 -1.7663  1.3128
   15SAPS  H17S 1936   3.690   2.963   7.333  0.8410  0.0360  1.6881
   15SAPS  C218 1937   3.815   2.816   7.417  0.4413  0.2245 -0.4898
   15SAPS  H18R 1938   3.780   2.867   7.510  4.1438  1.7338  0.2879
   15SAPS  H18S 1939   3.914   2.867   7.412  0.1646  0.9826  1.0619
   15SAPS  C219 1940   3.826   2.666   7.438  0.4418 -0.3634 -0.2778
   15SAPS  H19R 1941   3.857   2.627   7.339  1.4838  1.2466 -0.6286
   15SAPS  H19S 1942   3.728   2.626   7.471  1.1468 -1.1890  0.8765
   15SAPS  C220 1943   3.929   2.631   7.552  0.5728 -0.3054  0.8791
   15SAPS  H20R 1944   4.029   2.672   7.526 -0.4416  1.5072 -0.4491
   15SAPS  H20S 1945   3.934   2.521   7.566  0.9888 -0.1077  2.3773
   15SAPS  H20T 1946   3.910   2.676   7.652 -0.3216 -2.2273  1.6239
   15SAPS   C33 1947   3.888   3.395   6.665  0.0781 -0.0034  0.7537
   15SAPS   H3X 1948   3.837   3.363   6.571 -1.7698 -0.9732  2.0176
   15SAPS   H3Y 1949   3.802   3.429   6.727  0.8290  0.3526  1.6215
   15SAPS   C34 1950   3.965   3.286   6.742  0.4667 -0.2062  0.5315
   15SAPS   H4X 1951   4.061   3.255   6.695  0.3383 -2.3375  1.5276
   15SAPS   H4Y 1952   3.904   3.193   6.747  2.3777 -1.4714  1.1890
   15SAPS   C35 1953   3.996   3.329   6.885  0.2855 -0.2892 -0.2555
   15SAPS   H5X 1954   3.910   3.352   6.952  2.3199  1.4457  1.9639
   15SAPS   H5Y 1955   4.063   3.417   6.883  0.1865 -0.1233 -4.7674
   15SAPS   C36 1956   4.054   3.211   6.968  0.4089 -0.3751 -0.3575
   15SAPS   H6X 1957   4.142   3.167   6.917 -0.0801  1.1339 -2.6729
   15SAPS   H6Y 1958   3.973   3.138   6.984 -2.8339  2.9652 -0.0603
   15SAPS   C37 1959   4.099   3.270   7.101  0.3292  0.1914  0.7202
   15SAPS   H7X 1960   4.028   3.348   7.137 -1.2905 -1.7394  1.8802
   15SAPS   H7Y 1961   4.182   3.337   7.070 -0.8847  1.6510  0.5108
   15SAPS   C38 1962   4.161   3.172   7.207 -0.0443  0.2988  0.1132
   15SAPS   H8X 1963   4.239   3.110   7.159  0.6095 -0.6722  2.3340
   15SAPS   H8Y 1964   4.071   3.118   7.245 -0.7793  0.9980 -0.5785
   15SAPS   C39 1965   4.232   3.245   7.320  0.2282  0.1078 -0.1519
   15SAPS   H9X 1966   4.156   3.304   7.375 -0.9253 -2.2457  0.8986
   15SAPS   H9Y 1967   4.314   3.311   7.283  0.7499 -0.0437  0.7291
   15SAPS  C310 1968   4.315   3.151   7.414 -0.0586  0.0045 -0.2711
   15SAPS  H10X 1969   4.360   3.212   7.495 -2.2311  0.0489  0.9638
   15SAPS  H10Y 1970   4.406   3.104   7.368  1.9405 -0.5701  3.8320
   15SAPS  C311 1971   4.232   3.041   7.484 -0.3834 -0.1461 -0.2389
   15SAPS  H11X 1972   4.220   2.951   7.420  1.6549 -1.3571  0.9919
   15SAPS  H11Y 1973   4.132   3.079   7.516  0.2988  0.7570  0.8789
   15SAPS  C312 1974   4.315   2.973   7.597 -0.1798  0.6301 -0.5098
   15SAPS  H12X 1975   4.414   2.961   7.549 -0.3563 -0.0827 -0.7099
   15SAPS  H12Y 1976   4.275   2.871   7.616 -0.0701  0.7486  0.3962
   15SAPS  C313 1977   4.328   3.062   7.729  0.1949 -0.2483 -0.2819
   15SAPS  H13X 1978   4.222   3.073   7.762 -1.9037 -1.8186 -5.3525
   15SAPS  H13Y 1979   4.374   3.161   7.714 -0.1726  0.0447  0.4706
   15SAPS  C314 1980   4.403   2.985   7.836  0.2216  0.2346  0.4153
   15SAPS  H14X 1981   4.508   2.974   7.803  0.2825  0.9760  0.3614
   15SAPS  H14Y 1982   4.361   2.882   7.844 -0.2554  0.5595  2.7993
   15SAPS  C315 1983   4.394   3.065   7.969 -0.8980  0.1888  0.1794
   15SAPS  H15X 1984   4.286   3.068   7.998 -0.9081  0.7781  0.0856
   15SAPS  H15Y 1985   4.422   3.171   7.956  0.7894 -0.4473 -1.8760
   15SAPS  C316 1986   4.490   3.002   8.072 -0.2194  0.4681 -0.1896
   15SAPS  H16X 1987   4.591   3.004   8.027 -0.0630  1.9245  0.1953
   15SAPS  H16Y 1988   4.472   2.892   8.080 -2.8535  0.7546 -1.1220
   15SAPS  C317 1989   4.484   3.063   8.209  1.0200 -1.0429  0.1586
   15SAPS  H17X 1990   4.400   3.019   8.267 -0.6857  0.7409 -0.8151
   15SAPS  H17Y 1991   4.453   3.170   8.202 -2.2690 -1.9341 -0.9950
   15SAPS  C318 1992   4.610   3.054   8.295  0.4065  0.9698 -0.1155
   15SAPS  H18X 1993   4.654   2.952   8.299  0.9444  1.2036 -0.0152
   15SAPS  H18Y 1994   4.604   3.092   8.400 -1.1719 -1.2836  0.6914
   15SAPS  H18Z 1995   4.691   3.115   8.251 -1.2692  2.9614 -0.5969
   16SAPS     N 1996   1.308   0.064   6.526 -0.2069 -0.8454 -0.5743
   16SAPS   HN1 1997   1.350   0.149   6.569 -1.1849 -1.3877  1.6199
   16SAPS   HN2 1998   1.204   0.064   6.527 -0.2303 -2.3226  0.5203
   16SAPS   HN3 1999   1.342  -0.013   6.588  0.8176  0.3793  0.4228
   16SAPS   C12 2000   1.348   0.043   6.386 -0.5151 -0.4229 -0.0041
   16SAPS  H12A 2001   1.299  -0.044   6.346 -2.4373  0.8284 -0.4771
   16SAPS   C13 2002   1.305   0.164   6.292 -0.2168 -0.3971 -0.6452
   16SAPS  O13A 2003   1.230   0.253   6.342  0.1511  0.0973 -0.0262
   16SAPS  O13B 2004   1.337   0.168   6.171 -0.4349 -0.2616  0.2727
   16SAPS   C11 2005   1.502   0.028   6.382  0.3459 -0.2145  0.1986
   16SAPS  H11A 2006   1.545   0.127   6.409 -0.4884  0.2513 -0.1543
   16SAPS  H11B 2007   1.532  -0.001   6.279  2.9140  1.1360  0.4903
   16SAPS     P 2008   1.692  -0.079   6.504 -0.3312 -0.5963 -0.1172
   16SAPS   O13 2009   1.756  -0.018   6.383  0.2462  0.0305  0.3443
   16SAPS   O14 2010   1.709  -0.012   6.635 -0.4642 -0.1548  0.7243
   16SAPS   O12 2011   1.535  -0.076   6.477  0.1465 -0.5732 -0.5315
   16SAPS   O11 2012   1.728  -0.234   6.517  0.5109  0.3810 -0.3300
   16SAPS    C1 2013   1.647  -0.320   6.599  0.4867 -0.0953  0.3574
   16SAPS    HA 2014   1.538  -0.308   6.587  0.6464  1.2914 -0.0004
   16SAPS    HB 2015   1.675  -0.424   6.574  0.9474  0.1668 -0.2618
   16SAPS    C2 2016   1.681  -0.309   6.751 -0.5984  0.7473 -0.8820
   16SAPS    HS 2017   1.661  -0.203   6.776 -1.4054  0.6001 -0.9039
   16SAPS   O21 2018   1.823  -0.340   6.771 -0.2520 -0.1553  0.0453
   16SAPS   C21 2019   1.883  -0.265   6.873  0.7470  0.0305 -0.3175
   16SAPS   O22 2020   1.824  -0.171   6.926 -0.1594  0.1487 -0.0809
   16SAPS   C22 2021   2.023  -0.308   6.906 -0.2956 -0.6825  0.4174
   16SAPS   H2R 2022   2.035  -0.405   6.853 -2.7970 -1.3343  0.9180
   16SAPS   H2S 2023   2.086  -0.234   6.852 -1.7577  0.7893  0.6676
   16SAPS    C3 2024   1.594  -0.413   6.824 -0.1676 -0.1866 -0.8294
   16SAPS    HX 2025   1.627  -0.515   6.793 -1.7469 -0.3677 -2.0507
   16SAPS    HY 2026   1.488  -0.402   6.793 -0.1297 -2.3561 -1.9092
   16SAPS   O31 2027   1.605  -0.396   6.968 -0.3128  0.7510  0.2343
   16SAPS   C31 2028   1.548  -0.277   7.007  0.2238  0.5144 -0.1531
   16SAPS   O32 2029   1.478  -0.206   6.935 -0.8435  0.0533  0.1709
   16SAPS   C32 2030   1.581  -0.248   7.157  0.3561 -0.0481 -0.0061
   16SAPS   H2X 2031   1.690  -0.261   7.174  0.9169  1.8574 -1.7045
   16SAPS   H2Y 2032   1.508  -0.311   7.212 -0.2412  0.2069 -0.4861
   16SAPS   C23 2033   2.065  -0.333   7.055  0.4933  0.0265 -0.8657
   16SAPS   H3R 2034   2.081  -0.244   7.118 -0.3009  1.9311 -3.2050
   16SAPS   H3S 2035   2.165  -0.381   7.053  0.7372  0.0734  2.9969
   16SAPS   C24 2036   1.989  -0.428   7.144 -0.0184  0.2788 -0.1320
   16SAPS   H4R 2037   1.984  -0.520   7.081  0.3800  0.7562 -0.8732
   16SAPS   H4S 2038   1.884  -0.395   7.154 -0.3042 -0.6133 -0.0414
   16SAPS   C25 2039   2.040  -0.455   7.285 -0.0727  0.1872 -0.3200
   16SAPS   H5R 2040   2.133  -0.512   7.295 -0.3116  0.0212  1.1358
   16SAPS   C26 2041   1.989  -0.415   7.410 -0.0621  0.6948  0.0242
   16SAPS   H6R 2042   2.041  -0.438   7.504  0.9859 -1.0539 -0.9258
   16SAPS   C27 2043   1.859  -0.340   7.439 -0.2006  0.0038  0.5320
   16SAPS   H7R 2044   1.817  -0.381   7.534  1.1219  0.0821  1.1647
   16SAPS   H7S 2045   1.786  -0.364   7.359 -0.4492 -1.6005  1.2011
   16SAPS   C28 2046   1.879  -0.195   7.447  0.9310  0.0194  0.0443
   16SAPS   H8R 2047   1.954  -0.161   7.373  0.3659  0.5255 -0.3033
   16SAPS   C29 2048   1.825  -0.115   7.537 -0.9966 -0.0716 -0.1310
   16SAPS   H9R 2049   1.851  -0.009   7.534 -2.1273  0.2218  0.1433
   16SAPS  C210 2050   1.724  -0.164   7.641 -0.1607 -1.0653  0.6584
   16SAPS  H10R 2051   1.749  -0.263   7.684 -1.9581 -2.3286 -1.0258
   16SAPS  H10S 2052   1.632  -0.164   7.580  1.2747 -0.9957 -1.6171
   16SAPS  C211 2053   1.716  -0.060   7.752  0.1998  0.3512 -0.1263
   16SAPS  H11R 2054   1.667   0.036   7.734 -0.2540  0.4350  1.4170
   16SAPS  C212 2055   1.754  -0.081   7.879 -0.0628 -0.1599 -0.1997
   16SAPS  H12R 2056   1.741   0.000   7.952  1.7712  1.0472 -1.1352
   16SAPS  C213 2057   1.809  -0.207   7.933  0.5834 -0.4909  0.1470
   16SAPS  H13R 2058   1.918  -0.223   7.921  1.1465  2.8667 -0.3958
   16SAPS  H13S 2059   1.769  -0.303   7.894 -1.1892 -0.9663  2.8777
   16SAPS  C214 2060   1.768  -0.220   8.081 -0.2049  0.0277 -0.3093
   16SAPS  H14R 2061   1.661  -0.212   8.103  0.1389 -0.2418  1.6276
   16SAPS  C215 2062   1.853  -0.243   8.190  0.9139  0.0598  0.1669
   16SAPS  H15R 2063   1.811  -0.245   8.292  0.3052 -0.2809 -0.0839
   16SAPS  C216 2064   2.002  -0.264   8.182  0.5136 -0.6531 -0.5136
   16SAPS  H16R 2065   2.057  -0.169   8.165 -0.5667  0.5549  2.1171
   16SAPS  H16S 2066   2.024  -0.323   8.091  1.1534 -2.8544  0.9960
   16SAPS  C217 2067   2.064  -0.324   8.310  0.0886 -0.2567 -0.5073
   16SAPS  H17R 2068   2.158  -0.378   8.286  1.2106  1.4170 -0.0383
   16SAPS  H17S 2069   1.985  -0.394   8.345 -1.6626  1.9413  0.1864
   16SAPS  C218 2070   2.100  -0.209   8.411 -0.3499  0.5442  0.4356
   16SAPS  H18R 2071   2.029  -0.124   8.403  0.0377  0.8891  0.6241
   16SAPS  H18S 2072   2.194  -0.162   8.375 -0.1544 -0.1365  0.0422
   16SAPS  C219 2073   2.121  -0.261   8.558 -0.1877  0.3093 -0.5506
   16SAPS  H19R 2074   2.177  -0.355   8.542 -0.2384  0.2831 -0.5725
   16SAPS  H19S 2075   2.021  -0.272   8.607  0.9875  1.6419  2.3658
   16SAPS  C220 2076   2.212  -0.175   8.645  0.6345  0.2212 -0.1226
   16SAPS  H20R 2077   2.182  -0.068   8.645  1.9654  0.6201 -0.2604
   16SAPS  H20S 2078   2.314  -0.187   8.602  1.1608 -0.9206  1.3859
   16SAPS  H20T 2079   2.211  -0.219   8.746 -1.6978 -1.7262 -0.9039
   16SAPS   C33 2080   1.535  -0.104   7.194 -0.6770 -0.2625  0.2491
   16SAPS   H3X 2081   1.525  -0.113   7.304  1.4688 -4.6671  0.3095
   16SAPS   H3Y 2082   1.430  -0.086   7.163 -0.2626  0.3085 -0.8914
   16SAPS   C34 2083   1.617   0.016   7.152  0.9134 -0.0739 -0.3756
   16SAPS   H4X 2084   1.624   0.014   7.041  0.4446 -1.2468 -0.4014
   16SAPS   H4Y 2085   1.716  -0.001   7.199  0.7392 -0.4133 -0.1188
   16SAPS   C35 2086   1.561   0.145   7.212  0.1994  0.0140 -1.3235
   16SAPS   H5X 2087   1.460   0.165   7.171 -1.2602 -1.2396  1.4185
   16SAPS   H5Y 2088   1.627   0.232   7.192 -0.5184  0.7024 -0.7486
   16SAPS   C36 2089   1.558   0.134   7.364 -0.1393 -0.4494 -0.3239
   16SAPS   H6X 2090   1.648   0.080   7.400 -0.4162 -2.0966 -1.9287
   16SAPS   H6Y 2091   1.472   0.072   7.398  0.5602 -0.3210  1.8213
   16SAPS   C37 2092   1.542   0.272   7.424 -0.3122  0.3920  0.4918
   16SAPS   H7X 2093   1.450   0.309   7.373 -0.8054 -2.5562 -0.9457
   16SAPS   H7Y 2094   1.628   0.336   7.394 -0.1543 -0.1097 -0.1517
   16SAPS   C38 2095   1.542   0.254   7.573  0.5691  0.7436 -0.2699
   16SAPS   H8X 2096   1.647   0.241   7.605  0.4407  1.8925  0.6464
   16SAPS   H8Y 2097   1.485   0.164   7.607  1.5971  0.5907  1.1050
   16SAPS   C39 2098   1.491   0.380   7.643 -0.5163  0.0556  0.7778
   16SAPS   H9X 2099   1.392   0.410   7.603 -0.1576  1.7859  1.1081
   16SAPS   H9Y 2100   1.559   0.466   7.626 -1.1649  0.4590  0.1651
   16SAPS  C310 2101   1.468   0.349   7.791  0.1555 -0.0380 -0.2376
   16SAPS  H10X 2102   1.464   0.241   7.816  0.8212  0.1683  0.8036
   16SAPS  H10Y 2103   1.367   0.389   7.812  0.0337 -0.5090  0.0869
   16SAPS  C311 2104   1.568   0.418   7.888 -0.4887 -0.4703 -0.5413
   16SAPS  H11X 2105   1.572   0.528   7.876  1.1845 -0.0021  3.0555
   16SAPS  H11Y 2106   1.669   0.375   7.870  0.0892  1.7199 -2.9227
   16SAPS  C312 2107   1.538   0.373   8.037  0.0101 -0.2653  0.5697
   16SAPS  H12X 2108   1.428   0.358   8.048  0.1930 -2.2498  0.0757
   16SAPS  H12Y 2109   1.566   0.459   8.102 -0.6063  0.6121 -0.2848
   16SAPS  C313 2110   1.612   0.246   8.074 -0.3928  0.8693 -0.5942
   16SAPS  H13X 2111   1.720   0.261   8.054 -0.1236 -0.7501 -0.5426
   16SAPS  H13Y 2112   1.583   0.156   8.016 -0.6215 -0.0358  0.8482
   16SAPS  C314 2113   1.593   0.206   8.220 -0.2418 -0.2752 -1.0921
   16SAPS  H14X 2114   1.486   0.178   8.234 -0.5326  0.2963 -2.0744
   16SAPS  H14Y 2115   1.613   0.299   8.277  0.7326 -0.4925 -1.0645
   16SAPS  C315 2116   1.673   0.086   8.279 -0.3613  0.1924  0.2268
   16SAPS  H15X 2117   1.779   0.115   8.266 -1.0035  3.1150  0.9297
   16SAPS  H15Y 2118   1.638  -0.001   8.219 -0.7557  1.7730 -1.9516
   16SAPS  C316 2119   1.649   0.069   8.422  0.2341 -0.0062 -0.6193
   16SAPS  H16X 2120   1.543   0.062   8.455  0.8922 -1.3547  1.4576
   16SAPS  H16Y 2121   1.699   0.151   8.478  0.9089 -0.6385 -0.2636
   16SAPS  C317 2122   1.708  -0.060   8.487 -0.2290 -0.4681  0.6603
   16SAPS  H17X 2123   1.817  -0.063   8.465 -0.6826  0.7742 -2.2850
   16SAPS  H17Y 2124   1.652  -0.147   8.446  0.2690 -0.7895  0.6531
   16SAPS  C318 2125   1.678  -0.080   8.638 -1.0870 -0.4687 -0.3422
   16SAPS  H18X 2126   1.716  -0.181   8.664  3.2920  1.1524  0.2740
   16SAPS  H18Y 2127   1.568  -0.087   8.657 -1.4381  1.0942 -1.5422
   16SAPS  H18Z 2128   1.718   0.002   8.701 -0.0304  0.4285 -2.1283
   17SAPC     N 2129   2.495   0.742  10.735  0.3464 -0.7344  0.3157
   17SAPC   C12 2130   2.585   0.727  10.610  0.5978  0.6329 -0.2434
   17SAPC  H12A 2131   2.674   0.681  10.651 -0.3035  0.8364  2.0947
   17SAPC  H12B 2132   2.626   0.821  10.573  2.3508 -0.1640 -0.4565
   17SAPC   C13 2133   2.470   0.608  10.803 -0.0674 -0.7995  0.3153
   17SAPC  H13A 2134   2.393   0.611  10.878  0.4826  0.0755  0.8609
   17SAPC  H13B 2135   2.437   0.534  10.732 -3.1236  0.6076  0.0765
   17SAPC  H13C 2136   2.556   0.578  10.860 -0.4164 -0.0202  1.2862
   17SAPC   C14 2137   2.551   0.838  10.837  0.3610  0.2138 -0.3388
   17SAPC  H14A 2138   2.489   0.832  10.925 -1.1176  2.2795 -1.1669
   17SAPC  H14B 2139   2.654   0.815  10.857  0.2553 -2.2855 -2.1491
   17SAPC  H14C 2140   2.554   0.942  10.808  2.3844 -0.0134 -1.1072
   17SAPC   C15 2141   2.360   0.808  10.697 -0.1629 -0.6926  0.4773
   17SAPC  H15A 2142   2.295   0.815  10.784 -0.6141  0.5813  0.0602
   17SAPC  H15B 2143   2.385   0.906  10.659 -3.2950 -0.8278 -2.3448
   17SAPC  H15C 2144   2.304   0.751  10.625 -0.4680 -0.3320  0.4280
   17SAPC   C11 2145   2.523   0.644  10.498  0.1440 -0.1954 -0.1138
   17SAPC  H11A 2146   2.592   0.651  10.411 -0.8402  1.5282 -0.8086
   17SAPC  H11B 2147   2.426   0.688  10.468 -0.2857  0.0679  1.5603
   17SAPC     P 2148   2.583   0.391  10.521 -0.2458  0.3181 -0.1877
   17SAPC   O13 2149   2.726   0.426  10.563 -0.3555  0.1775 -0.2772
   17SAPC   O14 2150   2.526   0.271  10.596  0.2223 -0.5338 -0.3093
   17SAPC   O12 2151   2.490   0.512  10.539  0.1399 -0.2875 -0.0529
   17SAPC   O11 2152   2.587   0.359  10.369 -0.1080 -0.5039 -0.0058
   17SAPC    C1 2153   2.494   0.398  10.273  0.6354  0.0910  0.2710
   17SAPC    HA 2154   2.469   0.506  10.282 -0.3245 -0.2232  1.6751
   17SAPC    HB 2155   2.534   0.385  10.170  0.0489 -0.9851  0.1670
   17SAPC    C2 2156   2.359   0.311  10.263 -0.1590 -0.4131 -0.0502
   17SAPC    HS 2157   2.312   0.307  10.364 -3.1521  3.2402 -1.0793
   17SAPC   O21 2158   2.382   0.182  10.220  0.5172 -0.0265 -0.5805
   17SAPC   C21 2159   2.276   0.101  10.219 -0.0877  0.5435  0.6140
   17SAPC   O22 2160   2.165   0.128  10.260 -0.0049  0.0156 -0.5113
   17SAPC   C22 2161   2.297  -0.031  10.151 -0.2892 -0.4036  0.4763
   17SAPC   H2R 2162   2.252  -0.114  10.209  0.8659 -1.0375  0.4811
   17SAPC   H2S 2163   2.236  -0.021  10.059  0.2104  2.3264  0.3430
   17SAPC    C3 2164   2.265   0.401  10.178 -0.3308  0.2380 -0.0532
   17SAPC    HX 2165   2.238   0.490  10.239 -3.2352  0.1741 -1.1038
   17SAPC    HY 2166   2.172   0.348  10.148  0.3112 -1.2696  0.5008
   17SAPC   O31 2167   2.340   0.440  10.061 -0.1058 -0.4129  0.4338
   17SAPC   C31 2168   2.342   0.357   9.959  0.3297  0.0364 -0.2659
   17SAPC   O32 2169   2.274   0.252   9.958 -0.1117 -0.3496 -0.1788
   17SAPC   C32 2170   2.412   0.414   9.843  0.4042 -0.6546  0.3981
   17SAPC   H2X 2171   2.521   0.426   9.863  0.2861  1.8656 -0.1326
   17SAPC   H2Y 2172   2.360   0.512   9.832 -0.3646 -1.2382 -1.5947
   17SAPC   C23 2173   2.444  -0.068  10.126 -0.6036  0.6575  0.0961
   17SAPC   H3R 2174   2.484  -0.120  10.216  1.4356  1.4361 -0.3107
   17SAPC   H3S 2175   2.511   0.016  10.098  0.4706 -0.4629 -0.7819
   17SAPC   C24 2176   2.456  -0.168  10.003 -0.0927  0.4010  0.1703
   17SAPC   H4R 2177   2.358  -0.221   9.996 -0.0798  0.0456  2.2121
   17SAPC   H4S 2178   2.533  -0.247  10.015 -1.6451 -1.7129 -2.3549
   17SAPC   C25 2179   2.487  -0.109   9.871 -0.3817  0.2692  0.5445
   17SAPC   H5R 2180   2.581  -0.052   9.872  0.3477 -0.8809  0.0460
   17SAPC   C26 2181   2.427  -0.106   9.743 -0.5330 -0.0803 -0.3446
   17SAPC   H6R 2182   2.483  -0.055   9.664  1.0515 -3.5652 -1.7118
   17SAPC   C27 2183   2.294  -0.165   9.704 -0.1455  0.8579 -0.3065
   17SAPC   H7R 2184   2.221  -0.081   9.703  3.0104  3.9112  2.5535
   17SAPC   H7S 2185   2.270  -0.235   9.786  0.6486  0.4264 -0.4341
   17SAPC   C28 2186   2.316  -0.252   9.585  0.2163  0.0884 -0.4491
   17SAPC   H8R 2187   2.401  -0.322   9.590  0.3805  0.3462  0.5039
   17SAPC   C29 2188   2.238  -0.243   9.477 -0.1845  0.2918 -0.3351
   17SAPC   H9R 2189   2.263  -0.304   9.389 -1.9171 -0.6259 -0.2329
   17SAPC  C210 2190   2.120  -0.152   9.449  0.5808  0.0879 -0.2335
   17SAPC  H10R 2191   2.128  -0.107   9.348  0.2296  2.5134  0.7487
   17SAPC  H10S 2192   2.117  -0.070   9.524  1.4105 -1.6719  1.8500
   17SAPC  C211 2193   1.991  -0.227   9.448  0.2257  0.6903 -0.3938
   17SAPC  H11R 2194   1.977  -0.317   9.510 -0.3695  1.1358  0.1352
   17SAPC  C212 2195   1.870  -0.183   9.404  0.1414 -0.3185  0.6103
   17SAPC  H12R 2196   1.783  -0.250   9.399  0.7626 -1.0761 -0.4430
   17SAPC  C213 2197   1.833  -0.047   9.342  0.0297  0.1064 -0.1032
   17SAPC  H13R 2198   1.923   0.017   9.330  1.0507 -0.9488  1.5863
   17SAPC  H13S 2199   1.764   0.005   9.413  0.2458  2.8376 -1.7585
   17SAPC  C214 2200   1.753  -0.052   9.210 -0.3862  0.5239 -0.1142
   17SAPC  H14R 2201   1.664   0.013   9.207 -0.1137  0.9015 -0.0210
   17SAPC  C215 2202   1.769  -0.128   9.097  0.4842  0.2573 -0.3115
   17SAPC  H15R 2203   1.696  -0.124   9.015  2.9169 -0.8312 -2.6814
   17SAPC  C216 2204   1.871  -0.230   9.076 -0.1479  0.2007 -0.0964
   17SAPC  H16R 2205   1.832  -0.326   9.036 -0.9561 -0.1505  1.4631
   17SAPC  H16S 2206   1.941  -0.248   9.161  0.7707  0.6690 -0.7363
   17SAPC  C217 2207   1.964  -0.178   8.959 -0.3766 -0.6382  0.5533
   17SAPC  H17R 2208   1.899  -0.135   8.880 -0.2013 -2.3821 -0.6015
   17SAPC  H17S 2209   2.018  -0.265   8.915 -0.4615  0.1792 -1.2608
   17SAPC  C218 2210   2.081  -0.082   9.012 -0.2109  0.0166 -0.1178
   17SAPC  H18R 2211   2.038  -0.021   9.094 -0.7029 -0.2183 -0.1968
   17SAPC  H18S 2212   2.119  -0.011   8.935  1.3250  1.2921  1.7321
   17SAPC  C219 2213   2.215  -0.153   9.054  0.5584  0.5921 -0.4313
   17SAPC  H19R 2214   2.255  -0.200   8.961  0.8417  0.8505 -0.4413
   17SAPC  H19S 2215   2.179  -0.225   9.130 -0.7763  2.5531  0.8798
   17SAPC  C220 2216   2.323  -0.066   9.117  0.2446 -0.5817  0.1939
   17SAPC  H20R 2217   2.379  -0.129   9.189  1.8277 -0.0630 -0.5474
   17SAPC  H20S 2218   2.270   0.011   9.178 -1.6137 -1.5541 -0.1202
   17SAPC  H20T 2219   2.392  -0.030   9.038 -1.0385 -0.2416 -0.8194
   17SAPC   C33 2220   2.379   0.333   9.723 -0.8711  0.5224  0.3784
   17SAPC   H3X 2221   2.407   0.227   9.741  1.8357  1.2074  0.5824
   17SAPC   H3Y 2222   2.430   0.381   9.637 -2.1210  0.1311 -0.6209
   17SAPC   C34 2223   2.239   0.329   9.670  0.6117 -0.7610 -0.3950
   17SAPC   H4X 2224   2.214   0.429   9.630 -1.1259 -0.3221  1.6333
   17SAPC   H4Y 2225   2.162   0.303   9.745  1.0969 -0.4709  0.2104
   17SAPC   C35 2226   2.212   0.224   9.552 -0.5829 -0.5661 -0.6649
   17SAPC   H5X 2227   2.180   0.128   9.598 -1.1356  1.0466  2.5641
   17SAPC   H5Y 2228   2.307   0.222   9.495 -0.1647  0.9245 -0.0672
   17SAPC   C36 2229   2.103   0.281   9.464 -0.7151  0.0588  0.2659
   17SAPC   H6X 2230   2.088   0.197   9.393 -2.3769  0.8811 -0.4052
   17SAPC   H6Y 2231   2.140   0.375   9.417 -3.3343  1.3767  0.6639
   17SAPC   C37 2232   1.968   0.297   9.533  0.0426 -0.0609 -0.2210
   17SAPC   H7X 2233   1.972   0.393   9.590  2.7947  0.5390 -1.2293
   17SAPC   H7Y 2234   1.949   0.206   9.594  0.0954  0.9084  1.2978
   17SAPC   C38 2235   1.855   0.314   9.432  0.3516  0.0305  0.5821
   17SAPC   H8X 2236   1.848   0.228   9.362  1.7253 -1.8269  2.6037
   17SAPC   H8Y 2237   1.865   0.406   9.370 -1.2516 -1.2459 -1.7383
   17SAPC   C39 2238   1.723   0.313   9.499  0.2471 -0.1615  0.2685
   17SAPC   H9X 2239   1.722   0.382   9.586 -3.2053 -1.4592  1.4589
   17SAPC   H9Y 2240   1.680   0.219   9.542  0.5016 -0.3572  0.0946
   17SAPC  C310 2241   1.606   0.374   9.411 -0.0320  0.1228  0.2924
   17SAPC  H10X 2242   1.618   0.345   9.305 -2.2716  0.0537  0.0174
   17SAPC  H10Y 2243   1.619   0.485   9.416  1.2282 -0.0470  1.4890
   17SAPC  C311 2244   1.463   0.340   9.463  0.7937 -0.7200  0.2566
   17SAPC  H11X 2245   1.452   0.383   9.565 -0.7638 -0.9553  0.2154
   17SAPC  H11Y 2246   1.459   0.230   9.475 -2.1702 -0.5243  2.3040
   17SAPC  C312 2247   1.351   0.396   9.379 -0.0191  0.2109  0.3146
   17SAPC  H12X 2248   1.353   0.507   9.384  1.1997  0.1869  0.6178
   17SAPC  H12Y 2249   1.252   0.364   9.418 -0.6869  2.8885  1.0129
   17SAPC  C313 2250   1.353   0.350   9.238 -0.3909  0.3113 -0.0359
   17SAPC  H13X 2251   1.372   0.242   9.219 -1.1490  0.3289 -0.9670
   17SAPC  H13Y 2252   1.433   0.406   9.187 -0.3046  0.3158  0.1033
   17SAPC  C314 2253   1.222   0.355   9.163  0.8400 -0.3674  0.4597
   17SAPC  H14X 2254   1.192   0.462   9.170 -0.0286 -0.6017  0.4229
   17SAPC  H14Y 2255   1.143   0.293   9.210 -1.9538 -0.1259 -3.4367
   17SAPC  C315 2256   1.235   0.318   9.013  0.1098 -0.2183  0.1372
   17SAPC  H15X 2257   1.128   0.329   8.982  0.3868  0.1175 -0.7243
   17SAPC  H15Y 2258   1.278   0.217   9.002  2.5350  0.8559 -0.9539
   17SAPC  C316 2259   1.320   0.417   8.929  0.7730  0.4613  0.1183
   17SAPC  H16X 2260   1.426   0.440   8.956  0.9544  1.0391 -1.0032
   17SAPC  H16Y 2261   1.260   0.507   8.951 -2.2274 -1.3837 -0.0010
   17SAPC  C317 2262   1.311   0.364   8.782  0.3984 -0.6045  0.5864
   17SAPC  H17X 2263   1.203   0.377   8.758  0.2546 -2.0370  0.3573
   17SAPC  H17Y 2264   1.347   0.260   8.768  0.8396 -0.5012  0.9162
   17SAPC  C318 2265   1.392   0.440   8.673  0.0190 -0.0913  0.8810
   17SAPC  H18X 2266   1.349   0.543   8.668  1.2856  0.4634  1.1992
   17SAPC  H18Y 2267   1.499   0.433   8.702  1.0127 -0.1451 -2.3957
   17SAPC  H18Z 2268   1.383   0.394   8.572  1.3334  0.1401  0.6485
   18SAPC     N 2269   2.263   6.603  10.589 -0.1959 -0.2803  0.4233
   18SAPC   C12 2270   2.134   6.541  10.646  0.6045 -0.7536 -0.0494
   18SAPC  H12A 2271   2.155   6.446  10.692  1.2234 -0.8986 -0.6147
   18SAPC  H12B 2272   2.067   6.532  10.562  1.2311 -1.6139 -0.4665
   18SAPC   C13 2273   2.242   6.746  10.551  0.1293 -0.0997  0.8342
   18SAPC  H13A 2274   2.331   6.790  10.509 -0.2924 -2.7206 -3.4180
   18SAPC  H13B 2275   2.172   6.748  10.469  2.7381 -0.4086 -1.5615
   18SAPC  H13C 2276   2.218   6.806  10.637  4.4013  0.3484  1.9580
   18SAPC   C14 2277   2.366   6.588  10.689  0.0946 -0.1611 -0.6961
   18SAPC  H14A 2278   2.389   6.483  10.703 -2.4294 -0.7767 -0.8502
   18SAPC  H14B 2279   2.459   6.641  10.673 -0.5850  0.7000 -1.9586
   18SAPC  H14C 2280   2.332   6.608  10.790  1.8895 -1.7145  0.2855
   18SAPC   C15 2281   2.307   6.532  10.467 -0.0039 -0.0929  0.7428
   18SAPC  H15A 2282   2.340   6.431  10.486 -0.2266 -1.0669 -3.1266
   18SAPC  H15B 2283   2.220   6.528  10.403  0.8093 -0.2285 -0.3876
   18SAPC  H15C 2284   2.396   6.576  10.423 -0.7904 -1.2395 -2.2632
   18SAPC   C11 2285   2.070   6.605  10.776  0.8553 -0.5438  0.8719
   18SAPC  H11A 2286   2.140   6.590  10.862  0.5467 -2.7092  0.7939
   18SAPC  H11B 2287   1.985   6.540  10.805  0.1247 -0.2914 -0.6391
   18SAPC     P 2288   1.893   6.778  10.689  0.4059 -0.1573  0.2265
   18SAPC   O13 2289   1.769   6.757  10.773 -0.5381 -0.0105 -0.5078
   18SAPC   O14 2290   1.909   6.911  10.628 -0.7172  0.0404 -0.0165
   18SAPC   O12 2291   2.021   6.740  10.771 -0.2800  0.7005  0.3113
   18SAPC   O11 2292   1.887   6.657  10.581  0.2395 -0.3745  0.0508
   18SAPC    C1 2293   1.778   6.573  10.565  0.2270  0.1329 -0.3308
   18SAPC    HA 2294   1.766   6.509  10.655 -2.0114 -0.3113 -0.9024
   18SAPC    HB 2295   1.683   6.630  10.567 -0.4882 -1.0156 -0.4727
   18SAPC    C2 2296   1.788   6.498  10.431 -0.7098  0.5755 -0.1881
   18SAPC    HS 2297   1.883   6.442  10.439  1.8329  4.5389  0.7085
   18SAPC   O21 2298   1.794   6.595  10.323  0.0910  0.1719 -0.2851
   18SAPC   C21 2299   1.916   6.632  10.284  0.1891  0.1278 -0.5877
   18SAPC   O22 2300   2.017   6.585  10.327  0.0606 -0.4838 -0.4132
   18SAPC   C22 2301   1.909   6.732  10.163  0.1003 -0.0183  0.3252
   18SAPC   H2R 2302   1.822   6.797  10.186  0.7055  1.6840 -1.9736
   18SAPC   H2S 2303   1.995   6.801  10.156 -0.9858  1.4491  0.9300
   18SAPC    C3 2304   1.669   6.400  10.413  0.6697  0.1338  0.1537
   18SAPC    HX 2305   1.579   6.461  10.438  1.5356  1.7519 -0.5738
   18SAPC    HY 2306   1.658   6.310  10.477  0.2063  0.5293  0.6400
   18SAPC   O31 2307   1.649   6.367  10.267 -0.4618 -0.0136 -0.1355
   18SAPC   C31 2308   1.708   6.254  10.241  0.5586 -0.0873  0.1726
   18SAPC   O32 2309   1.783   6.194  10.317  0.6340  0.1591  0.5263
   18SAPC   C32 2310   1.695   6.220  10.093  0.0402  0.2937 -0.5745
   18SAPC   H2X 2311   1.631   6.129  10.084 -0.1835  0.2938  0.7614
   18SAPC   H2Y 2312   1.789   6.173  10.056 -0.3706 -0.2046 -1.0105
   18SAPC   C23 2313   1.908   6.645  10.032 -0.3089 -0.0577 -0.1614
   18SAPC   H3R 2314   1.847   6.555  10.053  0.8153 -1.2190 -1.5889
   18SAPC   H3S 2315   2.014   6.617  10.013 -0.1841 -0.6954  1.3539
   18SAPC   C24 2316   1.871   6.727   9.908  0.8265  0.1616  0.1023
   18SAPC   H4R 2317   1.763   6.745   9.925  0.9779  0.2316  1.0693
   18SAPC   H4S 2318   1.884   6.663   9.818  2.7490 -1.6770  1.5531
   18SAPC   C25 2319   1.952   6.853   9.895  0.2409 -0.4795 -0.1828
   18SAPC   H5R 2320   2.061   6.842   9.897  0.4322  1.1228  2.1962
   18SAPC   C26 2321   1.911   6.981   9.883 -0.7669  0.1151 -0.0861
   18SAPC   H6R 2322   1.993   7.054   9.881 -0.8670  0.2421  0.4935
   18SAPC   C27 2323   1.770   7.022   9.882 -0.6657  0.0733  0.0442
   18SAPC   H7R 2324   1.723   6.994   9.978  0.1891 -2.3909 -0.1849
   18SAPC   H7S 2325   1.721   6.958   9.805  0.3578 -1.5396  0.7015
   18SAPC   C28 2326   1.754   7.170   9.857 -0.0071 -0.2746 -0.4531
   18SAPC   H8R 2327   1.850   7.223   9.848  0.4789 -0.9820  0.3890
   18SAPC   C29 2328   1.637   7.235   9.854  0.4561 -0.7113 -0.2012
   18SAPC   H9R 2329   1.634   7.344   9.841 -0.4470 -1.0063 -3.7331
   18SAPC  C210 2330   1.498   7.183   9.857 -0.7254 -0.0479  0.1891
   18SAPC  H10R 2331   1.494   7.082   9.811 -1.1271  0.1714 -0.2652
   18SAPC  H10S 2332   1.442   7.229   9.773 -0.3346 -0.9049 -0.5515
   18SAPC  C211 2333   1.426   7.174   9.986  0.3722 -0.3825  0.1934
   18SAPC  H11R 2334   1.486   7.138  10.070  2.8806  1.4159 -0.7026
   18SAPC  C212 2335   1.297   7.215  10.003 -0.5672  0.2762  0.0110
   18SAPC  H12R 2336   1.247   7.202  10.100 -0.5259  1.7851  0.2620
   18SAPC  C213 2337   1.206   7.281   9.903  0.3870  0.8312  0.3812
   18SAPC  H13R 2338   1.162   7.206   9.834  0.1315  0.6672  0.7172
   18SAPC  H13S 2339   1.279   7.325   9.832  1.5864 -2.5581 -0.6734
   18SAPC  C214 2340   1.110   7.387   9.942  0.4641  0.4182  0.4940
   18SAPC  H14R 2341   1.117   7.427  10.044  1.1680  2.9145 -0.4609
   18SAPC  C215 2342   1.029   7.453   9.850  0.0698 -0.1291  0.0631
   18SAPC  H15R 2343   0.962   7.535   9.880  0.0364 -0.3102  0.4928
   18SAPC  C216 2344   1.027   7.424   9.701 -0.4668  0.1736  0.7378
   18SAPC  H16R 2345   0.923   7.391   9.676  0.0251 -0.4872 -0.5498
   18SAPC  H16S 2346   1.099   7.350   9.660 -1.6464  0.3290 -1.8318
   18SAPC  C217 2347   1.042   7.546   9.620 -0.4341 -0.7595  0.7577
   18SAPC  H17R 2348   1.125   7.611   9.655 -1.7795  2.6296 -1.8292
   18SAPC  H17S 2349   0.945   7.600   9.625 -0.7626 -1.2064 -0.5262
   18SAPC  C218 2350   1.071   7.505   9.469  0.4366 -0.0651 -0.0241
   18SAPC  H18R 2351   0.998   7.426   9.442  0.3983 -0.4311  1.1155
   18SAPC  H18S 2352   1.169   7.454   9.459  0.4334  0.2918 -2.2820
   18SAPC  C219 2353   1.057   7.612   9.351  0.0627 -1.2153  0.4225
   18SAPC  H19R 2354   1.128   7.696   9.369 -0.6833  0.0115 -1.9004
   18SAPC  H19S 2355   0.957   7.661   9.357  0.9703  0.8964 -0.5594
   18SAPC  C220 2356   1.080   7.569   9.209  0.4840  0.1338  0.4420
   18SAPC  H20R 2357   1.016   7.481   9.184 -2.0339  1.7486  0.8711
   18SAPC  H20S 2358   1.183   7.533   9.192  0.0767 -0.4959 -0.8579
   18SAPC  H20T 2359   1.070   7.646   9.130 -0.7128 -1.9984 -1.6229
   18SAPC   C33 2360   1.646   6.329  10.015 -0.5201  0.0641 -0.1249
   18SAPC   H3X 2361   1.716   6.413  10.034 -0.9149  0.3370  0.1334
   18SAPC   H3Y 2362   1.550   6.378  10.039 -1.1708 -1.0462 -0.3511
   18SAPC   C34 2363   1.655   6.307   9.861  0.6128  0.5255  0.2044
   18SAPC   H4X 2364   1.607   6.214   9.822  1.8799  0.4022 -1.1329
   18SAPC   H4Y 2365   1.762   6.284   9.842 -0.0791 -2.5721 -0.6001
   18SAPC   C35 2366   1.611   6.429   9.769 -0.0873 -0.1340 -0.3362
   18SAPC   H5X 2367   1.673   6.508   9.816  0.8110 -0.8286 -0.3228
   18SAPC   H5Y 2368   1.501   6.436   9.785  0.3246  0.0004  3.2328
   18SAPC   C36 2369   1.652   6.424   9.629 -0.4123 -0.2596  0.5230
   18SAPC   H6X 2370   1.758   6.449   9.606 -1.2496  3.1777 -0.0344
   18SAPC   H6Y 2371   1.603   6.517   9.593 -0.6770  0.0183  1.5746
   18SAPC   C37 2372   1.597   6.304   9.551  0.5046  0.1142  0.2249
   18SAPC   H7X 2373   1.486   6.299   9.560  0.0924  0.2083 -3.4861
   18SAPC   H7Y 2374   1.625   6.204   9.592  0.6679 -0.0283 -0.2331
   18SAPC   C38 2375   1.620   6.314   9.399 -0.4479 -0.4609  0.8004
   18SAPC   H8X 2376   1.729   6.328   9.385 -0.6440 -0.1138 -0.4831
   18SAPC   H8Y 2377   1.588   6.412   9.357  0.2931  0.5419  2.4943
   18SAPC   C39 2378   1.558   6.198   9.319  0.2615  0.0070  0.3460
   18SAPC   H9X 2379   1.448   6.201   9.333  0.1246  1.0498 -0.7992
   18SAPC   H9Y 2380   1.585   6.098   9.361  0.5918 -0.6205 -1.2767
   18SAPC  C310 2381   1.602   6.181   9.172 -0.4194  0.4994  0.5783
   18SAPC  H10X 2382   1.556   6.084   9.142  2.0366 -0.4868 -0.2516
   18SAPC  H10Y 2383   1.712   6.167   9.167 -0.1840  1.4105  2.5239
   18SAPC  C311 2384   1.531   6.297   9.088 -0.1393 -0.1569  0.6073
   18SAPC  H11X 2385   1.567   6.397   9.121 -2.1459  1.1961 -1.0855
   18SAPC  H11Y 2386   1.425   6.300   9.120 -0.1879  1.4910  0.3928
   18SAPC  C312 2387   1.541   6.268   8.932  0.4324 -0.2283 -0.2627
   18SAPC  H12X 2388   1.469   6.341   8.890 -1.1923 -2.2029 -1.0488
   18SAPC  H12Y 2389   1.497   6.172   8.898 -2.5110  1.1248 -0.6020
   18SAPC  C313 2390   1.679   6.278   8.869 -0.2321 -0.1980  0.3524
   18SAPC  H13X 2391   1.747   6.217   8.933 -1.6940 -2.6870 -0.3368
   18SAPC  H13Y 2392   1.700   6.387   8.877 -1.8175  0.2537 -1.0447
   18SAPC  C314 2393   1.706   6.231   8.722 -0.0081 -0.2474  0.2320
   18SAPC  H14X 2394   1.666   6.128   8.710  1.6585 -0.7669 -1.0849
   18SAPC  H14Y 2395   1.816   6.227   8.710 -0.2212 -0.7183 -1.9065
   18SAPC  C315 2396   1.631   6.321   8.624 -0.6480 -0.0969  0.3535
   18SAPC  H15X 2397   1.660   6.426   8.640 -0.1486 -0.1625 -0.0896
   18SAPC  H15Y 2398   1.522   6.325   8.644 -0.7615  0.1510 -0.2920
   18SAPC  C316 2399   1.663   6.264   8.484 -0.1288 -0.6958  0.4314
   18SAPC  H16X 2400   1.616   6.164   8.479 -0.8389 -0.2981 -1.5400
   18SAPC  H16Y 2401   1.772   6.258   8.464 -0.0275  4.1436 -2.0585
   18SAPC  C317 2402   1.618   6.367   8.375  0.1120  0.5180 -0.3926
   18SAPC  H17X 2403   1.675   6.462   8.384 -0.5313  0.7820  1.2540
   18SAPC  H17Y 2404   1.512   6.393   8.400  0.5198  0.7965  1.1389
   18SAPC  C318 2405   1.642   6.296   8.243  0.0374 -0.0135 -0.3722
   18SAPC  H18X 2406   1.747   6.315   8.213  0.3407 -0.9049  0.1054
   18SAPC  H18Y 2407   1.575   6.345   8.168 -0.5728  1.2493  0.9533
   18SAPC  H18Z 2408   1.632   6.186   8.250  0.9471  0.0154  2.4410
   19SAPC     N 2409   4.344   3.383  10.831  0.2468  0.0667  0.5182
   19SAPC   C12 2410   4.412   3.404  10.697 -0.6069  0.1682 -0.4964
   19SAPC  H12A 2411   4.434   3.303  10.669 -2.4333 -0.3203 -0.3136
   19SAPC  H12B 2412   4.513   3.441  10.707 -0.3393 -0.9843  1.7129
   19SAPC   C13 2413   4.287   3.501  10.887  0.0633 -1.1690 -0.1337
   19SAPC  H13A 2414   4.353   3.575  10.928 -1.3916  0.0997  0.0299
   19SAPC  H13B 2415   4.226   3.553  10.815 -1.6283  0.1066  2.0641
   19SAPC  H13C 2416   4.212   3.471  10.959  1.2089 -1.7133  0.8677
   19SAPC   C14 2417   4.228   3.287  10.813 -0.7287 -0.7074  0.0259
   19SAPC  H14A 2418   4.261   3.189  10.782  1.7565  0.1585 -0.3679
   19SAPC  H14B 2419   4.191   3.270  10.913  1.5119  1.0048  1.2501
   19SAPC  H14C 2420   4.155   3.317  10.739  0.8494  0.5694 -1.1008
   19SAPC   C15 2421   4.434   3.326  10.934  0.1658 -0.3431  0.1096
   19SAPC  H15A 2422   4.441   3.218  10.927  1.2378 -0.2824  0.1570
   19SAPC  H15B 2423   4.523   3.386  10.941 -1.2060  2.1782 -2.2853
   19SAPC  H15C 2424   4.386   3.327  11.031 -1.9634  0.4750 -0.8973
   19SAPC   C11 2425   4.329   3.451  10.572  0.0588  0.0765 -0.2188
   19SAPC  H11A 2426   4.254   3.375  10.542 -0.4380  1.0691 -1.6002
   19SAPC  H11B 2427   4.401   3.459  10.488  0.9298  0.3606  0.5298
   19SAPC     P 2428   4.138   3.623  10.497 -0.2186  0.0199 -0.4575
   19SAPC   O13 2429   4.029   3.528  10.500 -0.2295  0.0723  0.3320
   19SAPC   O14 2430   4.113   3.761  10.542  0.1723 -0.5484 -0.4740
   19SAPC   O12 2431   4.269   3.575  10.586 -0.1280  0.3328  0.0271
   19SAPC   O11 2432   4.202   3.620  10.351  0.1233 -0.2022  0.0770
   19SAPC    C1 2433   4.323   3.693  10.329 -1.0119 -0.3933  0.0331
   19SAPC    HA 2434   4.337   3.785  10.390  3.1813 -1.9537  1.7516
   19SAPC    HB 2435   4.410   3.634  10.364 -2.3491 -1.4596  1.6822
   19SAPC    C2 2436   4.339   3.732  10.175 -0.1787  0.1817  0.7668
   19SAPC    HS 2437   4.442   3.764  10.148 -0.3557 -0.7907 -1.3281
   19SAPC   O21 2438   4.234   3.814  10.133  0.0235 -0.4870 -0.0131
   19SAPC   C21 2439   4.237   3.945  10.173 -0.0727  0.3980  0.5113
   19SAPC   O22 2440   4.326   3.992  10.240 -0.3244 -0.4848 -0.4090
   19SAPC   C22 2441   4.111   4.016  10.127  0.1109 -0.0489  0.0713
   19SAPC   H2R 2442   4.097   4.003  10.018  1.2161  0.5300 -0.1519
   19SAPC   H2S 2443   4.039   3.968  10.196 -0.0166  1.6548  1.1926
   19SAPC    C3 2444   4.329   3.598  10.087 -1.1285  0.0303 -0.3488
   19SAPC    HX 2445   4.230   3.553  10.109 -1.3735 -0.4408 -2.2571
   19SAPC    HY 2446   4.401   3.523  10.127 -1.9912  0.4105  2.1225
   19SAPC   O31 2447   4.344   3.625   9.938  0.1741 -0.7156  1.0053
   19SAPC   C31 2448   4.290   3.529   9.864 -0.3607 -0.0149 -0.2311
   19SAPC   O32 2449   4.236   3.427   9.903  0.1168 -0.6838 -0.5091
   19SAPC   C32 2450   4.301   3.563   9.713 -0.6625 -0.2412 -0.7157
   19SAPC   H2X 2451   4.402   3.546   9.672  0.7468  1.1789  1.9078
   19SAPC   H2Y 2452   4.279   3.671   9.700  0.2320 -0.2514 -2.6727
   19SAPC   C23 2453   4.108   4.165  10.165  0.3962 -0.8762 -0.6471
   19SAPC   H3R 2454   4.156   4.179  10.264  1.4553 -1.3368 -1.0875
   19SAPC   H3S 2455   3.998   4.181  10.175  0.2999 -1.4989 -0.6270
   19SAPC   C24 2456   4.174   4.256  10.063  0.5665 -0.1686  0.1303
   19SAPC   H4R 2457   4.130   4.244   9.962  0.9518 -0.5345  0.0042
   19SAPC   H4S 2458   4.281   4.229  10.075  0.1285 -2.1162  0.0758
   19SAPC   C25 2459   4.157   4.404  10.094  1.0155  0.0888  0.8938
   19SAPC   H5R 2460   4.126   4.426  10.197  0.4070 -0.7857  0.8995
   19SAPC   C26 2461   4.142   4.501   9.996  0.4006 -0.8519 -0.0471
   19SAPC   H6R 2462   4.139   4.604  10.034  0.8248 -0.4015 -1.1976
   19SAPC   C27 2463   4.158   4.489   9.849 -0.6328  0.3415  0.4980
   19SAPC   H7R 2464   4.064   4.532   9.811 -0.3977 -0.3284 -0.9059
   19SAPC   H7S 2465   4.172   4.386   9.809  0.1650 -0.4241  2.5950
   19SAPC   C28 2466   4.268   4.579   9.795  0.0255  0.1260 -0.7897
   19SAPC   H8R 2467   4.369   4.542   9.819 -0.0541 -0.5865 -1.5151
   19SAPC   C29 2468   4.257   4.698   9.740 -0.7910  0.6634 -1.1546
   19SAPC   H9R 2469   4.344   4.748   9.696  0.8327  0.0297  1.1700
   19SAPC  C210 2470   4.118   4.754   9.699 -0.1432  0.8131  0.3200
   19SAPC  H10R 2471   4.051   4.763   9.787 -0.7915 -0.7393  0.0241
   19SAPC  H10S 2472   4.066   4.682   9.632 -1.5670  2.6802 -0.6545
   19SAPC  C211 2473   4.134   4.888   9.626  0.3329  0.9557 -0.0774
   19SAPC  H11R 2474   4.081   4.975   9.667 -0.9988 -0.6972  1.8944
   19SAPC  C212 2475   4.189   4.908   9.504  0.7379  0.0242 -0.4127
   19SAPC  H12R 2476   4.197   5.008   9.458 -0.8645 -0.1466 -1.1114
   19SAPC  C213 2477   4.261   4.803   9.413 -0.9398 -0.1088  0.1967
   19SAPC  H13R 2478   4.188   4.760   9.340  1.7343  0.1679 -2.8594
   19SAPC  H13S 2479   4.297   4.721   9.478 -1.6023  0.1157  0.8551
   19SAPC  C214 2480   4.378   4.849   9.327  0.3825  0.5091  0.2835
   19SAPC  H14R 2481   4.473   4.869   9.378 -0.0486  1.0193  0.9033
   19SAPC  C215 2482   4.377   4.877   9.191  0.5365  0.5807  0.2528
   19SAPC  H15R 2483   4.474   4.887   9.139 -0.5411  0.7991 -1.8257
   19SAPC  C216 2484   4.274   4.869   9.089  0.0949  0.1372  1.2157
   19SAPC  H16R 2485   4.166   4.874   9.117 -0.0834  0.8728  0.4412
   19SAPC  H16S 2486   4.286   4.776   9.029 -0.7418  0.2692  0.8219
   19SAPC  C217 2487   4.289   4.988   8.990  0.4040  0.3337 -0.8865
   19SAPC  H17R 2488   4.202   4.972   8.922  0.6049  0.5396 -1.1975
   19SAPC  H17S 2489   4.373   4.971   8.919 -0.3371  0.1240 -1.7381
   19SAPC  C218 2490   4.306   5.125   9.048 -0.7136  0.1607 -0.7363
   19SAPC  H18R 2491   4.400   5.130   9.107 -0.8698 -1.5165 -0.2656
   19SAPC  H18S 2492   4.225   5.134   9.124 -0.0059 -1.7481  0.3277
   19SAPC  C219 2493   4.325   5.234   8.946 -0.3587  0.0235  0.5017
   19SAPC  H19R 2494   4.413   5.209   8.883 -0.4758 -0.4608  0.5325
   19SAPC  H19S 2495   4.340   5.339   8.982  0.1198  0.6427 -1.3904
   19SAPC  C220 2496   4.208   5.249   8.852  1.2871 -0.2534  0.5320
   19SAPC  H20R 2497   4.208   5.175   8.770  0.2913  1.3934 -1.0320
   19SAPC  H20S 2498   4.217   5.343   8.794  2.5585 -1.6718 -1.6870
   19SAPC  H20T 2499   4.113   5.255   8.911  0.7343  0.5960 -0.4096
   19SAPC   C33 2500   4.207   3.478   9.619  0.4632 -0.7093  0.3221
   19SAPC   H3X 2501   4.109   3.460   9.668  1.6587 -0.9067  2.8284
   19SAPC   H3Y 2502   4.252   3.377   9.606 -0.3668 -1.0174 -0.2572
   19SAPC   C34 2503   4.183   3.525   9.478  0.4736 -0.4445 -0.1779
   19SAPC   H4X 2504   4.276   3.501   9.421 -0.2978  0.5048 -1.9306
   19SAPC   H4Y 2505   4.174   3.636   9.476  3.4984 -0.0740  1.3190
   19SAPC   C35 2506   4.071   3.455   9.395 -0.2514  0.5569 -1.0127
   19SAPC   H5X 2507   3.983   3.444   9.462 -0.5190  1.3569 -1.2233
   19SAPC   H5Y 2508   4.112   3.357   9.363 -0.6046 -0.3644  1.1516
   19SAPC   C36 2509   4.036   3.530   9.268  0.2953  0.3175 -0.3913
   19SAPC   H6X 2510   4.023   3.637   9.295 -1.1163  0.5273 -1.7249
   19SAPC   H6Y 2511   3.940   3.491   9.228  0.0166  1.3406 -0.7658
   19SAPC   C37 2512   4.136   3.515   9.151  0.2043 -0.3662 -0.1473
   19SAPC   H7X 2513   4.161   3.408   9.133 -1.4966 -0.8606  0.2785
   19SAPC   H7Y 2514   4.233   3.566   9.174  1.3628 -1.8867 -1.4772
   19SAPC   C38 2515   4.073   3.580   9.026 -0.0947 -0.9096 -0.4917
   19SAPC   H8X 2516   4.058   3.689   9.040  1.5815 -0.7569  0.3354
   19SAPC   H8Y 2517   3.976   3.527   9.011 -0.6631 -0.1053  0.2211
   19SAPC   C39 2518   4.152   3.556   8.898 -0.6521  0.0537  0.0862
   19SAPC   H9X 2519   4.155   3.445   8.888 -1.2665 -0.3401  3.2342
   19SAPC   H9Y 2520   4.252   3.592   8.927 -0.3724 -1.6283  1.3639
   19SAPC  C310 2521   4.086   3.626   8.779 -0.3730  0.2970  0.3024
   19SAPC  H10X 2522   4.077   3.734   8.804  0.8031 -0.1260  2.8378
   19SAPC  H10Y 2523   3.983   3.587   8.763 -1.6116  2.8327  1.4597
   19SAPC  C311 2524   4.173   3.613   8.648  1.0149 -0.6457  0.2503
   19SAPC  H11X 2525   4.226   3.516   8.632 -2.6901 -2.7004 -0.8681
   19SAPC  H11Y 2526   4.248   3.694   8.653 -0.0167  0.3356  0.1191
   19SAPC  C312 2527   4.098   3.641   8.514  0.4838  0.3149  0.5323
   19SAPC  H12X 2528   4.161   3.643   8.423  1.2759 -0.9295  1.0285
   19SAPC  H12Y 2529   4.058   3.744   8.531 -1.2666 -0.0644 -0.9563
   19SAPC  C313 2530   3.975   3.549   8.492  0.5157 -0.1783 -0.3424
   19SAPC  H13X 2531   3.915   3.529   8.584 -0.8231 -2.0389 -1.5351
   19SAPC  H13Y 2532   4.015   3.450   8.460 -0.3316 -1.1214  1.3593
   19SAPC  C314 2533   3.876   3.596   8.383 -0.2859  0.7399 -1.0211
   19SAPC  H14X 2534   3.919   3.581   8.282  0.9311 -0.5578 -0.3362
   19SAPC  H14Y 2535   3.838   3.701   8.382  1.0972  1.3010  0.5535
   19SAPC  C315 2536   3.748   3.513   8.397 -0.5264  0.3812  0.4150
   19SAPC  H15X 2537   3.709   3.554   8.493  1.4630 -0.6783  1.7400
   19SAPC  H15Y 2538   3.782   3.408   8.414  0.4107  0.1319 -2.4823
   19SAPC  C316 2539   3.643   3.544   8.288  0.5671  0.1878 -0.2328
   19SAPC  H16X 2540   3.618   3.652   8.289 -2.7269 -0.4411  1.3989
   19SAPC  H16Y 2541   3.548   3.488   8.306  1.0632 -0.2106  1.3873
   19SAPC  C317 2542   3.676   3.507   8.142 -0.5422 -0.2445 -0.0251
   19SAPC  H17X 2543   3.748   3.578   8.095 -0.2109 -0.5711 -0.0209
   19SAPC  H17Y 2544   3.590   3.525   8.075  0.0119 -1.9480 -1.2521
   19SAPC  C318 2545   3.742   3.371   8.116 -0.4076 -0.5390  0.1420
   19SAPC  H18X 2546   3.671   3.295   8.155 -0.6473  0.4306  1.6874
   19SAPC  H18Y 2547   3.841   3.357   8.163 -0.1969 -1.1277 -0.4637
   19SAPC  H18Z 2548   3.761   3.364   8.006 -0.0069 -0.4976  0.2077
   20SAPC     N 2549   2.892   6.764  10.981 -0.1605 -0.0921  0.5163
   20SAPC   C12 2550   3.013   6.695  11.044 -0.1740 -0.0361  0.0982
   20SAPC  H12A 2551   3.019   6.713  11.151 -0.2762  0.9874 -0.0573
   20SAPC  H12B 2552   3.099   6.754  11.019 -0.0615  1.0355  2.6854
   20SAPC   C13 2553   2.877   6.909  11.028 -0.0512 -0.0462 -0.0326
   20SAPC  H13A 2554   2.965   6.968  11.009  1.1954 -1.5104  0.8886
   20SAPC  H13B 2555   2.788   6.960  10.995 -0.0105  0.9403  1.3058
   20SAPC  H13C 2556   2.859   6.907  11.134 -0.7839  0.3781 -0.1393
   20SAPC   C14 2557   2.907   6.759  10.830  0.4000 -0.3587  0.2272
   20SAPC  H14A 2558   2.835   6.820  10.777  0.9699 -0.9516 -1.3041
   20SAPC  H14B 2559   3.002   6.799  10.798 -0.4749 -0.5184 -3.0010
   20SAPC  H14C 2560   2.903   6.655  10.799  0.5204 -0.6834  1.2841
   20SAPC   C15 2561   2.773   6.692  11.018 -0.2269 -0.7668 -0.1749
   20SAPC  H15A 2562   2.681   6.727  10.974  0.1419 -1.1459 -1.2709
   20SAPC  H15B 2563   2.778   6.586  10.998 -0.6538 -0.8980  0.3745
   20SAPC  H15C 2564   2.753   6.708  11.123 -1.1411 -0.1538 -0.4350
   20SAPC   C11 2565   3.023   6.545  11.025 -0.5231 -0.3442 -0.1788
   20SAPC  H11A 2566   2.927   6.498  11.057 -0.7848  1.4501  1.9552
   20SAPC  H11B 2567   3.107   6.506  11.086  1.1424  0.5464 -1.8175
   20SAPC     P 2568   3.185   6.516  10.818  0.1697 -0.1777 -0.1076
   20SAPC   O13 2569   3.250   6.650  10.826 -0.4610 -0.4936 -0.5990
   20SAPC   O14 2570   3.269   6.404  10.860  0.1772  0.4757 -0.2129
   20SAPC   O12 2571   3.046   6.512  10.892  0.2751 -0.3611 -0.1601
   20SAPC   O11 2572   3.154   6.497  10.664  0.3957  0.7858 -0.4331
   20SAPC    C1 2573   3.044   6.404  10.632  0.1106  0.2275  0.1443
   20SAPC    HA 2574   3.039   6.313  10.695  0.0570  0.1916  0.0879
   20SAPC    HB 2575   2.946   6.454  10.643  0.7622  1.2437  1.5949
   20SAPC    C2 2576   3.052   6.354  10.489 -0.0202 -0.1750  0.2668
   20SAPC    HS 2577   2.966   6.286  10.471  0.2398 -0.5299  0.3479
   20SAPC   O21 2578   3.183   6.287  10.462 -0.2300 -0.0035 -0.7252
   20SAPC   C21 2579   3.172   6.170  10.396 -0.1507 -0.3500 -1.0082
   20SAPC   O22 2580   3.070   6.128  10.347  0.0864  0.0522 -0.0906
   20SAPC   C22 2581   3.310   6.108  10.382 -0.0563  0.7858  0.5012
   20SAPC   H2R 2582   3.393   6.182  10.391 -0.0765  1.0656 -1.2977
   20SAPC   H2S 2583   3.326   6.027  10.457  0.7565 -1.0746 -1.5800
   20SAPC    C3 2584   3.039   6.476  10.399  0.2150  0.1321  0.2940
   20SAPC    HX 2585   3.123   6.541  10.429 -0.4584  1.4920 -0.6920
   20SAPC    HY 2586   2.943   6.524  10.428  0.6274 -0.1192  2.2255
   20SAPC   O31 2587   3.051   6.455  10.256  0.0848  0.3903 -0.2659
   20SAPC   C31 2588   2.943   6.399  10.203  0.5439  0.7900  0.1361
   20SAPC   O32 2589   2.838   6.378  10.268 -0.6193 -0.0419 -0.2867
   20SAPC   C32 2590   2.958   6.371  10.051  0.3051 -0.8995 -0.9562
   20SAPC   H2X 2591   2.988   6.265  10.040 -1.1145 -1.3283 -0.8904
   20SAPC   H2Y 2592   3.025   6.447  10.004 -1.0236  1.6751  1.0588
   20SAPC   C23 2593   3.328   6.043  10.240  0.4025  0.3919 -0.2348
   20SAPC   H3R 2594   3.238   5.983  10.216  1.0827 -0.2158 -1.3967
   20SAPC   H3S 2595   3.401   5.960  10.254  2.9260  1.8560 -3.5349
   20SAPC   C24 2596   3.372   6.139  10.125 -0.4052  0.1642 -0.0536
   20SAPC   H4R 2597   3.301   6.223  10.109 -0.9441 -0.4750 -1.1340
   20SAPC   H4S 2598   3.365   6.075  10.035 -3.6783  0.0513  0.1932
   20SAPC   C25 2599   3.516   6.192  10.130  0.0996 -0.0393  0.1068
   20SAPC   H5R 2600   3.553   6.209  10.232  0.3807 -0.8265  0.1489
   20SAPC   C26 2601   3.591   6.231  10.022 -0.3423 -0.1647 -0.1730
   20SAPC   H6R 2602   3.688   6.281  10.035 -1.3365  1.4017  1.9265
   20SAPC   C27 2603   3.544   6.200   9.881 -0.8636 -0.4035 -0.3587
   20SAPC   H7R 2604   3.504   6.294   9.837  0.7651  0.9086  0.8151
   20SAPC   H7S 2605   3.469   6.120   9.863 -1.9055  0.7590 -1.3772
   20SAPC   C28 2606   3.659   6.172   9.791 -0.4163 -0.7229  1.2736
   20SAPC   H8R 2607   3.753   6.157   9.847  0.0234 -2.0221  0.2690
   20SAPC   C29 2608   3.667   6.167   9.660  0.2174 -0.1682  0.0620
   20SAPC   H9R 2609   3.765   6.157   9.611 -0.8164 -0.7198 -2.0241
   20SAPC  C210 2610   3.553   6.175   9.558  0.7980  0.2561  0.1124
   20SAPC  H10R 2611   3.467   6.217   9.616 -0.5429 -0.3461 -1.3465
   20SAPC  H10S 2612   3.523   6.074   9.521  2.6303  0.2518 -1.4737
   20SAPC  C211 2613   3.603   6.261   9.443  1.1177  0.5103 -0.0110
   20SAPC  H11R 2614   3.637   6.361   9.475  0.6105  0.9737 -0.8882
   20SAPC  C212 2615   3.598   6.234   9.310  1.0162 -0.3805  0.5107
   20SAPC  H12R 2616   3.640   6.303   9.235  0.0684 -0.9956 -0.6311
   20SAPC  C213 2617   3.540   6.108   9.249 -0.5336 -0.3367  0.0108
   20SAPC  H13R 2618   3.482   6.140   9.160 -1.5640  0.9905  1.1202
   20SAPC  H13S 2619   3.453   6.067   9.306 -1.2120  1.2647  0.1726
   20SAPC  C214 2620   3.648   6.007   9.229  0.5296 -0.2081  0.3818
   20SAPC  H14R 2621   3.722   6.007   9.310  2.8110 -0.8776 -1.5685
   20SAPC  C215 2622   3.669   5.944   9.112 -0.1890  0.6044 -0.4033
   20SAPC  H15R 2623   3.754   5.873   9.114  1.7321  2.7840  0.5588
   20SAPC  C216 2624   3.587   5.947   8.985 -0.4464 -0.5959 -0.7485
   20SAPC  H16R 2625   3.643   5.991   8.900  0.0657  2.2158  0.9434
   20SAPC  H16S 2626   3.492   6.004   8.995 -0.6733 -0.6777 -2.2861
   20SAPC  C217 2627   3.542   5.793   8.957 -0.1360 -0.4361  0.5321
   20SAPC  H17R 2628   3.440   5.793   8.914  0.2699  1.5062 -0.5516
   20SAPC  H17S 2629   3.519   5.744   9.054  1.9875  0.2456  1.4344
   20SAPC  C218 2630   3.635   5.700   8.881 -0.1971  0.2326 -0.6431
   20SAPC  H18R 2631   3.591   5.599   8.896 -0.7637  0.8657  2.8667
   20SAPC  H18S 2632   3.738   5.698   8.923 -0.0412 -0.7628 -1.0597
   20SAPC  C219 2633   3.648   5.737   8.734  0.7264  0.5383  0.1753
   20SAPC  H19R 2634   3.673   5.845   8.730 -1.7480  1.1600 -0.5589
   20SAPC  H19S 2635   3.543   5.719   8.701 -0.5710  3.0971  2.4473
   20SAPC  C220 2636   3.745   5.645   8.667  0.4842 -0.1445 -0.1642
   20SAPC  H20R 2637   3.733   5.538   8.694 -1.2950 -0.0396 -0.4230
   20SAPC  H20S 2638   3.849   5.677   8.690  1.0213 -0.5088 -1.9405
   20SAPC  H20T 2639   3.725   5.651   8.558 -1.1848 -0.9329  0.0662
   20SAPC   C33 2640   2.825   6.372   9.979 -0.2402  0.1116  0.0142
   20SAPC   H3X 2641   2.774   6.470   9.971 -0.0813  0.3009  1.1228
   20SAPC   H3Y 2642   2.756   6.303  10.033 -0.9353 -0.3850 -1.4670
   20SAPC   C34 2643   2.833   6.308   9.836 -0.5679  0.2422 -0.1330
   20SAPC   H4X 2644   2.844   6.199   9.853  0.5053  0.2092 -0.9698
   20SAPC   H4Y 2645   2.925   6.350   9.792 -0.1931 -1.4582 -1.0408
   20SAPC   C35 2646   2.708   6.339   9.753 -0.6563 -0.1394  0.0130
   20SAPC   H5X 2647   2.686   6.448   9.761  0.8605  0.3297 -1.6107
   20SAPC   H5Y 2648   2.623   6.289   9.802 -2.1550  2.7152  0.5599
   20SAPC   C36 2649   2.724   6.312   9.605 -0.1565  0.2720  0.3407
   20SAPC   H6X 2650   2.726   6.203   9.584 -0.4463  0.3240  0.0291
   20SAPC   H6Y 2651   2.815   6.355   9.559 -1.1794 -0.4339 -2.5805
   20SAPC   C37 2652   2.612   6.367   9.523  0.5543 -0.4509 -0.5008
   20SAPC   H7X 2653   2.594   6.473   9.549 -1.1112 -0.6074 -0.9159
   20SAPC   H7Y 2654   2.522   6.306   9.550 -0.0519  0.8980  0.6138
   20SAPC   C38 2655   2.640   6.341   9.378 -0.1577 -0.0625 -0.1134
   20SAPC   H8X 2656   2.664   6.234   9.368 -0.8752 -0.1002 -1.8537
   20SAPC   H8Y 2657   2.722   6.401   9.333 -2.1100  3.5450  0.7333
   20SAPC   C39 2658   2.528   6.374   9.286 -1.6097  0.1808 -0.4691
   20SAPC   H9X 2659   2.479   6.469   9.317 -1.5062  0.7743 -2.0171
   20SAPC   H9Y 2660   2.444   6.302   9.295 -0.9565 -0.4854  0.3543
   20SAPC  C310 2661   2.574   6.392   9.138  0.5292  0.0660  0.0770
   20SAPC  H10X 2662   2.664   6.456   9.138  2.7699 -2.8204  2.0976
   20SAPC  H10Y 2663   2.485   6.426   9.081  1.8753  2.3257 -0.7806
   20SAPC  C311 2664   2.604   6.246   9.086 -0.6466 -0.4017  0.4499
   20SAPC  H11X 2665   2.514   6.187   9.115 -1.0378  0.3660  0.8051
   20SAPC  H11Y 2666   2.692   6.189   9.124  0.6842  0.8633 -0.6353
   20SAPC  C312 2667   2.608   6.251   8.930  0.4599 -0.0703 -0.4287
   20SAPC  H12X 2668   2.700   6.296   8.884  0.5119  0.2792  0.0159
   20SAPC  H12Y 2669   2.524   6.310   8.888 -1.3646 -0.8211  1.9464
   20SAPC  C313 2670   2.601   6.107   8.874 -0.0048  0.1918  0.4843
   20SAPC  H13X 2671   2.496   6.076   8.895 -0.7483  1.8460 -0.5471
   20SAPC  H13Y 2672   2.671   6.035   8.921 -0.0551 -1.8485 -2.3645
   20SAPC  C314 2673   2.618   6.110   8.720 -0.3373  0.1434 -0.1427
   20SAPC  H14X 2674   2.719   6.145   8.692  0.4311 -0.4105  1.7422
   20SAPC  H14Y 2675   2.540   6.183   8.688 -0.1739  0.4538  0.1558
   20SAPC  C315 2676   2.596   5.979   8.666  1.1136 -0.1770  0.1563
   20SAPC  H15X 2677   2.502   5.936   8.708  0.4503 -0.9922 -2.0185
   20SAPC  H15Y 2678   2.682   5.911   8.686 -0.0959 -1.2782  1.8952
   20SAPC  C316 2679   2.568   5.994   8.516  0.4837 -0.5488 -0.1369
   20SAPC  H16X 2680   2.515   6.086   8.481 -0.9730 -1.7484 -1.2169
   20SAPC  H16Y 2681   2.492   5.919   8.484 -0.5457  0.6952 -0.7281
   20SAPC  C317 2682   2.693   5.996   8.434  0.2645 -0.5062 -0.1959
   20SAPC  H17X 2683   2.771   5.926   8.472  0.0768 -0.9229 -0.5659
   20SAPC  H17Y 2684   2.745   6.092   8.453  0.0613 -0.5860  0.8475
   20SAPC  C318 2685   2.686   5.979   8.280  0.0994 -1.0373  0.0621
   20SAPC  H18X 2686   2.620   6.059   8.239 -0.1723 -0.8377  0.8603
   20SAPC  H18Y 2687   2.641   5.881   8.251  0.5321 -0.5853 -2.3094
   20SAPC  H18Z 2688   2.785   5.980   8.229 -0.2890  2.4404 -0.8747
   21SAPC     N 2689   3.724   5.273  10.806 -1.0979  0.4466  0.4326
   21SAPC   C12 2690   3.727   5.131  10.860  0.4860 -0.9158 -0.1002
   21SAPC  H12A 2691   3.695   5.061  10.785  0.6697 -1.7505  0.5751
   21SAPC  H12B 2692   3.649   5.127  10.935  1.7031 -1.3390  1.1929
   21SAPC   C13 2693   3.827   5.298  10.702  0.8595 -0.2261 -0.3934
   21SAPC  H13A 2694   3.825   5.404  10.682 -0.8088 -0.0047  0.7556
   21SAPC  H13B 2695   3.930   5.280  10.728  0.6460  0.0919  0.7257
   21SAPC  H13C 2696   3.812   5.247  10.607 -2.8048 -0.0584 -0.0608
   21SAPC   C14 2697   3.598   5.300  10.735  0.1410 -0.4795 -0.0719
   21SAPC  H14A 2698   3.511   5.298  10.799 -0.3695  1.4099 -0.6475
   21SAPC  H14B 2699   3.606   5.402  10.699  0.4332 -0.1848  0.7973
   21SAPC  H14C 2700   3.575   5.228  10.658 -0.8934 -0.6474  0.3721
   21SAPC   C15 2701   3.738   5.370  10.910  0.1456 -0.1181  0.2954
   21SAPC  H15A 2702   3.749   5.471  10.874 -0.5023 -0.1812 -0.1071
   21SAPC  H15B 2703   3.655   5.373  10.980 -1.5971 -1.6465 -1.5992
   21SAPC  H15C 2704   3.833   5.351  10.957  1.3190  1.4028 -1.3407
   21SAPC   C11 2705   3.853   5.068  10.922 -0.2234 -0.3503 -0.3741
   21SAPC  H11A 2706   3.822   4.973  10.970 -0.3780 -0.0798  0.0605
   21SAPC  H11B 2707   3.901   5.135  10.996 -0.4625  1.4718 -1.7842
   21SAPC     P 2708   3.924   4.908  10.737 -0.3151  0.2351 -0.3345
   21SAPC   O13 2709   3.987   4.794  10.812 -0.0895  0.2906 -0.3368
   21SAPC   O14 2710   3.783   4.881  10.716  0.1801  0.5413 -0.2797
   21SAPC   O12 2711   3.954   5.038  10.824  0.2163  0.1939 -0.4257
   21SAPC   O11 2712   3.994   4.935  10.597  0.4427  0.1488  0.7565
   21SAPC    C1 2713   4.129   4.972  10.607  0.8866  0.4382  0.5871
   21SAPC    HA 2714   4.161   5.022  10.701 -0.1804  1.5490  0.3879
   21SAPC    HB 2715   4.185   4.876  10.599 -0.2300 -0.1699 -0.1511
   21SAPC    C2 2716   4.177   5.082  10.508 -0.5832  0.0512  0.1100
   21SAPC    HS 2717   4.110   5.169  10.525  1.2511  1.5233  0.1026
   21SAPC   O21 2718   4.170   5.020  10.386  0.0220 -0.0812  0.3207
   21SAPC   C21 2719   4.085   5.067  10.301  0.3481  0.9933 -0.8693
   21SAPC   O22 2720   4.014   5.164  10.314  0.1716 -0.4912 -0.2063
   21SAPC   C22 2721   4.080   4.970  10.186 -0.3720  0.1728 -1.0469
   21SAPC   H2R 2722   4.100   4.870  10.232  1.4607  1.1799  0.4984
   21SAPC   H2S 2723   3.981   4.986  10.140 -1.0897  0.7532  0.6513
   21SAPC    C3 2724   4.316   5.131  10.547 -0.3544  0.8597  0.6527
   21SAPC    HX 2725   4.383   5.043  10.554 -1.1539  0.2666  0.9936
   21SAPC    HY 2726   4.324   5.176  10.648  2.8740 -1.0751  1.3693
   21SAPC   O31 2727   4.373   5.209  10.444 -0.0113 -0.6644  0.1019
   21SAPC   C31 2728   4.318   5.327  10.414 -0.0953  1.1143  0.6519
   21SAPC   O32 2729   4.239   5.382  10.487  0.8419 -0.0618  0.3431
   21SAPC   C32 2730   4.360   5.365  10.275  0.4579 -0.2195  0.5374
   21SAPC   H2X 2731   4.301   5.301  10.206  2.3503 -0.5110 -0.9148
   21SAPC   H2Y 2732   4.470   5.358  10.256  0.6377  2.1020  0.3996
   21SAPC   C23 2733   4.207   4.984  10.095  0.4146  1.1874 -1.1984
   21SAPC   H3R 2734   4.255   4.886  10.074 -2.3518  0.1722 -3.5551
   21SAPC   H3S 2735   4.280   5.045  10.151  0.0177  0.4176  0.1946
   21SAPC   C24 2736   4.161   5.051   9.964 -0.1326  0.0896  0.1621
   21SAPC   H4R 2737   4.065   5.006   9.933  0.3387  0.1991 -1.5557
   21SAPC   H4S 2738   4.239   5.036   9.886  0.3435 -0.9549  0.8178
   21SAPC   C25 2739   4.142   5.205   9.982 -0.6226 -0.1519 -0.3922
   21SAPC   H5R 2740   4.232   5.260  10.015 -1.0603  0.1747  0.2738
   21SAPC   C26 2741   4.032   5.281   9.953  0.5201 -0.0361  0.1686
   21SAPC   H6R 2742   4.030   5.390   9.967 -1.0849 -0.2692  2.1557
   21SAPC   C27 2743   3.901   5.237   9.894  0.4579 -0.2330  0.4206
   21SAPC   H7R 2744   3.899   5.137   9.847  0.7415  0.0128 -0.1331
   21SAPC   H7S 2745   3.872   5.303   9.809 -1.6593 -1.1189  0.3764
   21SAPC   C28 2746   3.803   5.240  10.005  0.7752 -0.3109 -0.0129
   21SAPC   H8R 2747   3.816   5.156  10.074  1.9820 -1.0966 -1.1719
   21SAPC   C29 2748   3.708   5.332  10.032 -0.9146  0.2314  0.4769
   21SAPC   H9R 2749   3.636   5.313  10.113  0.4176 -1.5434  1.2980
   21SAPC  C210 2750   3.683   5.457   9.961  0.7509 -0.6256 -1.0982
   21SAPC  H10R 2751   3.575   5.485   9.955  0.5313 -1.5717 -1.8009
   21SAPC  H10S 2752   3.711   5.456   9.854 -0.3444  3.9345 -1.6318
   21SAPC  C211 2753   3.750   5.574  10.023 -0.0282 -0.8064 -0.0959
   21SAPC  H11R 2754   3.806   5.554  10.116 -1.2046  0.3878  0.9144
   21SAPC  C212 2755   3.732   5.706  10.004 -0.0703  0.4376 -0.5241
   21SAPC  H12R 2756   3.793   5.779  10.059  3.3756 -1.4002 -1.5384
   21SAPC  C213 2757   3.627   5.764   9.914  0.3817  0.2534  0.0948
   21SAPC  H13R 2758   3.636   5.710   9.817  1.0084 -0.0362  0.3101
   21SAPC  H13S 2759   3.655   5.869   9.887 -2.6512  0.8728 -1.0010
   21SAPC  C214 2760   3.484   5.767   9.963 -0.9802 -0.0030  0.2653
   21SAPC  H14R 2761   3.474   5.726  10.064 -1.0723 -2.4360 -0.6486
   21SAPC  C215 2762   3.369   5.808   9.895 -1.4669 -0.5802 -1.1389
   21SAPC  H15R 2763   3.279   5.809   9.957  0.3345 -0.9800  1.6950
   21SAPC  C216 2764   3.370   5.862   9.755  0.0284  0.6148 -0.1830
   21SAPC  H16R 2765   3.471   5.882   9.714 -1.0370  0.1710 -3.2691
   21SAPC  H16S 2766   3.325   5.963   9.751 -0.2808  0.4877  0.0862
   21SAPC  C217 2767   3.297   5.762   9.661  0.1038 -0.6137  0.6364
   21SAPC  H17R 2768   3.194   5.746   9.699 -0.4368 -1.2518 -0.9956
   21SAPC  H17S 2769   3.350   5.664   9.654  0.8132 -0.6055  4.1285
   21SAPC  C218 2770   3.279   5.830   9.520  0.0119 -0.0838 -0.2410
   21SAPC  H18R 2771   3.378   5.863   9.482  0.5929  0.1540  1.4261
   21SAPC  H18S 2772   3.213   5.919   9.528 -1.9882 -1.3843 -1.4048
   21SAPC  C219 2773   3.208   5.736   9.416  0.1166 -0.0484  0.0430
   21SAPC  H19R 2774   3.105   5.717   9.454 -0.2506  2.8119  0.6943
   21SAPC  H19S 2775   3.269   5.644   9.431  1.0990  0.6161  0.1696
   21SAPC  C220 2776   3.206   5.794   9.278 -0.3475  0.0369  0.8730
   21SAPC  H20R 2777   3.311   5.792   9.241 -0.3065 -2.3004  0.9249
   21SAPC  H20S 2778   3.179   5.899   9.255  0.8499  0.0859 -0.4877
   21SAPC  H20T 2779   3.162   5.721   9.205  2.2139 -3.9281  2.9229
   21SAPC   C33 2780   4.324   5.514  10.229  0.5900 -0.4706 -0.3432
   21SAPC   H3X 2781   4.398   5.592  10.258  0.5093 -0.0557 -1.2417
   21SAPC   H3Y 2782   4.230   5.554  10.271  0.9538  0.6737 -0.5936
   21SAPC   C34 2783   4.313   5.537  10.085  0.5720 -0.5480  0.4985
   21SAPC   H4X 2784   4.236   5.468  10.044  0.8549 -0.8470  0.4700
   21SAPC   H4Y 2785   4.411   5.512  10.037  0.5015 -0.3256  0.2358
   21SAPC   C35 2786   4.284   5.684  10.039 -0.0223  0.4908 -0.2507
   21SAPC   H5X 2787   4.350   5.758  10.090  0.5849 -0.4720  0.3886
   21SAPC   H5Y 2788   4.178   5.699  10.069 -0.5225 -2.0157 -0.5477
   21SAPC   C36 2789   4.290   5.694   9.885  0.1710 -0.3276 -0.1569
   21SAPC   H6X 2790   4.394   5.662   9.861  0.9504 -0.6372  3.1359
   21SAPC   H6Y 2791   4.284   5.802   9.861  0.8832  0.0168  1.1133
   21SAPC   C37 2792   4.183   5.629   9.791 -0.0463  0.0657 -0.0727
   21SAPC   H7X 2793   4.189   5.521   9.815  0.1963 -0.0302 -0.5623
   21SAPC   H7Y 2794   4.210   5.643   9.684  1.6081 -1.4074  0.1123
   21SAPC   C38 2795   4.043   5.682   9.817 -0.0354  0.5533 -0.1899
   21SAPC   H8X 2796   4.027   5.714   9.922  1.2558  2.6859 -0.5732
   21SAPC   H8Y 2797   3.985   5.588   9.808  1.5055 -0.3107 -1.5469
   21SAPC   C39 2798   3.993   5.791   9.726 -0.7294 -0.0197  0.3623
   21SAPC   H9X 2799   3.889   5.817   9.756 -0.6022  1.0883 -0.1119
   21SAPC   H9Y 2800   3.998   5.746   9.624  1.2089 -0.0875  0.4440
   21SAPC  C310 2801   4.085   5.914   9.718 -0.4269  0.1237  0.4649
   21SAPC  H10X 2802   4.179   5.883   9.668 -0.9286 -0.8858  0.1072
   21SAPC  H10Y 2803   4.111   5.951   9.819  2.4980  2.2786 -0.9091
   21SAPC  C311 2804   4.018   6.024   9.639 -0.1061 -0.3259  0.1237
   21SAPC  H11X 2805   4.088   6.109   9.629 -0.5262 -0.1787 -1.8145
   21SAPC  H11Y 2806   3.928   6.067   9.689  1.3241  4.4312 -0.9318
   21SAPC  C312 2807   3.981   5.985   9.497 -0.0694  0.3250 -0.0865
   21SAPC  H12X 2808   3.926   6.074   9.459  0.7659  0.4319 -1.1077
   21SAPC  H12Y 2809   3.906   5.904   9.487 -0.1395  0.4758 -0.8625
   21SAPC  C313 2810   4.092   5.939   9.394  0.2390  0.2871 -0.2827
   21SAPC  H13X 2811   4.129   5.834   9.405  0.6860  0.4130 -0.5589
   21SAPC  H13Y 2812   4.180   6.005   9.403  0.1046  0.2134  2.6189
   21SAPC  C314 2813   4.044   5.958   9.254  0.6440 -0.4130  0.2702
   21SAPC  H14X 2814   3.947   6.012   9.254  0.7217 -0.2468  1.2721
   21SAPC  H14Y 2815   4.034   5.859   9.204  0.5349 -0.1520 -0.2228
   21SAPC  C315 2816   4.146   6.034   9.168  0.6860 -0.1876  0.7458
   21SAPC  H15X 2817   4.252   6.015   9.193  0.4967 -0.6805  1.1909
   21SAPC  H15Y 2818   4.141   6.142   9.196  0.1926  0.8394 -2.7732
   21SAPC  C316 2819   4.126   6.031   9.017  0.0706 -0.1940  0.3298
   21SAPC  H16X 2820   4.140   5.924   8.988  0.0844 -0.3683  0.9671
   21SAPC  H16Y 2821   4.195   6.104   8.968  1.0733 -1.0946  0.3594
   21SAPC  C317 2822   3.987   6.062   8.978 -0.5492 -0.2337  0.1148
   21SAPC  H17X 2823   3.960   6.166   9.006  2.9120  0.3826  1.7157
   21SAPC  H17Y 2824   3.913   5.993   9.023 -1.5015  0.8023  0.1771
   21SAPC  C318 2825   3.977   6.061   8.820 -0.0457  0.7548 -0.0557
   21SAPC  H18X 2826   3.997   5.955   8.791  1.8744  1.0859 -0.0000
   21SAPC  H18Y 2827   4.038   6.138   8.769 -0.4470  1.1358  0.0327
   21SAPC  H18Z 2828   3.868   6.068   8.796  0.4727 -0.0815 -2.9433
   22SAPC     N 2829   4.532   4.380  11.029  0.3178 -0.7709 -0.0897
   22SAPC   C12 2830   4.544   4.343  10.887  0.1478  0.4807 -0.5242
   22SAPC  H12A 2831   4.543   4.434  10.828  1.6419  3.2802  3.3059
   22SAPC  H12B 2832   4.467   4.272  10.860 -0.5893  0.5545  1.2181
   22SAPC   C13 2833   4.404   4.446  11.057  0.6981 -0.7568  0.2316
   22SAPC  H13A 2834   4.392   4.534  10.996  1.2689  0.4835  1.8345
   22SAPC  H13B 2835   4.322   4.378  11.037  0.3907 -0.4514  0.4419
   22SAPC  H13C 2836   4.391   4.485  11.157  1.6695 -0.0550  0.0976
   22SAPC   C14 2837   4.531   4.257  11.104 -0.3871  0.9522 -0.0901
   22SAPC  H14A 2838   4.439   4.204  11.085  0.1849 -0.1838  0.2213
   22SAPC  H14B 2839   4.615   4.195  11.078  0.0516  1.0903  0.9686
   22SAPC  H14C 2840   4.524   4.261  11.212  2.5528 -1.5745  0.3141
   22SAPC   C15 2841   4.639   4.469  11.075 -0.5202  0.7491  0.6660
   22SAPC  H15A 2842   4.639   4.565  11.026  1.3233  0.2582 -0.4079
   22SAPC  H15B 2843   4.621   4.484  11.181 -1.5010  0.6860  0.5217
   22SAPC  H15C 2844   4.737   4.431  11.052  0.0157  3.2971 -1.8310
   22SAPC   C11 2845   4.683   4.282  10.852 -0.2102  0.0092 -0.1121
   22SAPC  H11A 2846   4.672   4.249  10.747  1.3659 -0.1257 -0.2671
   22SAPC  H11B 2847   4.709   4.197  10.919  1.5906  1.2528  0.8459
   22SAPC     P 2848   4.929   4.332  10.820 -0.2188  0.1367 -0.4177
   22SAPC   O13 2849   5.032   4.441  10.830  0.0984  0.1838  0.6361
   22SAPC   O14 2850   4.965   4.212  10.907  0.4586  0.0914  0.6001
   22SAPC   O12 2851   4.781   4.380  10.856  0.7022  0.0243 -0.3240
   22SAPC   O11 2852   4.915   4.287  10.671 -0.6941  0.1219 -0.0228
   22SAPC    C1 2853   4.886   4.385  10.569 -0.4358  0.8889  0.2158
   22SAPC    HA 2854   4.792   4.434  10.600 -0.0981  0.7729  1.4845
   22SAPC    HB 2855   4.968   4.459  10.560  0.4844 -0.1043  0.1780
   22SAPC    C2 2856   4.863   4.330  10.425 -0.2995  0.2859  1.0220
   22SAPC    HS 2857   4.811   4.234  10.444  2.9531 -1.4334  2.0402
   22SAPC   O21 2858   4.992   4.306  10.367 -0.2436  0.1646  0.0395
   22SAPC   C21 2859   5.001   4.192  10.293  0.9177  0.3180 -0.6404
   22SAPC   O22 2860   4.908   4.122  10.258  0.1984  0.0693 -0.0062
   22SAPC   C22 2861   5.148   4.169  10.245  0.2164  0.3304 -0.6818
   22SAPC   H2R 2862   5.207   4.184  10.338 -0.0899  0.1484 -0.4567
   22SAPC   H2S 2863   5.157   4.067  10.201 -0.6178  0.9235 -2.3104
   22SAPC    C3 2864   4.786   4.431  10.327  0.0325  0.4627 -0.5891
   22SAPC    HX 2865   4.847   4.524  10.325 -2.7618  2.4616  0.6649
   22SAPC    HY 2866   4.694   4.454  10.385 -0.7317 -4.2137  0.5286
   22SAPC   O31 2867   4.755   4.383  10.193 -0.0625  0.4494 -0.6116
   22SAPC   C31 2868   4.637   4.317  10.183 -0.1710  0.2610 -0.7245
   22SAPC   O32 2869   4.560   4.304  10.274 -0.1713 -0.0192  0.0445
   22SAPC   C32 2870   4.617   4.256  10.042  0.1812  0.2888  0.2683
   22SAPC   H2X 2871   4.705   4.274   9.977 -1.9706 -1.9943 -3.6338
   22SAPC   H2Y 2872   4.529   4.315  10.009  2.2341  1.9776 -2.6327
   22SAPC   C23 2873   5.205   4.268  10.139 -0.5363 -0.1589  0.1907
   22SAPC   H3R 2874   5.313   4.257  10.162 -0.8073 -0.6936  1.3147
   22SAPC   H3S 2875   5.186   4.370  10.178  0.5093 -0.1599  0.7483
   22SAPC   C24 2876   5.173   4.225   9.992  0.2945  0.0457 -0.8363
   22SAPC   H4R 2877   5.069   4.188   9.984  0.9107 -2.0908  0.2257
   22SAPC   H4S 2878   5.236   4.134   9.979 -0.5035 -0.4547 -1.3136
   22SAPC   C25 2879   5.206   4.342   9.894  0.8807 -0.1895 -0.5065
   22SAPC   H5R 2880   5.313   4.367   9.890  0.7764  0.4953  0.6590
   22SAPC   C26 2881   5.119   4.408   9.814 -0.4826 -0.5128  0.0870
   22SAPC   H6R 2882   5.156   4.470   9.730 -0.6560 -2.8339 -1.8296
   22SAPC   C27 2883   4.967   4.379   9.816 -0.2709  0.4449 -0.3722
   22SAPC   H7R 2884   4.909   4.465   9.777  0.0416  0.6444 -0.3989
   22SAPC   H7S 2885   4.930   4.370   9.920 -1.5150  0.5223 -0.7884
   22SAPC   C28 2886   4.937   4.254   9.734 -0.8459 -0.7021 -0.1804
   22SAPC   H8R 2887   4.986   4.165   9.774  1.7346 -0.0911 -1.7137
   22SAPC   C29 2888   4.859   4.235   9.629  0.1617 -0.2921  0.3712
   22SAPC   H9R 2889   4.852   4.138   9.579 -1.3046  0.9834 -2.0734
   22SAPC  C210 2890   4.773   4.335   9.566 -0.1975 -0.3010 -0.1374
   22SAPC  H10R 2891   4.792   4.337   9.456 -0.4100  0.1767 -0.1668
   22SAPC  H10S 2892   4.802   4.436   9.602 -1.8747  0.5244 -0.9878
   22SAPC  C211 2893   4.630   4.313   9.602  0.2028  0.6058  0.3883
   22SAPC  H11R 2894   4.615   4.315   9.711  1.4859  0.1848  0.5958
   22SAPC  C212 2895   4.528   4.304   9.517 -0.7719  0.2421  0.2823
   22SAPC  H12R 2896   4.428   4.290   9.560 -1.1933 -2.1475 -1.2635
   22SAPC  C213 2897   4.536   4.312   9.367  1.1199 -0.3097 -0.4087
   22SAPC  H13R 2898   4.475   4.230   9.323  1.5612  0.5334 -2.7287
   22SAPC  H13S 2899   4.636   4.316   9.319  0.4439  1.9908 -1.7998
   22SAPC  C214 2900   4.462   4.431   9.309 -0.0763  0.0795  0.5692
   22SAPC  H14R 2901   4.426   4.501   9.386 -1.0206  0.1139  0.1158
   22SAPC  C215 2902   4.439   4.472   9.177  0.3014  0.4739 -0.4738
   22SAPC  H15R 2903   4.382   4.565   9.167 -0.0904  0.1793 -1.0316
   22SAPC  C216 2904   4.490   4.407   9.051 -0.1863  0.1519  0.0532
   22SAPC  H16R 2905   4.422   4.397   8.963  1.5311  2.4584 -1.6727
   22SAPC  H16S 2906   4.520   4.303   9.079 -0.9196  0.1303  0.7798
   22SAPC  C217 2907   4.623   4.463   8.994  0.3551 -1.0724 -0.1950
   22SAPC  H17R 2908   4.632   4.413   8.895  1.3318 -0.5463 -0.3782
   22SAPC  H17S 2909   4.702   4.430   9.065  1.6455 -1.6397 -1.8348
   22SAPC  C218 2910   4.629   4.617   8.970 -0.3022  0.7714 -0.1240
   22SAPC  H18R 2911   4.733   4.647   8.945 -0.6817  1.3442 -1.0594
   22SAPC  H18S 2912   4.604   4.674   9.062  4.3241  1.5023  0.9254
   22SAPC  C219 2913   4.545   4.667   8.855 -0.3525 -0.1234  0.9242
   22SAPC  H19R 2914   4.438   4.650   8.878 -0.2977  0.8621  1.9654
   22SAPC  H19S 2915   4.556   4.600   8.767 -1.5255 -1.0343  1.4359
   22SAPC  C220 2916   4.570   4.818   8.822 -0.1114 -0.0254  0.3556
   22SAPC  H20R 2917   4.489   4.844   8.751  1.5298 -1.1136 -2.0470
   22SAPC  H20S 2918   4.670   4.850   8.787 -0.4351  1.9594  1.1284
   22SAPC  H20T 2919   4.548   4.877   8.913 -2.9148 -0.3288 -0.0467
   22SAPC   C33 2920   4.585   4.103  10.060 -0.4116  0.3698  0.4847
   22SAPC   H3X 2921   4.491   4.101  10.119 -1.0083  2.4352 -0.2925
   22SAPC   H3Y 2922   4.666   4.049  10.114 -1.2273 -1.9486 -0.5217
   22SAPC   C34 2923   4.561   4.031   9.925  0.1064  0.1655  0.3921
   22SAPC   H4X 2924   4.571   3.922   9.947  1.6898  0.2708  0.3345
   22SAPC   H4Y 2925   4.642   4.061   9.854 -1.3936 -0.9258 -1.9251
   22SAPC   C35 2926   4.433   4.067   9.850  0.5342 -0.2089  0.0012
   22SAPC   H5X 2927   4.446   4.176   9.836  0.8882 -0.0509  1.4030
   22SAPC   H5Y 2928   4.349   4.044   9.919  0.3917 -0.7830 -0.3584
   22SAPC   C36 2929   4.420   3.991   9.717  0.2540 -0.3425 -0.3052
   22SAPC   H6X 2930   4.453   3.886   9.727  0.1605 -0.2440  1.2552
   22SAPC   H6Y 2931   4.487   4.049   9.649 -0.7291  0.8493 -0.2950
   22SAPC   C37 2932   4.279   4.013   9.665  0.3186 -0.1439 -0.3365
   22SAPC   H7X 2933   4.268   4.124   9.660  0.8716 -0.0828 -0.1808
   22SAPC   H7Y 2934   4.214   3.968   9.744  1.8746 -0.9916  0.4972
   22SAPC   C38 2935   4.237   3.947   9.533 -0.4581  0.6131  1.5387
   22SAPC   H8X 2936   4.139   3.894   9.536 -0.8540  1.2777  0.7191
   22SAPC   H8Y 2937   4.313   3.866   9.529 -2.4681 -1.3656 -1.4758
   22SAPC   C39 2938   4.266   4.028   9.405  0.3416  0.4624 -0.0928
   22SAPC   H9X 2939   4.372   4.061   9.410  0.5323 -0.1074 -0.2960
   22SAPC   H9Y 2940   4.199   4.117   9.407 -0.1321  0.0938  0.8968
   22SAPC  C310 2941   4.229   3.963   9.269  0.3924 -0.0776  0.1652
   22SAPC  H10X 2942   4.121   3.937   9.269  0.0193  1.0705 -2.5083
   22SAPC  H10Y 2943   4.285   3.868   9.255  2.2667  0.8192  1.2411
   22SAPC  C311 2944   4.255   4.054   9.151  0.0731 -0.1956  0.3776
   22SAPC  H11X 2945   4.363   4.076   9.136 -0.0115  0.4739  0.7335
   22SAPC  H11Y 2946   4.205   4.152   9.165  2.0095  0.7578  1.0456
   22SAPC  C312 2947   4.192   3.985   9.022  0.6884  0.4079  0.5052
   22SAPC  H12X 2948   4.083   3.967   9.031  0.8918 -2.0154 -1.0393
   22SAPC  H12Y 2949   4.237   3.884   9.018 -0.8155 -0.2934  0.4800
   22SAPC  C313 2950   4.213   4.070   8.894 -0.3570 -0.3130 -0.3880
   22SAPC  H13X 2951   4.317   4.072   8.854 -0.1130 -0.9630  0.1853
   22SAPC  H13Y 2952   4.200   4.173   8.933  4.3860  0.3894 -0.0858
   22SAPC  C314 2953   4.119   4.043   8.777  0.5268 -0.0524 -0.8457
   22SAPC  H14X 2954   4.015   4.067   8.808  1.2030  3.9416 -1.1042
   22SAPC  H14Y 2955   4.119   3.937   8.743  0.6224 -1.1839  2.3148
   22SAPC  C315 2956   4.133   4.134   8.647  0.1996  0.1829  0.0857
   22SAPC  H15X 2957   4.041   4.116   8.587 -0.4165 -1.0912  1.3555
   22SAPC  H15Y 2958   4.223   4.104   8.589 -0.8119 -0.5287 -1.1945
   22SAPC  C316 2959   4.124   4.288   8.668 -0.0636 -0.3429 -0.0332
   22SAPC  H16X 2960   4.149   4.337   8.571  0.0880 -0.0538  0.1547
   22SAPC  H16Y 2961   4.202   4.320   8.740  0.5472 -0.8889 -0.4390
   22SAPC  C317 2962   3.987   4.345   8.711  0.4499 -0.3520 -0.3961
   22SAPC  H17X 2963   4.004   4.446   8.756 -0.2044 -0.1812 -0.5249
   22SAPC  H17Y 2964   3.940   4.284   8.791  1.2886  0.1290  0.4866
   22SAPC  C318 2965   3.885   4.347   8.601  0.7891 -0.5148 -0.0600
   22SAPC  H18X 2966   3.909   4.419   8.520 -0.4412 -0.9214 -0.8123
   22SAPC  H18Y 2967   3.786   4.384   8.637  0.1362 -1.5081 -0.7699
   22SAPC  H18Z 2968   3.873   4.247   8.553 -0.6963 -0.1586 -0.5050
   23SAPC     N 2969   4.270   6.635  10.944  1.1069 -0.4062  0.3959
   23SAPC   C12 2970   4.289   6.674  10.796  0.3801  0.1876 -0.6632
   23SAPC  H12A 2971   4.396   6.680  10.785  0.8712 -1.9874  1.8475
   23SAPC  H12B 2972   4.245   6.772  10.786  3.4598  1.6434 -1.1848
   23SAPC   C13 2973   4.327   6.502  10.963  0.0852  0.6428  0.5734
   23SAPC  H13A 2974   4.311   6.473  11.066 -2.5944  2.5809  0.8230
   23SAPC  H13B 2975   4.278   6.438  10.891  0.1177  1.7482 -0.4638
   23SAPC  H13C 2976   4.432   6.509  10.941 -0.6091  3.0574 -2.8924
   23SAPC   C14 2977   4.344   6.732  11.032  0.3240 -0.1272  0.6415
   23SAPC  H14A 2978   4.351   6.693  11.132  0.1637 -2.6497 -0.2636
   23SAPC  H14B 2979   4.446   6.748  11.002  0.5042 -0.4183  1.0843
   23SAPC  H14C 2980   4.295   6.828  11.027 -1.8987 -1.2149 -3.6583
   23SAPC   C15 2981   4.132   6.649  10.987 -0.2059  0.0893  0.3472
   23SAPC  H15A 2982   4.089   6.749  10.984 -2.6665 -0.8497  1.4965
   23SAPC  H15B 2983   4.069   6.579  10.935 -0.5307  1.2087 -0.8247
   23SAPC  H15C 2984   4.119   6.621  11.090 -1.6838  1.6739  0.6393
   23SAPC   C11 2985   4.219   6.593  10.690 -0.0459  0.2433 -0.1777
   23SAPC  H11A 2986   4.276   6.498  10.687 -0.3219  0.0961 -1.8600
   23SAPC  H11B 2987   4.243   6.631  10.589 -1.3441 -0.2247 -0.6881
   23SAPC     P 2988   3.962   6.642  10.669  0.3008 -0.0773  0.0943
   23SAPC   O13 2989   3.845   6.569  10.720 -0.1743  0.1233  0.1998
   23SAPC   O14 2990   3.976   6.782  10.713 -0.2573  0.0505  0.6192
   23SAPC   O12 2991   4.083   6.558  10.711 -0.5177 -0.1170 -0.4206
   23SAPC   O11 2992   3.966   6.651  10.515 -0.2906 -0.1707  0.8835
   23SAPC    C1 2993   3.961   6.540  10.421  0.0187 -0.0711  0.1991
   23SAPC    HA 2994   4.007   6.450  10.466  2.6403  1.1751  0.1834
   23SAPC    HB 2995   3.856   6.525  10.386 -0.0150  2.1369 -0.8111
   23SAPC    C2 2996   4.043   6.570  10.298  0.5818 -0.2104  0.0669
   23SAPC    HS 2997   4.017   6.485  10.230  0.9810 -1.7774  1.8032
   23SAPC   O21 2998   4.185   6.560  10.322 -0.5777  0.0140 -0.3302
   23SAPC   C21 2999   4.247   6.442  10.317  0.2931  0.1394 -0.4145
   23SAPC   O22 3000   4.190   6.334  10.314 -0.1461 -0.0832  0.0293
   23SAPC   C22 3001   4.400   6.461  10.306  0.0702  0.6647 -0.1656
   23SAPC   H2R 3002   4.431   6.566  10.326  1.5490 -0.4381  4.5799
   23SAPC   H2S 3003   4.436   6.400  10.391  0.3915  2.0369  0.7007
   23SAPC    C3 3004   4.011   6.712  10.249  0.1980  0.2609  0.1537
   23SAPC    HX 3005   4.086   6.725  10.168  1.1126  0.3486  1.0006
   23SAPC    HY 3006   4.029   6.788  10.328 -1.5277 -0.1831  1.0480
   23SAPC   O31 3007   3.874   6.715  10.202 -0.0824  0.0958 -0.2642
   23SAPC   C31 3008   3.846   6.834  10.147  0.1472 -0.0982  0.1218
   23SAPC   O32 3009   3.919   6.931  10.144 -0.2881  0.2371 -0.0632
   23SAPC   C32 3010   3.704   6.824  10.085 -0.7546 -0.0894  0.4165
   23SAPC   H2X 3011   3.630   6.838  10.166  0.0753  0.2715  1.1360
   23SAPC   H2Y 3012   3.696   6.729  10.027 -0.6251 -0.1519  0.5000
   23SAPC   C23 3013   4.468   6.394  10.179  0.8863 -0.4923 -0.6060
   23SAPC   H3R 3014   4.442   6.287  10.164 -0.5932 -0.2377 -0.0270
   23SAPC   H3S 3015   4.579   6.400  10.186  0.8950 -1.9714  2.0171
   23SAPC   C24 3016   4.428   6.466  10.044 -0.3664 -0.1922  0.0460
   23SAPC   H4R 3017   4.320   6.490  10.032  0.1079  1.5666 -1.2887
   23SAPC   H4S 3018   4.445   6.394   9.961 -6.7477  0.6095 -2.5875
   23SAPC   C25 3019   4.493   6.600  10.028  0.7447 -0.7172 -0.2857
   23SAPC   H5R 3020   4.599   6.602  10.059  0.3639  1.0126  1.1208
   23SAPC   C26 3021   4.433   6.716   9.984 -0.0810  0.3474  0.6807
   23SAPC   H6R 3022   4.493   6.808   9.985 -2.6779  2.1383  1.3973
   23SAPC   C27 3023   4.292   6.724   9.931  0.0160 -0.4426  0.4733
   23SAPC   H7R 3024   4.226   6.651   9.982  1.0018 -0.9077  1.1274
   23SAPC   H7S 3025   4.293   6.690   9.825 -0.3623 -1.8565  0.8951
   23SAPC   C28 3026   4.241   6.864   9.923 -0.1561 -0.0924  0.1618
   23SAPC   H8R 3027   4.199   6.889  10.021 -0.8650  0.4719 -0.2775
   23SAPC   C29 3028   4.223   6.946   9.816 -0.6505  0.2073  0.1397
   23SAPC   H9R 3029   4.184   7.049   9.822 -4.0903 -1.0130  0.7604
   23SAPC  C210 3030   4.275   6.899   9.677 -0.7739 -0.5341  0.0631
   23SAPC  H10R 3031   4.211   6.818   9.636 -0.3337 -0.1271 -1.5238
   23SAPC  H10S 3032   4.378   6.856   9.681 -0.3409  0.4143 -0.5309
   23SAPC  C211 3033   4.281   7.013   9.578  0.1694 -0.2767  0.0427
   23SAPC  H11R 3034   4.341   7.101   9.605 -1.5809  1.6273 -1.7980
   23SAPC  C212 3035   4.246   7.011   9.447  0.6492  0.2846 -0.2419
   23SAPC  H12R 3036   4.257   7.102   9.385  2.6201  0.9516  0.9851
   23SAPC  C213 3037   4.187   6.894   9.370  0.8836 -0.4929  0.1879
   23SAPC  H13R 3038   4.088   6.930   9.332  0.0291 -2.1518  0.7332
   23SAPC  H13S 3039   4.182   6.805   9.437  2.8217 -0.3185  0.6046
   23SAPC  C214 3040   4.272   6.841   9.252  0.0139  0.3640  0.0099
   23SAPC  H14R 3041   4.339   6.758   9.282 -0.0511 -0.0086 -0.8449
   23SAPC  C215 3042   4.265   6.873   9.121  0.1689 -0.4613  0.3513
   23SAPC  H15R 3043   4.335   6.819   9.056  1.2012 -1.7127  2.4003
   23SAPC  C216 3044   4.181   6.982   9.054  0.3468  0.7992  0.5084
   23SAPC  H16R 3045   4.240   7.040   8.979  1.2511  0.8698  1.2553
   23SAPC  H16S 3046   4.151   7.059   9.128  2.2797  2.2120 -0.0930
   23SAPC  C217 3047   4.050   6.930   8.971 -0.2566  0.1645  0.0528
   23SAPC  H17R 3048   3.990   6.868   9.041 -0.4190 -2.1662 -2.0062
   23SAPC  H17S 3049   4.081   6.854   8.896 -2.4253 -2.1418  1.3368
   23SAPC  C218 3050   3.954   7.038   8.924  0.5798  0.1790  1.3426
   23SAPC  H18R 3051   3.944   7.116   9.003  1.1854  3.3486 -1.4829
   23SAPC  H18S 3052   3.859   6.985   8.899  0.4573  1.6562 -1.8518
   23SAPC  C219 3053   4.007   7.132   8.811  0.1494 -0.0262 -0.4246
   23SAPC  H19R 3054   4.094   7.182   8.858 -0.9844 -0.4672  2.2953
   23SAPC  H19S 3055   3.934   7.212   8.788 -0.7655 -0.8455 -0.4460
   23SAPC  C220 3056   4.051   7.057   8.691  0.2074 -0.3133 -0.0418
   23SAPC  H20R 3057   3.984   6.983   8.641  0.2492 -0.1879 -0.2885
   23SAPC  H20S 3058   4.128   6.980   8.712  1.1455  0.9778  1.4545
   23SAPC  H20T 3059   4.083   7.129   8.612 -0.1985 -0.4874 -0.3760
   23SAPC   C33 3060   3.695   6.937   9.985 -0.0801  0.6138 -0.1220
   23SAPC   H3X 3061   3.785   6.933   9.921  0.5737  0.3794  0.8058
   23SAPC   H3Y 3062   3.706   7.037  10.032  1.3208  0.9251 -1.0675
   23SAPC   C34 3063   3.574   6.933   9.887 -0.3699  0.3456 -0.0739
   23SAPC   H4X 3064   3.537   6.828   9.880 -0.3421  0.1833  1.6036
   23SAPC   H4Y 3065   3.615   6.961   9.788  0.6078 -1.0192 -0.0941
   23SAPC   C35 3066   3.456   7.003   9.937  0.4593 -0.0813  0.2838
   23SAPC   H5X 3067   3.470   7.113   9.926 -0.5522  0.1847  1.5077
   23SAPC   H5Y 3068   3.432   6.979  10.042  1.5118 -0.3312  0.4718
   23SAPC   C36 3069   3.329   6.993   9.853  0.9030  0.3422  0.0485
   23SAPC   H6X 3070   3.248   7.048   9.905 -0.3288 -0.6809 -0.7146
   23SAPC   H6Y 3071   3.297   6.887   9.841 -2.5765  1.4746 -2.3050
   23SAPC   C37 3072   3.350   7.042   9.709 -0.3249 -0.6141  0.1173
   23SAPC   H7X 3073   3.430   6.977   9.668 -0.6784 -2.2788  1.8814
   23SAPC   H7Y 3074   3.384   7.148   9.710  1.0350 -0.9778 -1.9400
   23SAPC   C38 3075   3.228   7.041   9.623 -0.3525 -0.1833  0.7408
   23SAPC   H8X 3076   3.148   7.097   9.677 -1.7144 -2.3835  1.1510
   23SAPC   H8Y 3077   3.187   6.939   9.614  2.0097 -1.1115 -0.4136
   23SAPC   C39 3078   3.240   7.103   9.481  0.3887  0.3442 -0.3295
   23SAPC   H9X 3079   3.271   7.209   9.485 -1.1278  0.8080 -0.4010
   23SAPC   H9Y 3080   3.138   7.108   9.437  1.3348  1.8423 -2.5270
   23SAPC  C310 3081   3.340   7.034   9.384 -0.0645  0.9630  0.3101
   23SAPC  H10X 3082   3.439   7.068   9.419  0.2543  1.9548 -1.4278
   23SAPC  H10Y 3083   3.321   7.064   9.279 -0.0733 -0.9504 -0.2772
   23SAPC  C311 3084   3.344   6.879   9.397 -0.7414  0.0405  0.8316
   23SAPC  H11X 3085   3.247   6.846   9.354  0.8518 -1.7322 -1.7085
   23SAPC  H11Y 3086   3.355   6.842   9.501  0.3813  0.6748  0.9628
   23SAPC  C312 3087   3.464   6.830   9.307 -0.3170 -0.5909  0.1429
   23SAPC  H12X 3088   3.553   6.858   9.368  1.0841 -2.2792 -1.0327
   23SAPC  H12Y 3089   3.470   6.895   9.218  0.1074 -1.1641 -0.2529
   23SAPC  C313 3090   3.460   6.689   9.269  0.5252  0.5221  0.7512
   23SAPC  H13X 3091   3.355   6.654   9.258  0.7776 -0.5712  1.7076
   23SAPC  H13Y 3092   3.515   6.629   9.344  0.4363  0.7060  0.9668
   23SAPC  C314 3093   3.543   6.664   9.143  0.2892  0.2702  0.8002
   23SAPC  H14X 3094   3.651   6.664   9.169  0.5229 -1.2701 -0.0598
   23SAPC  H14Y 3095   3.515   6.739   9.065  0.2569 -0.8627 -0.2997
   23SAPC  C315 3096   3.505   6.532   9.069  0.0585  0.0520 -0.4147
   23SAPC  H15X 3097   3.398   6.546   9.041 -0.3157  0.9177  1.3129
   23SAPC  H15Y 3098   3.508   6.444   9.137  0.6771 -0.2143 -0.7850
   23SAPC  C316 3099   3.591   6.492   8.947  0.7695  0.2181 -0.0521
   23SAPC  H16X 3100   3.698   6.480   8.974  0.6716 -3.6888 -0.7631
   23SAPC  H16Y 3101   3.595   6.573   8.871 -3.0407  0.4868 -0.1456
   23SAPC  C317 3102   3.555   6.363   8.895 -0.3184  0.0858 -0.5877
   23SAPC  H17X 3103   3.484   6.370   8.809  1.5169  1.1537 -2.0984
   23SAPC  H17Y 3104   3.523   6.287   8.969  1.4240  1.2415  1.4386
   23SAPC  C318 3105   3.671   6.287   8.827  0.3218  0.0346  0.0025
   23SAPC  H18X 3106   3.705   6.347   8.740 -1.1976 -1.3935 -1.6490
   23SAPC  H18Y 3107   3.628   6.197   8.778 -0.0345  0.5356 -0.6224
   23SAPC  H18Z 3108   3.747   6.246   8.898 -0.1426 -2.3399 -0.7854
   24SAPC     N 3109   0.563   5.196  11.152  0.1913 -0.1972  0.2823
   24SAPC   C12 3110   0.535   5.145  11.011  0.2260 -0.0306  0.0985
   24SAPC  H12A 3111   0.618   5.102  10.958 -0.7775 -2.1868  0.1510
   24SAPC  H12B 3112   0.519   5.236  10.955  0.3857  0.0214  0.1371
   24SAPC   C13 3113   0.437   5.266  11.209 -0.3690 -0.8555 -0.6992
   24SAPC  H13A 3114   0.418   5.349  11.143 -2.2081  0.1827  1.0681
   24SAPC  H13B 3115   0.350   5.203  11.219 -0.3596 -0.6418  0.9102
   24SAPC  H13C 3116   0.456   5.300  11.309  0.4978  0.2125 -1.2069
   24SAPC   C14 3117   0.618   5.091  11.243  0.2196  0.3391  0.4903
   24SAPC  H14A 3118   0.567   4.996  11.231 -1.0785  1.3593 -4.6847
   24SAPC  H14B 3119   0.720   5.070  11.213  0.5631 -2.2658  3.0358
   24SAPC  H14C 3120   0.618   5.115  11.348  1.5492 -1.3121  0.9189
   24SAPC   C15 3121   0.668   5.302  11.148 -0.2927 -0.0799 -0.0906
   24SAPC  H15A 3122   0.624   5.390  11.104 -0.0588  0.0048 -0.1538
   24SAPC  H15B 3123   0.707   5.325  11.246 -1.8902 -0.8599  0.7714
   24SAPC  H15C 3124   0.748   5.279  11.079 -0.1687  3.2982 -1.2592
   24SAPC   C11 3125   0.421   5.040  10.994  0.2436  0.6652 -0.9149
   24SAPC  H11A 3126   0.449   4.960  11.067  0.2103  0.5913 -0.9821
   24SAPC  H11B 3127   0.422   4.989  10.895 -0.0100 -1.5524  0.1503
   24SAPC     P 3128   0.174   4.981  11.039 -0.0045 -0.0182  0.3575
   24SAPC   O13 3129   0.230   4.875  11.127  0.5313 -0.0880  0.7625
   24SAPC   O14 3130   0.054   5.047  11.085 -0.1921 -0.6734 -0.7895
   24SAPC   O12 3131   0.290   5.087  11.014  0.1325  0.5297  0.2220
   24SAPC   O11 3132   0.146   4.927  10.899 -0.1261 -0.0873 -0.0802
   24SAPC    C1 3133   0.127   5.015  10.787 -0.1751  0.4145 -0.1539
   24SAPC    HA 3134   0.195   5.103  10.783 -0.5634  0.9213  2.4871
   24SAPC    HB 3135   0.151   4.955  10.697  0.8459  0.4174  0.1107
   24SAPC    C2 3136  -0.022   5.061  10.775 -0.4077 -0.8435  0.9586
   24SAPC    HS 3137  -0.073   5.097  10.867 -1.3172 -1.8082  0.8415
   24SAPC   O21 3138  -0.098   4.946  10.738  0.5426  0.3475  0.7853
   24SAPC   C21 3139  -0.228   4.961  10.722  0.1106  0.0354 -0.1746
   24SAPC   O22 3140  -0.291   5.066  10.732  0.3899 -0.0648  0.5023
   24SAPC   C22 3141  -0.286   4.831  10.691  0.4994  0.0789  0.7879
   24SAPC   H2R 3142  -0.281   4.765  10.780 -1.9304 -1.0142  0.2130
   24SAPC   H2S 3143  -0.392   4.856  10.669  0.5207  0.7852  1.4280
   24SAPC    C3 3144  -0.032   5.179  10.676  0.0045 -0.5481  0.2215
   24SAPC    HX 3145   0.051   5.249  10.699 -1.9075  1.7916  0.4304
   24SAPC    HY 3146  -0.127   5.232  10.697  0.4649  0.6094 -0.4923
   24SAPC   O31 3147  -0.016   5.136  10.533  0.0394 -0.4216 -0.0118
   24SAPC   C31 3148   0.068   5.212  10.460  0.6289  0.3624  1.1087
   24SAPC   O32 3149   0.112   5.324  10.490 -0.6525  0.1217  0.0971
   24SAPC   C32 3150   0.092   5.153  10.315 -0.3985  0.5813  1.1547
   24SAPC   H2X 3151   0.077   5.235  10.241 -1.7583  0.0692  0.8479
   24SAPC   H2Y 3152   0.001   5.095  10.290  0.2160  0.6834 -1.6816
   24SAPC   C23 3153  -0.235   4.761  10.565 -0.5623  0.1404  0.4894
   24SAPC   H3R 3154  -0.282   4.662  10.550  0.4609 -0.7294  2.6383
   24SAPC   H3S 3155  -0.127   4.743  10.582 -0.6442 -0.3144  0.5385
   24SAPC   C24 3156  -0.239   4.844  10.435  0.4221 -0.4133 -0.6635
   24SAPC   H4R 3157  -0.177   4.798  10.355  0.8552 -0.7978 -0.1103
   24SAPC   H4S 3158  -0.196   4.946  10.449 -1.5525  0.4531 -0.6388
   24SAPC   C25 3159  -0.384   4.856  10.382  0.0314  0.3113  0.1163
   24SAPC   H5R 3160  -0.471   4.877  10.446  0.8918  1.4943  0.9349
   24SAPC   C26 3161  -0.416   4.835  10.252 -0.0917 -0.6309 -0.1963
   24SAPC   H6R 3162  -0.522   4.844  10.223 -0.3908  0.2139  1.0403
   24SAPC   C27 3163  -0.325   4.803  10.135 -0.2896  1.0474 -0.4032
   24SAPC   H7R 3164  -0.388   4.758  10.056  1.5161 -1.3062 -0.6234
   24SAPC   H7S 3165  -0.263   4.717  10.168 -2.7163 -0.0034  1.7367
   24SAPC   C28 3166  -0.258   4.930  10.092 -0.2551  0.4115  0.8598
   24SAPC   H8R 3167  -0.227   4.993  10.177 -1.3395  0.6765  1.0740
   24SAPC   C29 3168  -0.228   4.966   9.962  0.1178  0.3185  0.8796
   24SAPC   H9R 3169  -0.168   5.051   9.928  0.6802 -0.8568 -1.2119
   24SAPC  C210 3170  -0.260   4.877   9.839  0.8296 -0.3950 -0.3152
   24SAPC  H10R 3171  -0.278   4.771   9.867 -2.3461  0.3220  0.8031
   24SAPC  H10S 3172  -0.165   4.882   9.782  0.4219  0.3397 -0.9385
   24SAPC  C211 3173  -0.383   4.911   9.760  0.1799 -1.0278 -0.7352
   24SAPC  H11R 3174  -0.475   4.906   9.819 -0.5479 -2.3580 -1.9207
   24SAPC  C212 3175  -0.396   4.942   9.633 -1.0009 -0.8245 -0.3840
   24SAPC  H12R 3176  -0.499   4.957   9.598 -1.2746  1.2857  1.1059
   24SAPC  C213 3177  -0.286   4.941   9.530  0.5751  0.5048  0.1699
   24SAPC  H13R 3178  -0.292   4.845   9.475 -1.3291  0.5716  0.1877
   24SAPC  H13S 3179  -0.186   4.965   9.573  0.5583  0.9421 -0.0209
   24SAPC  C214 3180  -0.307   5.050   9.429 -0.1713  0.3846 -0.2487
   24SAPC  H14R 3181  -0.322   5.148   9.476 -1.6628  0.6522 -1.2386
   24SAPC  C215 3182  -0.322   5.056   9.296 -0.0796 -0.4414 -0.5776
   24SAPC  H15R 3183  -0.359   5.151   9.254 -0.4331 -0.9886 -1.5153
   24SAPC  C216 3184  -0.335   4.948   9.194  0.0184  0.6874 -0.3072
   24SAPC  H16R 3185  -0.439   4.936   9.155 -0.8914  0.0563  2.1427
   24SAPC  H16S 3186  -0.324   4.850   9.246  0.0429  0.6399 -0.4003
   24SAPC  C217 3187  -0.236   4.963   9.075  0.4075  0.1750 -0.2104
   24SAPC  H17R 3188  -0.140   4.945   9.129  1.5056  0.8127 -1.8616
   24SAPC  H17S 3189  -0.226   5.065   9.030  0.3824 -0.6044 -2.0623
   24SAPC  C218 3190  -0.273   4.860   8.969 -0.0261  0.2921  0.4717
   24SAPC  H18R 3191  -0.266   4.914   8.873 -0.1024  0.4306  0.5438
   24SAPC  H18S 3192  -0.378   4.823   8.975 -0.2621  0.4880 -1.7687
   24SAPC  C219 3193  -0.182   4.744   8.980 -0.1325 -0.3146  0.4462
   24SAPC  H19R 3194  -0.183   4.709   9.086 -0.4108 -0.1987  0.4826
   24SAPC  H19S 3195  -0.079   4.773   8.949 -0.1561 -0.8844 -0.2024
   24SAPC  C220 3196  -0.218   4.622   8.889  0.3355  0.5917 -0.1022
   24SAPC  H20R 3197  -0.147   4.537   8.898 -0.3174 -0.1208 -1.4137
   24SAPC  H20S 3198  -0.210   4.649   8.782  1.0472 -1.7120 -0.6955
   24SAPC  H20T 3199  -0.317   4.575   8.910  0.2422 -0.2059 -2.1721
   24SAPC   C33 3200   0.226   5.086  10.303  0.3385  0.2723  0.0226
   24SAPC   H3X 3201   0.228   5.018  10.391 -0.9854 -1.3731 -1.1214
   24SAPC   H3Y 3202   0.309   5.156  10.324 -0.0166  1.8081 -3.0745
   24SAPC   C34 3203   0.244   5.015  10.165 -0.1217  0.3150  0.0400
   24SAPC   H4X 3204   0.160   4.944  10.150 -0.5977  0.4324  1.8130
   24SAPC   H4Y 3205   0.343   4.965  10.175  0.3933  1.5737  1.8090
   24SAPC   C35 3206   0.264   5.107  10.039  0.0958 -0.5883 -1.0717
   24SAPC   H5X 3207   0.290   5.211  10.068 -2.5191 -0.4904  1.3447
   24SAPC   H5Y 3208   0.169   5.114   9.982  0.7822  0.2350 -2.1620
   24SAPC   C36 3209   0.359   5.042   9.929 -0.0434 -0.3659  0.0297
   24SAPC   H6X 3210   0.355   4.932   9.946  0.7243 -0.3812  0.1492
   24SAPC   H6Y 3211   0.463   5.079   9.947 -0.4807  0.8091  0.2414
   24SAPC   C37 3212   0.346   5.089   9.782  0.3188  0.0139  0.7425
   24SAPC   H7X 3213   0.371   5.197   9.784 -0.9775  0.4170 -1.3122
   24SAPC   H7Y 3214   0.238   5.074   9.762  0.7691 -2.8400  0.0206
   24SAPC   C38 3215   0.428   5.031   9.664  0.2362 -0.0266  0.0104
   24SAPC   H8X 3216   0.396   4.930   9.633 -1.4265  1.3823 -3.4047
   24SAPC   H8Y 3217   0.534   5.017   9.691 -0.2274 -1.9637  0.9600
   24SAPC   C39 3218   0.436   5.114   9.528 -0.2333 -0.0277 -0.6760
   24SAPC   H9X 3219   0.502   5.061   9.457  2.3921  1.8445  0.2393
   24SAPC   H9Y 3220   0.474   5.214   9.555  1.8312 -1.5467  2.8178
   24SAPC  C310 3221   0.305   5.133   9.455  0.1775  0.5356 -0.0643
   24SAPC  H10X 3222   0.331   5.200   9.370 -1.0961 -0.7153 -1.5073
   24SAPC  H10Y 3223   0.225   5.185   9.513  0.7377 -0.6308  1.8545
   24SAPC  C311 3224   0.246   5.003   9.402  0.1018 -0.4560 -0.0642
   24SAPC  H11X 3225   0.194   4.944   9.481 -2.4172 -0.5602 -1.6637
   24SAPC  H11Y 3226   0.325   4.938   9.358 -0.4389 -0.1748 -1.4947
   24SAPC  C312 3227   0.158   5.040   9.285 -0.4513  0.0571  0.1087
   24SAPC  H12X 3228   0.101   5.131   9.313 -1.3947  0.0836 -1.7893
   24SAPC  H12Y 3229   0.086   4.956   9.281  2.7903 -3.0050  0.6790
   24SAPC  C313 3230   0.230   5.071   9.152 -0.4648  1.5471 -0.1611
   24SAPC  H13X 3231   0.280   4.974   9.128 -0.1007  1.7628 -0.2860
   24SAPC  H13Y 3232   0.302   5.155   9.152  0.8243  0.4872 -0.1569
   24SAPC  C314 3233   0.129   5.092   9.045 -0.3868  0.4804  0.3545
   24SAPC  H14X 3234   0.078   5.189   9.059  1.5019  1.5086  0.4430
   24SAPC  H14Y 3235   0.054   5.011   9.059  0.1723 -0.1778 -0.3637
   24SAPC  C315 3236   0.195   5.078   8.907 -0.0051  0.0536 -0.6059
   24SAPC  H15X 3237   0.249   4.981   8.909  0.5985  0.3790 -0.9968
   24SAPC  H15Y 3238   0.257   5.170   8.904 -0.8217  0.5893 -2.2664
   24SAPC  C316 3239   0.100   5.095   8.789  0.7100  0.3920  0.1211
   24SAPC  H16X 3240   0.162   5.107   8.698 -0.6481  3.0210 -0.5490
   24SAPC  H16Y 3241   0.053   5.189   8.826  0.0163 -0.5168  1.6150
   24SAPC  C317 3242  -0.004   4.986   8.762 -0.4895 -0.3998 -0.6035
   24SAPC  H17X 3243  -0.076   4.978   8.847  2.7963  0.4306  2.4865
   24SAPC  H17Y 3244   0.046   4.887   8.760 -2.4971 -1.4990  0.5503
   24SAPC  C318 3245  -0.074   5.003   8.627  0.3490  0.6437 -0.0414
   24SAPC  H18X 3246  -0.158   4.932   8.610  0.5410  0.1402  1.0312
   24SAPC  H18Y 3247   0.007   4.999   8.551  0.1651  1.9513 -0.3258
   24SAPC  H18Z 3248  -0.134   5.094   8.646 -2.2836 -0.9100 -0.3445
   25SAPC     N 3249   3.407   0.861   5.800 -0.2854 -0.6892  0.5382
   25SAPC   C12 3250   3.303   0.965   5.804 -0.6408  0.3589 -0.1289
   25SAPC  H12A 3251   3.212   0.914   5.778  0.2802 -1.2157 -0.3638
   25SAPC  H12B 3252   3.318   1.039   5.727 -0.5196  0.2242 -0.2331
   25SAPC   C13 3253   3.385   0.760   5.910  0.9730 -0.5187  0.3191
   25SAPC  H13A 3254   3.452   0.676   5.899  0.8445 -0.6782  0.7304
   25SAPC  H13B 3255   3.420   0.801   6.003  2.2645 -1.7813  0.4279
   25SAPC  H13C 3256   3.285   0.721   5.914  1.7289 -2.5303  0.8682
   25SAPC   C14 3257   3.406   0.795   5.669 -0.7163  0.9057  0.4743
   25SAPC  H14A 3258   3.473   0.711   5.679  0.8979  2.0948 -0.0413
   25SAPC  H14B 3259   3.306   0.775   5.634 -0.8206  2.6149 -0.2742
   25SAPC  H14C 3260   3.457   0.852   5.593 -1.8355 -1.4712 -2.2680
   25SAPC   C15 3261   3.539   0.927   5.817 -0.3065 -0.5849  0.2160
   25SAPC  H15A 3262   3.549   1.022   5.767 -0.3929  0.0771  1.4254
   25SAPC  H15B 3263   3.554   0.948   5.922  3.4813  0.0567 -0.2872
   25SAPC  H15C 3264   3.618   0.862   5.781 -0.7301 -0.0713 -1.7669
   25SAPC   C11 3265   3.278   1.037   5.935  0.6595  0.0945  0.3266
   25SAPC  H11A 3266   3.363   1.043   6.007  2.1811 -0.7603 -1.3075
   25SAPC  H11B 3267   3.200   0.978   5.989 -1.0258  1.2333 -0.7852
   25SAPC     P 3268   3.321   1.294   5.908 -0.1525  0.0421 -0.5418
   25SAPC   O13 3269   3.453   1.271   5.846 -0.3936  0.3247 -0.3753
   25SAPC   O14 3270   3.243   1.405   5.849 -0.3656  0.2826  0.0627
   25SAPC   O12 3271   3.227   1.167   5.906 -0.2270 -0.1874 -0.6341
   25SAPC   O11 3272   3.337   1.339   6.061  0.4239 -0.5133 -0.5021
   25SAPC    C1 3273   3.218   1.329   6.154  0.3840 -0.0443  0.2323
   25SAPC    HA 3274   3.194   1.425   6.203 -0.9791 -0.3178  0.1534
   25SAPC    HB 3275   3.119   1.314   6.106  0.6837 -0.7616 -0.1787
   25SAPC    C2 3276   3.234   1.211   6.254 -0.0506 -1.0234  0.2970
   25SAPC    HS 3277   3.257   1.122   6.192 -0.7891 -0.5344 -0.7106
   25SAPC   O21 3278   3.107   1.199   6.316  1.0826 -0.1735  0.3234
   25SAPC   C21 3279   3.062   1.075   6.352  0.1623  0.0661  0.6259
   25SAPC   O22 3280   3.119   0.969   6.322  0.5607 -0.1818 -0.0604
   25SAPC   C22 3281   2.946   1.078   6.438  0.2675 -0.5940 -0.2258
   25SAPC   H2R 3282   2.928   1.183   6.471  3.0599 -0.8276  2.4604
   25SAPC   H2S 3283   2.862   1.042   6.374  0.2242  1.9020 -1.7071
   25SAPC    C3 3284   3.343   1.240   6.369  0.4058  0.4963  0.1305
   25SAPC    HX 3285   3.329   1.338   6.419  1.6737 -0.1333  1.8305
   25SAPC    HY 3286   3.442   1.246   6.318  0.8957 -2.6221  0.5296
   25SAPC   O31 3287   3.339   1.138   6.472 -0.1768 -0.4396  0.0922
   25SAPC   C31 3288   3.425   1.032   6.452 -0.1769  0.9976 -0.5012
   25SAPC   O32 3289   3.485   1.011   6.347 -0.4786 -0.1346 -0.0038
   25SAPC   C32 3290   3.422   0.940   6.576 -0.1605 -0.0473 -0.3428
   25SAPC   H2X 3291   3.497   0.859   6.566 -0.8450 -1.0873  2.0865
   25SAPC   H2Y 3292   3.321   0.892   6.582  0.7431 -1.8969  1.4542
   25SAPC   C23 3293   2.964   0.998   6.573  0.2389 -0.3926 -0.9993
   25SAPC   H3R 3294   2.983   0.894   6.540 -0.6504 -0.4814 -1.2460
   25SAPC   H3S 3295   2.867   0.998   6.629 -0.1724 -0.6475 -1.7002
   25SAPC   C24 3296   3.067   1.051   6.667 -0.9871  0.5879  0.0503
   25SAPC   H4R 3297   3.050   1.160   6.681 -1.6922  0.9023 -2.6787
   25SAPC   H4S 3298   3.168   1.031   6.625  0.0163  1.8320  1.7115
   25SAPC   C25 3299   3.075   0.972   6.800 -0.3087  0.2792  0.6706
   25SAPC   H5R 3300   3.070   0.863   6.790  1.8711  0.0704  1.3148
   25SAPC   C26 3301   3.070   1.027   6.923 -0.6945  0.0281 -0.4043
   25SAPC   H6R 3302   3.093   0.955   7.003  1.1354 -1.7408 -2.3962
   25SAPC   C27 3303   3.077   1.176   6.967  0.2268  0.5178 -0.1387
   25SAPC   H7R 3304   2.982   1.203   7.018  0.0899  2.1067 -1.1677
   25SAPC   H7S 3305   3.082   1.242   6.877 -0.0389  0.9543  0.1652
   25SAPC   C28 3306   3.195   1.200   7.067 -0.2713  0.2098  0.7745
   25SAPC   H8R 3307   3.291   1.229   7.022 -1.3243  0.0430 -1.7167
   25SAPC   C29 3308   3.187   1.187   7.202 -0.3739 -0.2264 -0.0241
   25SAPC   H9R 3309   3.278   1.216   7.257 -0.0664  1.2066 -1.2163
   25SAPC  C210 3310   3.065   1.156   7.283 -0.1964  0.1162 -0.8091
   25SAPC  H10R 3311   2.987   1.107   7.222 -1.5032  1.2231 -0.1020
   25SAPC  H10S 3312   3.028   1.255   7.320 -1.0159 -1.2616  2.4719
   25SAPC  C211 3313   3.085   1.055   7.400 -0.6902 -0.1076 -0.3885
   25SAPC  H11R 3314   3.114   0.950   7.382  0.6080  0.1579  0.0408
   25SAPC  C212 3315   3.056   1.070   7.531  0.7014  0.1339 -0.4176
   25SAPC  H12R 3316   3.078   0.993   7.606  0.9369 -0.1209 -0.7490
   25SAPC  C213 3317   2.986   1.193   7.589 -0.6101 -0.6003 -0.4844
   25SAPC  H13R 3318   2.916   1.237   7.515 -0.5124  0.5912  0.1090
   25SAPC  H13S 3319   3.067   1.266   7.612  0.2757 -1.5464 -0.5086
   25SAPC  C214 3320   2.914   1.165   7.723 -0.3668  0.1949  0.5398
   25SAPC  H14R 3321   2.812   1.126   7.710 -0.4144  0.3093  0.5765
   25SAPC  C215 3322   2.979   1.165   7.844  0.0378 -0.0771  0.5258
   25SAPC  H15R 3323   2.922   1.134   7.933 -0.8907  0.0966 -0.0003
   25SAPC  C216 3324   3.126   1.202   7.877 -0.0754  0.2103 -0.4120
   25SAPC  H16R 3325   3.185   1.218   7.784  2.0713  0.6040  0.9325
   25SAPC  H16S 3326   3.165   1.108   7.921 -0.8682  0.2137  0.3058
   25SAPC  C217 3327   3.132   1.318   7.966  0.0345 -0.2688  0.0296
   25SAPC  H17R 3328   3.065   1.401   7.938 -0.2079 -0.4427  0.0941
   25SAPC  H17S 3329   3.237   1.355   7.965 -0.7490  2.2978 -2.6494
   25SAPC  C218 3330   3.100   1.287   8.116 -0.2820 -0.0843  0.2007
   25SAPC  H18R 3331   3.181   1.229   8.165 -1.3325  1.0069  3.5212
   25SAPC  H18S 3332   3.005   1.229   8.116 -0.3694 -0.0514 -2.1254
   25SAPC  C219 3333   3.084   1.412   8.200 -0.5612 -0.0065  0.5229
   25SAPC  H19R 3334   3.169   1.481   8.180 -0.3732 -0.1756  0.7258
   25SAPC  H19S 3335   3.095   1.377   8.305  1.5206 -0.8924  0.0584
   25SAPC  C220 3336   2.955   1.497   8.185  0.2816  0.2586 -0.1848
   25SAPC  H20R 3337   2.961   1.585   8.252 -0.1034  1.4135 -1.6219
   25SAPC  H20S 3338   2.859   1.447   8.208  0.4966 -0.1857 -0.2485
   25SAPC  H20T 3339   2.939   1.528   8.080 -3.1581 -0.1326  0.1043
   25SAPC   C33 3340   3.456   1.017   6.707  0.4191 -0.1272  1.0432
   25SAPC   H3X 3341   3.367   1.076   6.738 -1.0446 -0.9356 -1.3112
   25SAPC   H3Y 3342   3.548   1.079   6.706 -0.3692  1.0932 -0.2305
   25SAPC   C34 3343   3.484   0.923   6.828 -0.9581 -1.0554 -0.9800
   25SAPC   H4X 3344   3.571   0.859   6.804 -1.0033 -1.3073 -0.4887
   25SAPC   H4Y 3345   3.406   0.844   6.838 -0.9176 -0.9310  0.4553
   25SAPC   C35 3346   3.510   0.996   6.957 -0.9297  0.5957 -0.7807
   25SAPC   H5X 3347   3.437   1.080   6.964 -0.9225  0.5709 -0.4006
   25SAPC   H5Y 3348   3.604   1.056   6.949  0.3086 -1.4211 -2.2753
   25SAPC   C36 3349   3.498   0.922   7.091 -0.1032 -0.1615  0.8241
   25SAPC   H6X 3350   3.558   0.831   7.072 -0.4244  0.1791 -2.3513
   25SAPC   H6Y 3351   3.393   0.889   7.110  0.1722 -1.5392  0.0674
   25SAPC   C37 3352   3.534   1.004   7.208  0.1508 -0.5785  0.5306
   25SAPC   H7X 3353   3.490   1.105   7.195 -3.1654 -1.8121  1.3338
   25SAPC   H7Y 3354   3.645   1.007   7.221  0.4712  1.2669 -1.9163
   25SAPC   C38 3355   3.493   0.935   7.338  0.1408  0.4791  0.6422
   25SAPC   H8X 3356   3.517   0.827   7.337 -0.8284  0.2549 -0.5404
   25SAPC   H8Y 3357   3.383   0.950   7.346  0.0993  1.5535 -1.2198
   25SAPC   C39 3358   3.556   1.005   7.454 -0.7912 -0.2310 -0.7175
   25SAPC   H9X 3359   3.564   1.114   7.436  0.9632 -0.4785 -1.7138
   25SAPC   H9Y 3360   3.660   0.964   7.458 -0.2936  1.0733  1.2208
   25SAPC  C310 3361   3.490   0.965   7.582  0.4968 -0.5202 -0.3412
   25SAPC  H10X 3362   3.508   0.858   7.606  0.2477 -0.3164  0.8351
   25SAPC  H10Y 3363   3.380   0.974   7.578  0.3661 -1.3171  0.8996
   25SAPC  C311 3364   3.542   1.047   7.705  0.3068  0.4005  0.1795
   25SAPC  H11X 3365   3.521   1.152   7.677 -2.1742 -0.0520  0.1253
   25SAPC  H11Y 3366   3.650   1.017   7.707 -0.0523 -1.0152 -0.4104
   25SAPC  C312 3367   3.459   1.008   7.826  0.7202  0.5295  0.3329
   25SAPC  H12X 3368   3.449   0.898   7.831  2.5148  0.3500  0.4759
   25SAPC  H12Y 3369   3.362   1.062   7.814  0.7064  0.3373 -0.5019
   25SAPC  C313 3370   3.524   1.065   7.955  0.5095 -0.1915 -0.8596
   25SAPC  H13X 3371   3.514   1.176   7.958 -0.0385 -0.2480 -0.1434
   25SAPC  H13Y 3372   3.628   1.030   7.943  0.3023  0.1422 -5.4464
   25SAPC  C314 3373   3.459   1.008   8.085 -0.2053  0.0006  0.0695
   25SAPC  H14X 3374   3.352   1.029   8.066  0.4237  1.6570 -1.9430
   25SAPC  H14Y 3375   3.505   1.065   8.168  2.2826  0.8370 -1.7629
   25SAPC  C315 3376   3.502   0.862   8.109 -0.3857 -0.3817  0.6213
   25SAPC  H15X 3377   3.612   0.862   8.115 -0.1383 -0.3715 -2.4132
   25SAPC  H15Y 3378   3.475   0.791   8.029 -0.6334 -0.9497  1.2030
   25SAPC  C316 3379   3.440   0.816   8.238  0.2234  0.0046  0.8937
   25SAPC  H16X 3380   3.455   0.706   8.232  0.8298  0.0719  1.1519
   25SAPC  H16Y 3381   3.333   0.845   8.234  0.4203  0.6189 -0.3424
   25SAPC  C317 3382   3.505   0.860   8.368 -0.5348 -1.0582 -0.0630
   25SAPC  H17X 3383   3.485   0.969   8.379  0.8680 -0.7763 -0.0266
   25SAPC  H17Y 3384   3.612   0.832   8.357 -0.7152 -1.3113 -1.2866
   25SAPC  C318 3385   3.437   0.787   8.485  0.6259 -0.5199  0.0228
   25SAPC  H18X 3386   3.453   0.679   8.466  2.5594  0.0274 -1.8276
   25SAPC  H18Y 3387   3.328   0.810   8.496  0.8787  0.5924  0.3246
   25SAPC  H18Z 3388   3.501   0.815   8.571  3.2283 -1.5415 -1.4861
   26SAPC     N 3389   1.204   4.948   6.137 -0.2471 -0.0432 -0.7098
   26SAPC   C12 3390   1.206   4.972   6.290  0.3498 -0.2507  0.8392
   26SAPC  H12A 3391   1.135   4.904   6.335 -0.5596 -0.7605 -1.2431
   26SAPC  H12B 3392   1.163   5.070   6.307 -2.1853 -0.8140 -1.6694
   26SAPC   C13 3393   1.292   5.040   6.059 -0.0872  0.0707  0.0153
   26SAPC  H13A 3394   1.289   5.002   5.958 -0.3389 -2.8554  1.0287
   26SAPC  H13B 3395   1.257   5.142   6.059 -0.5851 -0.0945 -0.2137
   26SAPC  H13C 3396   1.394   5.036   6.092  0.4460 -0.3954 -1.6141
   26SAPC   C14 3397   1.240   4.805   6.115  0.5299 -0.1619  0.4061
   26SAPC  H14A 3398   1.264   4.778   6.013 -0.1372 -2.6334  0.8493
   26SAPC  H14B 3399   1.325   4.781   6.178 -1.0837 -1.3496  2.2344
   26SAPC  H14C 3400   1.154   4.750   6.149 -0.8942  1.3187 -0.6192
   26SAPC   C15 3401   1.064   4.963   6.080 -0.1725  0.6016 -0.3000
   26SAPC  H15A 3402   1.027   5.062   6.100 -0.9941  0.1464  0.5004
   26SAPC  H15B 3403   1.070   4.946   5.973  1.2339 -1.9310  0.0792
   26SAPC  H15C 3404   0.998   4.885   6.116  1.0582 -1.6352 -2.5172
   26SAPC   C11 3405   1.346   4.978   6.360 -0.1652  0.1762  0.1228
   26SAPC  H11A 3406   1.355   5.043   6.449 -0.4750  0.5236 -0.0989
   26SAPC  H11B 3407   1.417   5.026   6.289  1.0279  0.4865  1.4701
   26SAPC     P 3408   1.341   4.771   6.499 -0.3021  0.0422 -0.0216
   26SAPC   O13 3409   1.196   4.741   6.479  0.1125  0.1646  0.5945
   26SAPC   O14 3410   1.429   4.659   6.526  0.3315  0.3122 -0.2741
   26SAPC   O12 3411   1.400   4.843   6.377  0.1139  0.6036 -0.0509
   26SAPC   O11 3412   1.362   4.870   6.620  0.3082 -0.1361  0.1495
   26SAPC    C1 3413   1.497   4.886   6.661  0.3248 -0.7531 -0.4166
   26SAPC    HA 3414   1.539   4.788   6.693 -1.2845 -2.1351 -2.2970
   26SAPC    HB 3415   1.557   4.921   6.574 -0.5294 -1.2126 -1.2069
   26SAPC    C2 3416   1.511   4.996   6.772 -0.2799 -0.4626 -0.5377
   26SAPC    HS 3417   1.618   5.024   6.771  0.5159 -2.2104  4.6053
   26SAPC   O21 3418   1.472   4.948   6.903  0.2630  0.3388 -0.1033
   26SAPC   C21 3419   1.571   4.880   6.972  0.6196 -0.9002  0.1151
   26SAPC   O22 3420   1.685   4.870   6.937 -0.4257 -0.3945 -0.1087
   26SAPC   C22 3421   1.506   4.823   7.099  0.0128  0.2939 -0.1417
   26SAPC   H2R 3422   1.417   4.883   7.130  0.4564  0.3874  1.0247
   26SAPC   H2S 3423   1.470   4.722   7.071 -0.1941  0.2790  0.1675
   26SAPC    C3 3424   1.418   5.123   6.734  0.6802  0.9304 -0.2816
   26SAPC    HX 3425   1.316   5.085   6.713  0.3924 -0.7949  3.4975
   26SAPC    HY 3426   1.455   5.171   6.641 -0.7504 -0.7741 -1.8062
   26SAPC   O31 3427   1.401   5.201   6.849  0.0733 -0.3195 -0.5334
   26SAPC   C31 3428   1.484   5.302   6.858 -0.3125 -0.5888 -0.0677
   26SAPC   O32 3429   1.565   5.341   6.775  0.1983  0.5637 -0.0239
   26SAPC   C32 3430   1.458   5.381   6.985 -0.0601 -0.0980 -0.2094
   26SAPC   H2X 3431   1.362   5.437   6.976 -1.0046 -1.7468 -1.0371
   26SAPC   H2Y 3432   1.540   5.455   6.988  0.3308 -0.5241 -0.2834
   26SAPC   C23 3433   1.604   4.808   7.214 -1.0322  0.6811  0.8849
   26SAPC   H3R 3434   1.683   4.738   7.179 -2.1849  0.1699 -0.8048
   26SAPC   H3S 3435   1.548   4.760   7.297 -1.1670 -2.1966 -0.7386
   26SAPC   C24 3436   1.649   4.950   7.267  0.3260  0.0056  0.3223
   26SAPC   H4R 3437   1.553   5.006   7.279  0.4447  0.9448 -2.4540
   26SAPC   H4S 3438   1.704   5.004   7.187 -0.7971  0.4318 -0.1883
   26SAPC   C25 3439   1.733   4.961   7.390  0.1049 -0.0032  0.6222
   26SAPC   H5R 3440   1.842   4.948   7.381  0.3952  0.5746  2.7559
   26SAPC   C26 3441   1.687   4.994   7.514 -0.7120  0.7394 -0.5913
   26SAPC   H6R 3442   1.753   5.008   7.601 -2.3797 -2.7826  1.4747
   26SAPC   C27 3443   1.537   5.015   7.539 -0.6685 -0.7816  0.3316
   26SAPC   H7R 3444   1.484   5.057   7.451 -0.6045  0.9098  1.0683
   26SAPC   H7S 3445   1.525   5.093   7.616 -1.7489  0.0330 -0.6244
   26SAPC   C28 3446   1.465   4.896   7.578 -0.2396  0.4354  0.4070
   26SAPC   H8R 3447   1.462   4.821   7.498 -1.0194 -0.1330  0.9491
   26SAPC   C29 3448   1.421   4.859   7.700 -0.5556  0.2245 -0.4537
   26SAPC   H9R 3449   1.354   4.773   7.714  1.6890 -1.2886  1.9245
   26SAPC  C210 3450   1.445   4.949   7.817  0.1293  0.1637  0.3412
   26SAPC  H10R 3451   1.391   5.045   7.802  1.8818  0.9128 -1.6775
   26SAPC  H10S 3452   1.552   4.978   7.813  0.3492 -0.5252  0.9270
   26SAPC  C211 3453   1.399   4.882   7.948 -0.4184  0.6510  0.3015
   26SAPC  H11R 3454   1.329   4.797   7.947 -1.1836  1.2144  2.0485
   26SAPC  C212 3455   1.459   4.913   8.063 -0.0640 -0.3654 -0.2288
   26SAPC  H12R 3456   1.426   4.860   8.154 -3.1146 -0.4672 -1.2702
   26SAPC  C213 3457   1.567   5.021   8.087  0.3861  0.1788  0.3437
   26SAPC  H13R 3458   1.547   5.076   8.181 -2.7890  0.2469 -0.2721
   26SAPC  H13S 3459   1.547   5.100   8.011  0.9291 -0.3070 -0.3108
   26SAPC  C214 3460   1.708   4.977   8.059 -0.5158  0.9737  0.3626
   26SAPC  H14R 3461   1.724   4.915   7.969 -0.4359  1.0065  0.3536
   26SAPC  C215 3462   1.820   5.007   8.130  0.5172 -0.3665  0.5633
   26SAPC  H15R 3463   1.908   4.944   8.114 -0.3082 -1.9440  1.8769
   26SAPC  C216 3464   1.827   5.095   8.257  0.1288  0.5972  0.7052
   26SAPC  H16R 3465   1.866   5.036   8.342 -2.2594 -0.9950  0.8016
   26SAPC  H16S 3466   1.729   5.134   8.293 -0.2287  0.7843 -0.4445
   26SAPC  C217 3467   1.918   5.221   8.243  0.9813  0.4930 -0.7462
   26SAPC  H17R 3468   1.900   5.291   8.328  0.2020  0.6191 -1.0015
   26SAPC  H17S 3469   1.903   5.275   8.147 -0.1850 -0.0051 -0.8724
   26SAPC  C218 3470   2.069   5.186   8.266  0.5463  0.7388 -0.5850
   26SAPC  H18R 3471   2.094   5.084   8.228  0.6462  0.3881  0.3863
   26SAPC  H18S 3472   2.090   5.192   8.374 -1.9800 -0.2838  0.0419
   26SAPC  C219 3473   2.156   5.279   8.190  0.4190 -0.0643 -0.3757
   26SAPC  H19R 3474   2.260   5.258   8.224  0.3033 -0.9699 -0.5524
   26SAPC  H19S 3475   2.136   5.384   8.220 -0.4673 -0.4375  0.3941
   26SAPC  C220 3476   2.137   5.269   8.041 -0.3651 -0.0125  0.7662
   26SAPC  H20R 3477   2.035   5.273   7.997 -1.1677  0.1183  2.5704
   26SAPC  H20S 3478   2.178   5.171   8.008  1.3341  0.7181  0.6022
   26SAPC  H20T 3479   2.198   5.348   7.991 -0.9873  1.0882  1.7047
   26SAPC   C33 3480   1.461   5.301   7.119 -0.1973  0.2787 -0.2537
   26SAPC   H3X 3481   1.558   5.252   7.144  0.9242  2.6393  0.2318
   26SAPC   H3Y 3482   1.387   5.217   7.120 -0.7664  0.7614  1.3764
   26SAPC   C34 3483   1.426   5.395   7.236  0.6084  0.1032 -0.4077
   26SAPC   H4X 3484   1.330   5.450   7.226  0.0456 -0.6554  0.5832
   26SAPC   H4Y 3485   1.501   5.477   7.242 -0.3248  0.8753  2.1085
   26SAPC   C35 3486   1.429   5.318   7.372 -0.3149  0.6861  0.3991
   26SAPC   H5X 3487   1.533   5.278   7.380 -0.3602  0.6681  0.9616
   26SAPC   H5Y 3488   1.356   5.236   7.360 -1.8136  2.2186 -1.5018
   26SAPC   C36 3489   1.383   5.408   7.494 -0.4681  0.2696  0.1012
   26SAPC   H6X 3490   1.277   5.437   7.483  0.3896  3.8882  0.1760
   26SAPC   H6Y 3491   1.445   5.499   7.483 -0.9154  0.7243  1.2664
   26SAPC   C37 3492   1.408   5.329   7.625 -0.0862 -0.3467  0.4169
   26SAPC   H7X 3493   1.517   5.307   7.625 -0.3654 -2.5692 -3.4026
   26SAPC   H7Y 3494   1.355   5.231   7.620 -2.3412  0.7825  0.9657
   26SAPC   C38 3495   1.350   5.405   7.742 -0.0454 -0.4928 -1.2057
   26SAPC   H8X 3496   1.241   5.427   7.739 -0.7321 -3.4618 -1.3428
   26SAPC   H8Y 3497   1.399   5.505   7.744 -1.6076  0.3606 -2.8413
   26SAPC   C39 3498   1.373   5.327   7.873  0.0252  0.9155  0.5082
   26SAPC   H9X 3499   1.471   5.276   7.869  0.2750  1.4408 -0.1836
   26SAPC   H9Y 3500   1.296   5.247   7.884  0.9736 -0.0046  0.6842
   26SAPC  C310 3501   1.349   5.428   7.987 -0.4433 -0.3017  0.5977
   26SAPC  H10X 3502   1.243   5.461   7.984 -0.0931  1.1118  1.9529
   26SAPC  H10Y 3503   1.403   5.525   7.977  1.7238 -1.6038 -1.3536
   26SAPC  C311 3504   1.379   5.361   8.123  0.3633  0.1907 -0.3759
   26SAPC  H11X 3505   1.412   5.434   8.199 -2.2720  0.4496  0.6454
   26SAPC  H11Y 3506   1.457   5.284   8.105  1.7623  1.0617  1.6718
   26SAPC  C312 3507   1.254   5.298   8.192  0.1085  0.0510 -0.3551
   26SAPC  H12X 3508   1.179   5.260   8.119  0.5350 -0.3874 -0.5690
   26SAPC  H12Y 3509   1.198   5.380   8.241 -1.0188 -0.6406 -0.4528
   26SAPC  C313 3510   1.298   5.190   8.295  0.5830 -0.4059 -0.6468
   26SAPC  H13X 3511   1.398   5.212   8.338 -0.5111  0.0943  1.8395
   26SAPC  H13Y 3512   1.335   5.099   8.242  0.0526  0.1995 -2.0917
   26SAPC  C314 3513   1.196   5.148   8.403  0.3160 -0.0107 -0.8920
   26SAPC  H14X 3514   1.160   5.243   8.449  1.0118  0.5267 -1.4384
   26SAPC  H14Y 3515   1.247   5.092   8.483  1.4017 -2.0544 -2.9235
   26SAPC  C315 3516   1.076   5.066   8.345  0.2943 -0.1480 -0.1504
   26SAPC  H15X 3517   1.107   4.974   8.291 -1.3298 -0.0187 -1.4047
   26SAPC  H15Y 3518   1.012   5.129   8.278 -1.5391 -0.2863  1.3717
   26SAPC  C316 3519   0.974   5.025   8.457 -0.6860 -0.6225 -0.4388
   26SAPC  H16X 3520   1.026   4.947   8.517 -0.0158 -0.0567 -0.2743
   26SAPC  H16Y 3521   0.893   4.979   8.397 -1.4930 -1.4312  1.1904
   26SAPC  C317 3522   0.924   5.134   8.549 -0.5817  0.2986  0.0237
   26SAPC  H17X 3523   1.006   5.180   8.608 -1.4770 -1.2964  2.7012
   26SAPC  H17Y 3524   0.873   5.098   8.641  0.2628  0.6577  0.6432
   26SAPC  C318 3525   0.832   5.234   8.476 -0.2748 -0.0553  0.4606
   26SAPC  H18X 3526   0.803   5.320   8.541  4.6063  1.8939  0.5351
   26SAPC  H18Y 3527   0.746   5.172   8.445  0.3865 -2.2943  2.7474
   26SAPC  H18Z 3528   0.885   5.270   8.385  2.6488 -1.6512  1.4063
   27SAPC     N 3529   1.922   5.177   6.342 -0.1802  0.4579 -0.0697
   27SAPC   C12 3530   1.916   5.057   6.439  0.6611 -0.0729 -0.0318
   27SAPC  H12A 3531   1.818   5.015   6.423 -0.1120  1.4666  0.5031
   27SAPC  H12B 3532   1.930   5.094   6.539  1.0464  0.9020 -0.4372
   27SAPC   C13 3533   1.806   5.270   6.356  0.0336 -0.9688 -0.2975
   27SAPC  H13A 3534   1.780   5.299   6.457 -0.6189 -1.3810 -0.3418
   27SAPC  H13B 3535   1.820   5.365   6.308  0.0339 -1.8204 -2.0492
   27SAPC  H13C 3536   1.717   5.223   6.316 -0.7957 -0.0062  0.3756
   27SAPC   C14 3537   2.051   5.250   6.372 -0.2535  0.5516 -0.3145
   27SAPC  H14A 3538   2.079   5.322   6.296 -0.8760 -0.6037 -1.6615
   27SAPC  H14B 3539   2.053   5.290   6.473 -0.8084  1.6114 -0.7025
   27SAPC  H14C 3540   2.127   5.175   6.389  1.6070  1.0500 -4.9836
   27SAPC   C15 3541   1.936   5.143   6.204  0.3732 -0.5964  0.4484
   27SAPC  H15A 3542   2.030   5.092   6.186  0.3715 -0.6276  0.5283
   27SAPC  H15B 3543   1.855   5.077   6.178 -0.0448 -0.6249  1.7640
   27SAPC  H15C 3544   1.907   5.226   6.142 -2.1943  0.0565  2.3909
   27SAPC   C11 3545   2.026   4.949   6.425 -0.5708  0.5745  0.4210
   27SAPC  H11A 3546   2.016   4.920   6.318  1.2292 -1.7374  0.7876
   27SAPC  H11B 3547   2.003   4.858   6.484 -1.7268  1.9603  2.2007
   27SAPC     P 3548   2.215   5.027   6.586  0.4302 -0.2266 -0.0547
   27SAPC   O13 3549   2.364   5.025   6.571  0.3397  0.1902  0.1481
   27SAPC   O14 3550   2.149   5.148   6.641  0.8153 -0.0815 -0.1608
   27SAPC   O12 3551   2.154   5.004   6.445 -0.0572  0.7445  0.6685
   27SAPC   O11 3552   2.173   4.901   6.670  0.6271  0.9122 -0.7073
   27SAPC    C1 3553   2.226   4.772   6.642  0.4458 -0.2153  0.7184
   27SAPC    HA 3554   2.224   4.742   6.535 -1.0666 -2.7644  1.3790
   27SAPC    HB 3555   2.331   4.765   6.679  0.4111  0.4666  0.9649
   27SAPC    C2 3556   2.148   4.662   6.715 -0.3922  0.8574 -0.3498
   27SAPC    HS 3557   2.045   4.647   6.676 -0.2161 -2.0485  0.0525
   27SAPC   O21 3558   2.147   4.697   6.855  0.4297  0.4255  0.1188
   27SAPC   C21 3559   2.055   4.629   6.928 -0.3398 -0.3657  0.5671
   27SAPC   O22 3560   1.984   4.541   6.881 -0.1626 -0.4014 -0.5753
   27SAPC   C22 3561   2.052   4.683   7.068 -0.8990  0.4057 -0.7703
   27SAPC   H2R 3562   2.155   4.684   7.109 -1.6254  0.7597  1.1741
   27SAPC   H2S 3563   2.009   4.785   7.079 -0.6368  0.4464 -0.0870
   27SAPC    C3 3564   2.224   4.525   6.700  0.1843 -0.6355 -0.6609
   27SAPC    HX 3565   2.207   4.495   6.594 -2.3275 -0.6095 -0.3188
   27SAPC    HY 3566   2.183   4.445   6.765  0.2423  1.5495  2.2656
   27SAPC   O31 3567   2.361   4.543   6.748 -0.0381  0.3906 -0.2763
   27SAPC   C31 3568   2.456   4.528   6.665  0.0175 -0.6622  0.1600
   27SAPC   O32 3569   2.442   4.543   6.543  0.4812 -0.0732  0.1603
   27SAPC   C32 3570   2.590   4.494   6.733 -0.6549 -1.0677  0.3385
   27SAPC   H2X 3571   2.652   4.582   6.758 -1.3550 -0.2121 -0.8291
   27SAPC   H2Y 3572   2.649   4.441   6.655  0.0587  0.2431 -0.0414
   27SAPC   C23 3573   1.958   4.591   7.153  0.0183 -0.5136  0.4287
   27SAPC   H3R 3574   1.998   4.487   7.153  0.3417 -0.3905 -0.2364
   27SAPC   H3S 3575   1.856   4.591   7.109  0.5655  0.8801 -0.9282
   27SAPC   C24 3576   1.961   4.656   7.293 -0.1254  0.0488 -0.1562
   27SAPC   H4R 3577   1.861   4.649   7.340 -0.3275  1.9797 -0.2022
   27SAPC   H4S 3578   1.962   4.766   7.276  0.9825  0.3032  1.2882
   27SAPC   C25 3579   2.083   4.620   7.378  0.6286 -0.3505  0.1288
   27SAPC   H5R 3580   2.183   4.622   7.332 -0.8539 -0.1516 -3.3669
   27SAPC   C26 3581   2.072   4.584   7.512  0.0874  0.7133  0.7126
   27SAPC   H6R 3582   2.160   4.548   7.567 -0.3270  0.4354  1.2040
   27SAPC   C27 3583   1.945   4.557   7.598  0.5806 -1.1512  0.4679
   27SAPC   H7R 3584   1.965   4.484   7.679 -0.8083  0.0291  1.9271
   27SAPC   H7S 3585   1.869   4.510   7.532 -0.8151  1.3682  0.1380
   27SAPC   C28 3586   1.875   4.680   7.643 -0.2310  0.2632 -0.7687
   27SAPC   H8R 3587   1.915   4.777   7.608  0.2172 -0.3426 -2.0148
   27SAPC   C29 3588   1.760   4.674   7.723  0.1785 -0.3615 -0.2100
   27SAPC   H9R 3589   1.705   4.769   7.731 -0.9469 -0.9651 -0.6640
   27SAPC  C210 3590   1.712   4.554   7.793 -0.2175 -0.0971  0.3388
   27SAPC  H10R 3591   1.739   4.460   7.742 -2.6907 -1.4216  1.2988
   27SAPC  H10S 3592   1.601   4.553   7.803 -0.3718 -0.8700 -1.1844
   27SAPC  C211 3593   1.773   4.560   7.928 -0.0814  0.0685  0.2684
   27SAPC  H11R 3594   1.870   4.610   7.940 -0.8136  1.5617  0.1383
   27SAPC  C212 3595   1.738   4.491   8.038 -0.3263 -0.5254  0.1954
   27SAPC  H12R 3596   1.802   4.487   8.128 -2.6725 -0.0424  1.9803
   27SAPC  C213 3597   1.625   4.394   8.063 -0.0604  0.3994 -0.1203
   27SAPC  H13R 3598   1.666   4.320   8.135  0.3572 -0.1630 -0.9219
   27SAPC  H13S 3599   1.607   4.343   7.967 -1.4274 -1.8416  1.2249
   27SAPC  C214 3600   1.496   4.460   8.106 -0.3365 -0.0251 -0.5877
   27SAPC  H14R 3601   1.470   4.544   8.041 -2.6021 -0.9438 -0.9527
   27SAPC  C215 3602   1.422   4.431   8.211  0.2805  0.1885 -0.2601
   27SAPC  H15R 3603   1.333   4.490   8.235 -0.3009 -1.4967  2.1094
   27SAPC  C216 3604   1.445   4.318   8.305  0.4465  0.1551 -0.1972
   27SAPC  H16R 3605   1.507   4.242   8.252  0.5688  1.1013 -1.4510
   27SAPC  H16S 3606   1.345   4.277   8.330  0.3183  0.1538 -0.6982
   27SAPC  C217 3607   1.495   4.367   8.444 -0.3850 -0.2936  0.2552
   27SAPC  H17R 3608   1.591   4.422   8.439  0.2181 -1.3649 -0.2266
   27SAPC  H17S 3609   1.527   4.279   8.504 -1.1635  0.0123  1.1450
   27SAPC  C218 3610   1.386   4.438   8.524  0.8128 -0.4810  0.4113
   27SAPC  H18R 3611   1.405   4.428   8.633  1.0004 -1.5592  0.2895
   27SAPC  H18S 3612   1.283   4.396   8.518  0.4489 -0.0155  2.5407
   27SAPC  C219 3613   1.392   4.593   8.508  0.5102 -0.2745  0.2042
   27SAPC  H19R 3614   1.375   4.630   8.404  1.4299  0.4430  0.2944
   27SAPC  H19S 3615   1.498   4.624   8.525 -0.1576  2.9175 -0.7610
   27SAPC  C220 3616   1.300   4.670   8.599  0.3413  0.4112  0.7540
   27SAPC  H20R 3617   1.309   4.778   8.575  0.5216 -0.0737 -1.5380
   27SAPC  H20S 3618   1.327   4.648   8.705  0.3207 -0.7160  0.5360
   27SAPC  H20T 3619   1.198   4.641   8.567  1.1552 -0.7351 -0.9184
   27SAPC   C33 3620   2.575   4.406   6.848  0.1708  0.7715 -0.6567
   27SAPC   H3X 3621   2.659   4.334   6.859  0.8960  1.8217  0.9437
   27SAPC   H3Y 3622   2.491   4.337   6.821 -0.1008  0.9627 -0.3048
   27SAPC   C34 3623   2.561   4.478   6.984 -0.1159  0.0565 -0.7902
   27SAPC   H4X 3624   2.495   4.568   6.978  0.3469  0.6500  1.7780
   27SAPC   H4Y 3625   2.660   4.512   7.021 -1.1359  2.3189  0.0426
   27SAPC   C35 3626   2.493   4.394   7.101 -0.5051 -0.1932  0.5361
   27SAPC   H5X 3627   2.566   4.310   7.102  1.4525  1.4293 -0.1990
   27SAPC   H5Y 3628   2.393   4.360   7.067 -0.0847  0.8488 -2.0386
   27SAPC   C36 3629   2.498   4.456   7.239  0.0276  0.6005 -0.7911
   27SAPC   H6X 3630   2.447   4.555   7.245  1.3819  1.2721  0.4371
   27SAPC   H6Y 3631   2.601   4.462   7.281  0.1978 -0.5630 -1.0191
   27SAPC   C37 3632   2.407   4.365   7.321  0.1109  0.1861  0.0549
   27SAPC   H7X 3633   2.429   4.256   7.317 -0.6013  0.0461 -0.3497
   27SAPC   H7Y 3634   2.312   4.373   7.264  0.5207  0.9950 -0.5398
   27SAPC   C38 3635   2.377   4.406   7.467 -0.0049  0.0829 -0.8599
   27SAPC   H8X 3636   2.291   4.348   7.506 -0.9001  2.9328  1.7344
   27SAPC   H8Y 3637   2.349   4.513   7.466 -3.3131 -0.6642  0.4817
   27SAPC   C39 3638   2.503   4.390   7.554 -0.3818  0.2903  0.7935
   27SAPC   H9X 3639   2.573   4.467   7.516  0.5864 -0.9333  0.0072
   27SAPC   H9Y 3640   2.554   4.292   7.539  1.4156  1.3305 -0.2295
   27SAPC  C310 3641   2.481   4.409   7.702  0.0488  0.5103 -0.1246
   27SAPC  H10X 3642   2.400   4.347   7.746 -1.0083  0.2444 -2.3403
   27SAPC  H10Y 3643   2.446   4.510   7.733 -1.3296 -0.4137  1.5467
   27SAPC  C311 3644   2.621   4.375   7.763  0.2760  0.4305  0.3837
   27SAPC  H11X 3645   2.696   4.435   7.709 -1.4170 -0.8593 -3.7613
   27SAPC  H11Y 3646   2.645   4.268   7.749  1.7852  0.5472  1.7768
   27SAPC  C312 3647   2.633   4.409   7.919  0.4905 -0.4670  0.3294
   27SAPC  H12X 3648   2.530   4.393   7.959  1.4894 -0.8567  2.9820
   27SAPC  H12Y 3649   2.652   4.518   7.916 -2.7949  0.2000 -0.9932
   27SAPC  C313 3650   2.736   4.337   7.999 -0.2382 -0.0516  0.3871
   27SAPC  H13X 3651   2.821   4.310   7.933 -2.2447 -0.7726 -2.0599
   27SAPC  H13Y 3652   2.697   4.238   8.033 -0.8250 -0.0493 -0.2667
   27SAPC  C314 3653   2.782   4.412   8.125 -1.0620  0.5922  0.2270
   27SAPC  H14X 3654   2.715   4.382   8.209 -2.0843 -0.6707 -0.9855
   27SAPC  H14Y 3655   2.771   4.521   8.109 -3.0065  0.2842 -0.9075
   27SAPC  C315 3656   2.933   4.391   8.143 -0.0745  0.8693 -0.3227
   27SAPC  H15X 3657   2.996   4.425   8.058  1.4767 -0.4062  0.2832
   27SAPC  H15Y 3658   2.935   4.280   8.149 -3.7710  0.6828  0.0732
   27SAPC  C316 3659   2.982   4.457   8.267  0.7193  0.0087 -0.2766
   27SAPC  H16X 3660   2.927   4.412   8.352 -0.4928  0.5327 -0.7527
   27SAPC  H16Y 3661   2.968   4.567   8.255  1.2863 -0.0012 -1.0803
   27SAPC  C317 3662   3.132   4.432   8.300  0.2884 -0.2732 -0.5533
   27SAPC  H17X 3663   3.186   4.474   8.212 -1.0652  1.9692 -0.4077
   27SAPC  H17Y 3664   3.141   4.322   8.308  1.0790 -0.2528 -1.0675
   27SAPC  C318 3665   3.187   4.504   8.431  0.2813 -0.1381 -0.2167
   27SAPC  H18X 3666   3.199   4.614   8.417 -2.5001 -0.0570 -3.1366
   27SAPC  H18Y 3667   3.288   4.465   8.456  2.0314  4.4603  0.8353
   27SAPC  H18Z 3668   3.136   4.483   8.527  1.8845  0.6528  0.8631
   28SAPC     N 3669   6.247   4.856   6.367  0.5923 -0.0493  0.1866
   28SAPC   C12 3670   6.398   4.863   6.342  0.1912 -0.0503  0.3765
   28SAPC  H12A 3671   6.420   4.963   6.309  0.8699 -0.9383 -2.1213
   28SAPC  H12B 3672   6.410   4.794   6.260 -0.7862 -0.2943  0.4294
   28SAPC   C13 3673   6.203   4.949   6.474  0.0063 -0.1741 -0.0030
   28SAPC  H13A 3674   6.225   5.052   6.454  0.3352 -0.7190 -2.9798
   28SAPC  H13B 3675   6.096   4.946   6.489 -0.0584 -1.3225 -0.5216
   28SAPC  H13C 3676   6.254   4.915   6.563 -1.0395 -1.0273  0.2848
   28SAPC   C14 3677   6.162   4.891   6.246  0.1033 -0.2463  0.5646
   28SAPC  H14A 3678   6.177   4.820   6.166  1.0692  1.7227 -1.1007
   28SAPC  H14B 3679   6.059   4.879   6.276 -0.2071 -0.5624 -0.5911
   28SAPC  H14C 3680   6.178   4.994   6.220 -2.0316 -0.2357 -0.9252
   28SAPC   C15 3681   6.209   4.719   6.408 -0.0177  0.1483 -0.7534
   28SAPC  H15A 3682   6.265   4.695   6.497 -2.0081 -0.3612  0.4386
   28SAPC  H15B 3683   6.101   4.710   6.414 -0.1516  1.3145 -1.1259
   28SAPC  H15C 3684   6.246   4.659   6.326 -3.0967  0.3922 -2.4665
   28SAPC   C11 3685   6.508   4.833   6.446 -0.4582  0.5280 -0.3596
   28SAPC  H11A 3686   6.495   4.898   6.535 -0.4609  0.2387 -0.1489
   28SAPC  H11B 3687   6.611   4.861   6.414 -0.7086 -0.7178 -2.4305
   28SAPC     P 3688   6.584   4.593   6.407  0.1931  0.3147  0.6494
   28SAPC   O13 3689   6.553   4.453   6.442  0.2109 -0.0597  0.1194
   28SAPC   O14 3690   6.584   4.621   6.257  1.0179 -0.1231  0.2610
   28SAPC   O12 3691   6.487   4.697   6.471  0.1450  0.4624 -0.1800
   28SAPC   O11 3692   6.729   4.636   6.458  0.2360 -0.3831 -0.2674
   28SAPC    C1 3693   6.746   4.672   6.596 -0.3348  0.3889  0.7371
   28SAPC    HA 3694   6.840   4.728   6.613 -0.9239  1.2102  1.3921
   28SAPC    HB 3695   6.672   4.747   6.630  1.3106  1.4224  2.2092
   28SAPC    C2 3696   6.750   4.544   6.686 -0.1143  0.3561  0.0509
   28SAPC    HS 3697   6.648   4.500   6.694  0.6642 -1.4850  0.3195
   28SAPC   O21 3698   6.809   4.578   6.814 -0.1168  0.2361  0.3040
   28SAPC   C21 3699   6.718   4.623   6.895  0.8109 -0.5438  0.8320
   28SAPC   O22 3700   6.599   4.640   6.867  0.3469  0.1397  0.2755
   28SAPC   C22 3701   6.784   4.632   7.034  0.8727  0.3278 -0.3060
   28SAPC   H2R 3702   6.886   4.592   7.014  0.3245 -0.8466 -0.8287
   28SAPC   H2S 3703   6.776   4.736   7.074  0.6011  0.9776 -1.9725
   28SAPC    C3 3704   6.847   4.435   6.615  0.0389  1.0384  0.3551
   28SAPC    HX 3705   6.926   4.492   6.562 -0.1383  0.3658 -0.6713
   28SAPC    HY 3706   6.783   4.393   6.534  0.4748 -0.0404  0.5575
   28SAPC   O31 3707   6.908   4.332   6.702 -0.0711  0.1635 -0.1365
   28SAPC   C31 3708   6.846   4.211   6.707  0.8424 -0.3009  0.2635
   28SAPC   O32 3709   6.754   4.178   6.635  0.5152  0.4703  0.3838
   28SAPC   C32 3710   6.919   4.113   6.804  0.0703 -0.1568  0.1094
   28SAPC   H2X 3711   6.990   4.180   6.857 -0.0062  0.4780 -0.5672
   28SAPC   H2Y 3712   6.982   4.042   6.746  2.1620  0.7651  1.1324
   28SAPC   C23 3713   6.728   4.537   7.142  0.2076 -0.5829  0.3838
   28SAPC   H3R 3714   6.808   4.543   7.219 -1.2594  2.8126  1.8557
   28SAPC   H3S 3715   6.720   4.436   7.096  2.2226 -1.4756  1.8351
   28SAPC   C24 3716   6.599   4.588   7.207 -0.5715  0.7262  0.3292
   28SAPC   H4R 3717   6.523   4.615   7.131 -0.7284  0.1069  0.2637
   28SAPC   H4S 3718   6.558   4.498   7.256  0.5537  0.2442  0.4075
   28SAPC   C25 3719   6.617   4.697   7.305  0.4327  0.2345  0.1668
   28SAPC   H5R 3720   6.594   4.795   7.262 -0.1947  0.3514  0.7598
   28SAPC   C26 3721   6.656   4.682   7.432  0.6783 -0.5070 -0.5740
   28SAPC   H6R 3722   6.645   4.769   7.499  0.4216 -0.4556 -0.6807
   28SAPC   C27 3723   6.681   4.556   7.510 -0.8489  0.0708  0.8471
   28SAPC   H7R 3724   6.775   4.575   7.565 -1.1101  1.7083  0.7612
   28SAPC   H7S 3725   6.716   4.483   7.434  0.4257 -0.4340  1.8853
   28SAPC   C28 3726   6.562   4.512   7.596 -0.5564  0.5925  0.0741
   28SAPC   H8R 3727   6.476   4.488   7.532  0.6802  0.6147 -1.6572
   28SAPC   C29 3728   6.556   4.512   7.735 -0.5467 -0.3851  0.2925
   28SAPC   H9R 3729   6.457   4.484   7.774  0.0511 -2.2778  0.5660
   28SAPC  C210 3730   6.668   4.560   7.834 -0.2855 -0.0072 -0.0566
   28SAPC  H10R 3731   6.757   4.508   7.794 -1.3010 -1.1182 -0.9548
   28SAPC  H10S 3732   6.655   4.512   7.934  1.8839  0.6360  0.5812
   28SAPC  C211 3733   6.683   4.705   7.839  0.3695 -0.6380  0.0793
   28SAPC  H11R 3734   6.694   4.756   7.742  2.0303  1.0677  1.1159
   28SAPC  C212 3735   6.678   4.788   7.947  0.1099  0.3287  0.5515
   28SAPC  H12R 3736   6.695   4.894   7.925  0.8614 -0.1377 -1.3135
   28SAPC  C213 3737   6.650   4.760   8.093 -0.2909  0.7825 -0.0847
   28SAPC  H13R 3738   6.658   4.653   8.122 -1.5978  0.7793  0.3303
   28SAPC  H13S 3739   6.541   4.781   8.106 -0.9137 -0.4377 -2.6680
   28SAPC  C214 3740   6.722   4.851   8.189 -0.2951 -0.4330  0.4495
   28SAPC  H14R 3741   6.831   4.845   8.179 -0.3478 -0.3395 -0.2066
   28SAPC  C215 3742   6.668   4.925   8.286  0.3363  0.4526 -0.5964
   28SAPC  H15R 3743   6.730   4.986   8.354 -2.3671  0.4750  2.0911
   28SAPC  C216 3744   6.523   4.952   8.319  0.4305 -0.6167 -0.2705
   28SAPC  H16R 3745   6.457   4.968   8.231  1.0465  1.9428 -0.3409
   28SAPC  H16S 3746   6.516   5.056   8.358  2.2942 -0.7736  0.5683
   28SAPC  C217 3747   6.472   4.846   8.421 -0.0996  0.2447  0.9319
   28SAPC  H17R 3748   6.560   4.791   8.461  0.6946 -1.2426 -2.4515
   28SAPC  H17S 3749   6.427   4.771   8.353  1.0813  1.2605 -1.0941
   28SAPC  C218 3750   6.375   4.880   8.528  0.2782  0.5251 -0.5553
   28SAPC  H18R 3751   6.417   4.968   8.581 -2.3256  0.3113  2.1510
   28SAPC  H18S 3752   6.381   4.795   8.600  0.3934 -0.9974 -2.2915
   28SAPC  C219 3753   6.234   4.889   8.472  0.8148  0.5789 -0.1085
   28SAPC  H19R 3754   6.205   4.800   8.412 -0.2116  0.1681  0.9786
   28SAPC  H19S 3755   6.239   4.973   8.398  0.0810 -0.5898 -1.5376
   28SAPC  C220 3756   6.126   4.921   8.577 -0.5123  0.5026 -0.2682
   28SAPC  H20R 3757   6.029   4.956   8.537 -1.3277 -0.9487  0.3448
   28SAPC  H20S 3758   6.145   5.010   8.640  2.1333  0.7158 -1.2338
   28SAPC  H20T 3759   6.098   4.835   8.642  0.0470  0.8270  0.4174
   28SAPC   C33 3760   6.822   4.043   6.890 -0.1683 -0.5978  0.0276
   28SAPC   H3X 3761   6.853   3.945   6.932  0.2402 -0.6048 -0.2840
   28SAPC   H3Y 3762   6.739   4.011   6.824 -0.2774  0.7235 -0.5195
   28SAPC   C34 3763   6.776   4.122   7.008  0.5724  0.1484  0.6029
   28SAPC   H4X 3764   6.716   4.210   6.977 -0.4537 -0.7491 -0.0130
   28SAPC   H4Y 3765   6.862   4.160   7.067  0.3113  0.2906  0.8932
   28SAPC   C35 3766   6.696   4.036   7.108 -0.9924  0.3988 -0.2262
   28SAPC   H5X 3767   6.765   3.975   7.171 -1.8324  0.0434  0.3631
   28SAPC   H5Y 3768   6.618   3.968   7.070 -0.3088 -0.6673  0.2227
   28SAPC   C36 3769   6.622   4.126   7.212 -0.7048  0.4731 -0.3684
   28SAPC   H6X 3770   6.538   4.179   7.161  0.8727  2.0856 -1.4305
   28SAPC   H6Y 3771   6.697   4.207   7.229 -0.1751 -0.1872  0.5408
   28SAPC   C37 3772   6.584   4.057   7.340  0.0295 -0.3576 -0.2779
   28SAPC   H7X 3773   6.665   4.009   7.399 -1.7116 -0.7465  1.9623
   28SAPC   H7Y 3774   6.517   3.971   7.318  0.5964 -0.5444 -1.2815
   28SAPC   C38 3775   6.517   4.155   7.448 -0.9010 -0.2003  0.0276
   28SAPC   H8X 3776   6.426   4.196   7.398 -0.0905  0.5665 -0.8511
   28SAPC   H8Y 3777   6.583   4.240   7.473 -1.4433  0.8457 -1.8966
   28SAPC   C39 3778   6.487   4.078   7.583 -0.0230  0.1215  0.4620
   28SAPC   H9X 3779   6.571   4.005   7.591  1.4242  1.7359  0.5969
   28SAPC   H9Y 3780   6.412   3.999   7.560  2.2492 -1.2322 -3.5309
   28SAPC  C310 3781   6.442   4.162   7.699 -0.1772  1.0679 -0.7106
   28SAPC  H10X 3782   6.363   4.231   7.661  0.1699  0.7522 -2.0578
   28SAPC  H10Y 3783   6.525   4.220   7.745 -0.4155 -0.3367  1.6134
   28SAPC  C311 3784   6.374   4.073   7.808 -0.2035 -0.7666  0.2047
   28SAPC  H11X 3785   6.447   3.995   7.837  0.5672  0.0716  0.5742
   28SAPC  H11Y 3786   6.281   4.033   7.761  0.0368  0.6672 -1.6054
   28SAPC  C312 3787   6.353   4.150   7.934  0.1174  0.4276 -0.0330
   28SAPC  H12X 3788   6.303   4.243   7.899 -0.9677  1.0257  2.8186
   28SAPC  H12Y 3789   6.448   4.184   7.981 -0.3460  1.1590  0.3905
   28SAPC  C313 3790   6.271   4.075   8.042 -0.1592  0.1679 -0.5840
   28SAPC  H13X 3791   6.166   4.068   8.005 -1.0970  2.3779  1.3723
   28SAPC  H13Y 3792   6.283   4.140   8.131  2.4215  0.6060 -1.1963
   28SAPC  C314 3793   6.327   3.939   8.083  0.0088 -0.2583 -0.4408
   28SAPC  H14X 3794   6.437   3.944   8.094 -0.0664 -0.1263  0.3513
   28SAPC  H14Y 3795   6.301   3.870   8.000  2.1644  0.3433 -1.6832
   28SAPC  C315 3796   6.263   3.876   8.213  1.5378  0.0760 -0.1718
   28SAPC  H15X 3797   6.304   3.774   8.228  0.9622  0.0189  1.2423
   28SAPC  H15Y 3798   6.152   3.873   8.202  1.7627 -2.0649 -3.1281
   28SAPC  C316 3799   6.283   3.955   8.342 -0.8303  0.1138  0.6590
   28SAPC  H16X 3800   6.202   3.927   8.413  0.0013  0.8836  1.9682
   28SAPC  H16Y 3801   6.271   4.066   8.340  0.3726  0.2702  1.2087
   28SAPC  C317 3802   6.424   3.931   8.413  0.3267 -0.2587  0.1513
   28SAPC  H17X 3803   6.516   3.964   8.360 -0.8486  0.3906 -1.5856
   28SAPC  H17Y 3804   6.441   3.821   8.419  1.3759 -0.0298  1.9039
   28SAPC  C318 3805   6.434   3.983   8.559  0.7164 -0.4622 -0.6898
   28SAPC  H18X 3806   6.485   4.081   8.567  2.9205 -1.5095 -1.3660
   28SAPC  H18Y 3807   6.504   3.908   8.601 -0.5710 -1.2379  0.1353
   28SAPC  H18Z 3808   6.343   3.970   8.622  0.8573 -0.5003 -0.4910
   29SAPC     N 3809   6.685   6.456   6.079 -0.2768 -0.2431 -0.5260
   29SAPC   C12 3810   6.689   6.481   6.227 -0.1108  0.0587  0.2030
   29SAPC  H12A 3811   6.600   6.436   6.268 -0.0078  0.5756  1.0274
   29SAPC  H12B 3812   6.687   6.588   6.244 -3.6614  0.3962 -1.5079
   29SAPC   C13 3813   6.812   6.489   6.010 -0.9657 -0.5340 -0.2076
   29SAPC  H13A 3814   6.880   6.405   6.022  0.2234  0.4826  0.3686
   29SAPC  H13B 3815   6.801   6.505   5.904 -2.5640 -0.4667 -0.0536
   29SAPC  H13C 3816   6.857   6.578   6.051 -0.8373 -0.3934 -0.6483
   29SAPC   C14 3817   6.645   6.319   6.044  0.8589 -0.0721 -0.3270
   29SAPC  H14A 3818   6.662   6.300   5.939 -0.5705 -2.8678 -0.1379
   29SAPC  H14B 3819   6.722   6.258   6.088  2.6499  1.3585 -1.3272
   29SAPC  H14C 3820   6.556   6.285   6.095  1.3028  0.3514  0.7424
   29SAPC   C15 3821   6.572   6.544   6.014 -0.0904  0.4570  0.3351
   29SAPC  H15A 3822   6.592   6.554   5.909 -0.2914  3.3372  0.4700
   29SAPC  H15B 3823   6.475   6.504   6.039 -0.7115  1.9913  0.5130
   29SAPC  H15C 3824   6.575   6.642   6.060 -0.3095 -0.3958  2.3000
   29SAPC   C11 3825   6.795   6.404   6.302  0.7897 -0.3018  0.1698
   29SAPC  H11A 3826   6.777   6.425   6.410 -1.1083  0.5870 -0.2948
   29SAPC  H11B 3827   6.896   6.429   6.263  1.1694 -2.9420 -0.7694
   29SAPC     P 3828   6.731   6.162   6.387 -0.0562  0.0784 -0.0259
   29SAPC   O13 3829   6.595   6.198   6.434  0.2073  0.2243 -0.1204
   29SAPC   O14 3830   6.742   6.029   6.328  1.0069 -0.5529 -0.4413
   29SAPC   O12 3831   6.777   6.265   6.275  0.3449 -0.5125 -0.1664
   29SAPC   O11 3832   6.834   6.187   6.495 -0.5398 -0.0286  0.3513
   29SAPC    C1 3833   6.973   6.150   6.490  0.5900 -0.7730 -0.4552
   29SAPC    HA 3834   6.976   6.039   6.484  2.6248 -0.7312 -1.2205
   29SAPC    HB 3835   7.024   6.202   6.406  0.2465  3.3681  1.6092
   29SAPC    C2 3836   7.040   6.202   6.616  0.0273  1.1194 -0.1664
   29SAPC    HS 3837   7.147   6.173   6.613  0.0443  1.1338 -3.0375
   29SAPC   O21 3838   6.965   6.160   6.734  0.3953 -0.0738  1.1423
   29SAPC   C21 3839   6.999   6.035   6.777 -0.4770 -0.6256  0.2314
   29SAPC   O22 3840   7.080   5.963   6.720  0.5791 -0.1014 -0.2352
   29SAPC   C22 3841   6.940   6.011   6.916 -0.3849  0.8533  0.0590
   29SAPC   H2R 3842   6.980   6.097   6.973 -0.7198  0.7202  0.5063
   29SAPC   H2S 3843   6.829   6.010   6.920 -0.5046  1.9397 -1.8646
   29SAPC    C3 3844   7.053   6.358   6.602  0.0638  0.0095 -0.0457
   29SAPC    HX 3845   6.951   6.400   6.583 -0.6199 -1.3776  0.3990
   29SAPC    HY 3846   7.112   6.380   6.511 -0.4291  1.3525 -0.0636
   29SAPC   O31 3847   7.117   6.417   6.721 -0.5326  0.1704  0.2778
   29SAPC   C31 3848   7.034   6.463   6.805 -0.0202  0.7573 -0.9227
   29SAPC   O32 3849   6.916   6.454   6.807 -0.9665  0.4869 -0.2651
   29SAPC   C32 3850   7.121   6.539   6.912 -0.4069  0.2313 -0.2210
   29SAPC   H2X 3851   7.063   6.565   7.002  0.9336 -0.4594  0.8763
   29SAPC   H2Y 3852   7.160   6.632   6.865  1.5746 -1.2194 -1.6451
   29SAPC   C23 3853   6.984   5.875   6.981 -0.0463  0.0035 -0.0522
   29SAPC   H3R 3854   7.081   5.839   6.940 -1.2505  0.6124 -3.7342
   29SAPC   H3S 3855   6.913   5.795   6.950  0.5712 -0.4047 -0.4450
   29SAPC   C24 3856   6.993   5.869   7.134  0.4493  0.1322 -0.4051
   29SAPC   H4R 3857   7.028   5.766   7.158  0.2437  0.1706  0.0714
   29SAPC   H4S 3858   6.894   5.878   7.184 -0.9782 -0.8241 -2.8836
   29SAPC   C25 3859   7.097   5.969   7.192 -0.0865  0.2616  1.1108
   29SAPC   H5R 3860   7.189   5.977   7.132  0.3594 -2.4879  1.2876
   29SAPC   C26 3861   7.078   6.045   7.297  0.1196 -0.5245 -0.1609
   29SAPC   H6R 3862   7.164   6.111   7.318  0.5458 -1.1181  0.0172
   29SAPC   C27 3863   6.955   6.062   7.387 -0.5690  0.8898 -0.2932
   29SAPC   H7R 3864   6.987   6.024   7.487 -0.7944  1.3124 -0.0565
   29SAPC   H7S 3865   6.863   6.006   7.359 -0.9188  0.4169  1.6517
   29SAPC   C28 3866   6.928   6.208   7.393  0.4892 -0.0881  0.3448
   29SAPC   H8R 3867   6.886   6.250   7.300 -0.0858  0.6445  0.9247
   29SAPC   C29 3868   6.932   6.284   7.502 -0.4178 -0.5571  0.3568
   29SAPC   H9R 3869   6.899   6.387   7.482 -0.3352 -0.4865  0.5891
   29SAPC  C210 3870   6.963   6.246   7.642  0.3969  0.0472  0.3428
   29SAPC  H10R 3871   7.012   6.332   7.692  2.5731  0.5671 -2.4093
   29SAPC  H10S 3872   7.031   6.158   7.643  0.2357 -0.0967  2.1743
   29SAPC  C211 3873   6.836   6.223   7.715  0.2809 -0.1090  0.1576
   29SAPC  H11R 3874   6.761   6.162   7.662 -0.9956  1.0550  0.5660
   29SAPC  C212 3875   6.792   6.253   7.839  0.1939  0.7841 -0.4377
   29SAPC  H12R 3876   6.686   6.231   7.861  0.1291  0.2512 -1.2429
   29SAPC  C213 3877   6.859   6.323   7.957  0.2621 -0.2096 -0.0421
   29SAPC  H13R 3878   6.947   6.388   7.934 -0.2348  0.5859  0.2348
   29SAPC  H13S 3879   6.890   6.241   8.024  0.3419 -0.3090 -0.1990
   29SAPC  C214 3880   6.761   6.417   8.024 -0.2495 -0.3115 -0.3242
   29SAPC  H14R 3881   6.727   6.501   7.961 -1.1250  0.1596  0.7284
   29SAPC  C215 3882   6.693   6.397   8.137  0.7430  0.0156 -0.1749
   29SAPC  H15R 3883   6.614   6.472   8.155  0.9739  0.5397 -1.2537
   29SAPC  C216 3884   6.700   6.286   8.242 -0.1073  0.2849 -0.7517
   29SAPC  H16R 3885   6.770   6.313   8.323  1.3122  1.4354 -2.2877
   29SAPC  H16S 3886   6.740   6.192   8.197  1.3236  0.4753  0.0681
   29SAPC  C217 3887   6.566   6.248   8.309  0.2500 -0.4327  0.7809
   29SAPC  H17R 3888   6.563   6.146   8.353 -0.1304 -1.1426 -0.8068
   29SAPC  H17S 3889   6.487   6.238   8.231 -2.8554 -0.4403  3.6817
   29SAPC  C218 3890   6.516   6.343   8.419 -0.4076  0.4724  0.4117
   29SAPC  H18R 3891   6.454   6.425   8.377  0.5063  0.7512 -0.4408
   29SAPC  H18S 3892   6.593   6.392   8.481  0.5656  0.2777 -0.6022
   29SAPC  C219 3893   6.422   6.270   8.520 -0.2895  1.5519 -0.0888
   29SAPC  H19R 3894   6.496   6.205   8.570 -2.5548 -1.3119 -0.2437
   29SAPC  H19S 3895   6.362   6.203   8.455 -1.6562  0.6478  2.0009
   29SAPC  C220 3896   6.344   6.367   8.605 -0.1230 -0.6964  0.0219
   29SAPC  H20R 3897   6.280   6.319   8.682 -0.9340  0.7083  0.2543
   29SAPC  H20S 3898   6.278   6.426   8.538  0.5517 -0.3116 -0.3227
   29SAPC  H20T 3899   6.414   6.429   8.665  1.2792 -1.0600 -1.1729
   29SAPC   C33 3900   7.250   6.461   6.940  0.6357 -0.1719  0.4635
   29SAPC   H3X 3901   7.324   6.539   6.966 -0.8978  1.0881  1.2539
   29SAPC   H3Y 3902   7.304   6.405   6.861 -1.6848  0.4179 -1.6482
   29SAPC   C34 3903   7.231   6.380   7.066  0.5099 -0.2154  0.8673
   29SAPC   H4X 3904   7.142   6.315   7.058 -0.6564  1.4330 -0.2991
   29SAPC   H4Y 3905   7.219   6.447   7.153 -2.3518 -2.2425  2.1647
   29SAPC   C35 3906   7.351   6.285   7.094  0.2066  0.6193 -0.4762
   29SAPC   H5X 3907   7.383   6.239   6.998  0.9267  1.3551 -0.6029
   29SAPC   H5Y 3908   7.306   6.206   7.157  2.8802 -0.9153 -0.3602
   29SAPC   C36 3909   7.476   6.347   7.157 -0.3024 -0.1295 -0.1209
   29SAPC   H6X 3910   7.532   6.415   7.090  1.9216 -1.1553  0.6082
   29SAPC   H6Y 3911   7.547   6.264   7.172 -0.2949 -0.1387 -0.2056
   29SAPC   C37 3912   7.459   6.414   7.297 -0.0332  0.8199 -0.6211
   29SAPC   H7X 3913   7.400   6.508   7.289 -1.3436  0.0625 -0.0314
   29SAPC   H7Y 3914   7.561   6.444   7.329 -0.3165 -0.8001  2.1342
   29SAPC   C38 3915   7.398   6.318   7.407  0.4757  0.4362 -0.1113
   29SAPC   H8X 3916   7.443   6.217   7.418  1.4805  0.9049  0.3082
   29SAPC   H8Y 3917   7.293   6.299   7.376  0.9128 -0.8877 -0.8344
   29SAPC   C39 3918   7.402   6.380   7.546  0.1236 -0.0756  0.1086
   29SAPC   H9X 3919   7.329   6.463   7.539  0.3638  0.2754  1.4116
   29SAPC   H9Y 3920   7.502   6.419   7.577 -1.0374  2.2908  1.0830
   29SAPC  C310 3921   7.341   6.287   7.652  0.4285  0.4225  0.2493
   29SAPC  H10X 3922   7.411   6.201   7.654  0.1771  0.2258  1.1801
   29SAPC  H10Y 3923   7.240   6.253   7.620  1.0239  0.6451 -2.0419
   29SAPC  C311 3924   7.334   6.351   7.788  0.2920  0.3166 -0.2468
   29SAPC  H11X 3925   7.268   6.440   7.776 -1.2772 -0.6286  1.0258
   29SAPC  H11Y 3926   7.436   6.383   7.817  1.4904 -2.6027 -0.8597
   29SAPC  C312 3927   7.281   6.256   7.896 -0.1728 -0.3382 -0.0097
   29SAPC  H12X 3928   7.362   6.183   7.919 -1.3988 -1.5504  0.6249
   29SAPC  H12Y 3929   7.190   6.199   7.869  0.2041 -4.4505  5.5681
   29SAPC  C313 3930   7.244   6.322   8.028  0.3681  0.1257  0.0155
   29SAPC  H13X 3931   7.159   6.394   8.028  0.7746  0.7158  2.8005
   29SAPC  H13Y 3932   7.332   6.367   8.078 -0.5014 -0.3090  2.0528
   29SAPC  C314 3933   7.187   6.218   8.126 -0.2072  0.9178 -0.0590
   29SAPC  H14X 3934   7.270   6.145   8.138 -1.2240 -0.0463  1.4291
   29SAPC  H14Y 3935   7.109   6.155   8.078 -0.0910 -0.5694  1.6046
   29SAPC  C315 3936   7.137   6.265   8.263  0.5289  0.2805 -0.2817
   29SAPC  H15X 3937   7.104   6.175   8.319  2.8624 -0.3201  0.2400
   29SAPC  H15Y 3938   7.050   6.334   8.260  0.5333  0.3076  0.1171
   29SAPC  C316 3939   7.236   6.328   8.350  0.3526  0.6485 -0.3241
   29SAPC  H16X 3940   7.263   6.431   8.320  2.8927  0.0286 -0.3728
   29SAPC  H16Y 3941   7.335   6.282   8.328  0.6465  2.2965 -2.9044
   29SAPC  C317 3942   7.200   6.337   8.498  0.6288  0.0350 -0.6712
   29SAPC  H17X 3943   7.174   6.232   8.527  0.1543  0.6136  1.0834
   29SAPC  H17Y 3944   7.110   6.401   8.507  0.7418  0.2158 -0.8196
   29SAPC  C318 3945   7.311   6.389   8.600  0.2435  0.0539  1.2168
   29SAPC  H18X 3946   7.324   6.497   8.578  1.3868 -0.6562 -2.1012
   29SAPC  H18Y 3947   7.408   6.335   8.589  0.6474  0.6481  1.7258
   29SAPC  H18Z 3948   7.272   6.380   8.704  0.1388  1.3472  1.3001
   30SAPC     N 3949   0.586   4.593   6.019  0.3569  0.1367  0.1006
   30SAPC   C12 3950   0.566   4.718   6.111  0.2156  0.0610  0.0831
   30SAPC  H12A 3951   0.522   4.692   6.207  0.0291 -0.1654 -0.0633
   30SAPC  H12B 3952   0.492   4.775   6.056  1.0110  0.1838 -0.8913
   30SAPC   C13 3953   0.462   4.523   5.978  0.4745  0.6296 -0.2856
   30SAPC  H13A 3954   0.414   4.476   6.063  4.0621 -1.3709  0.8415
   30SAPC  H13B 3955   0.396   4.589   5.924  0.6605 -0.1375 -1.4705
   30SAPC  H13C 3956   0.496   4.445   5.913  1.6864  0.5116  0.4622
   30SAPC   C14 3957   0.658   4.623   5.891  0.5140  0.0455  0.4265
   30SAPC  H14A 3958   0.667   4.536   5.827  2.3602  0.3220  0.2660
   30SAPC  H14B 3959   0.597   4.698   5.843  0.5099 -0.4620 -0.3783
   30SAPC  H14C 3960   0.757   4.662   5.908 -0.2849  2.0127  0.8204
   30SAPC   C15 3961   0.680   4.500   6.092 -0.3244  0.2681  0.6694
   30SAPC  H15A 3962   0.773   4.554   6.103 -0.4986  0.4905  1.0942
   30SAPC  H15B 3963   0.633   4.465   6.183 -0.2497 -2.0335 -0.1220
   30SAPC  H15C 3964   0.701   4.416   6.029  2.7721  1.7217 -0.4257
   30SAPC   C11 3965   0.686   4.813   6.137  0.3129  0.6585  0.3990
   30SAPC  H11A 3966   0.768   4.745   6.170 -0.6382 -1.4681 -1.3717
   30SAPC  H11B 3967   0.664   4.872   6.228  0.2484  0.2891  0.6265
   30SAPC     P 3968   0.641   5.026   5.989  0.1084  0.2460  0.2794
   30SAPC   O13 3969   0.743   5.114   5.923 -0.4692 -0.1541 -0.4674
   30SAPC   O14 3970   0.523   4.986   5.913 -0.1187 -0.2333  0.5419
   30SAPC   O12 3971   0.715   4.890   6.021 -0.2157 -0.3307  0.3641
   30SAPC   O11 3972   0.599   5.084   6.126  0.2050  0.0295 -0.4023
   30SAPC    C1 3973   0.678   5.149   6.221 -0.5649 -0.0033 -0.1341
   30SAPC    HA 3974   0.779   5.103   6.233  0.7085  2.8686  1.2790
   30SAPC    HB 3975   0.693   5.252   6.181 -0.8630  0.4621  0.9372
   30SAPC    C2 3976   0.617   5.143   6.362  0.4994  0.2203 -0.0046
   30SAPC    HS 3977   0.652   5.055   6.419 -0.1675 -0.5947 -0.8136
   30SAPC   O21 3978   0.473   5.149   6.355  0.3645 -0.1909  0.0852
   30SAPC   C21 3979   0.409   5.040   6.353  0.1191 -0.2317  0.1832
   30SAPC   O22 3980   0.458   4.929   6.357 -0.9104  0.0772 -0.5448
   30SAPC   C22 3981   0.260   5.072   6.340 -0.3797 -0.1639  0.5837
   30SAPC   H2R 3982   0.238   5.179   6.360  1.9758  0.5127 -0.1624
   30SAPC   H2S 3983   0.231   5.050   6.235  1.7302 -0.7258  0.0767
   30SAPC    C3 3984   0.660   5.264   6.449  0.3987 -0.0434  0.0933
   30SAPC    HX 3985   0.620   5.354   6.398 -0.1150  0.6893  1.7042
   30SAPC    HY 3986   0.769   5.280   6.467  0.3678  0.5077 -0.1892
   30SAPC   O31 3987   0.592   5.253   6.576  0.0839  0.1226  0.2679
   30SAPC   C31 3988   0.609   5.358   6.666  0.0689  1.0583 -0.3347
   30SAPC   O32 3989   0.677   5.454   6.642  0.0087 -0.2046  0.5708
   30SAPC   C32 3990   0.520   5.334   6.791  0.1325  0.5740  0.1420
   30SAPC   H2X 3991   0.533   5.225   6.808  0.5440  0.2861 -1.7224
   30SAPC   H2Y 3992   0.415   5.363   6.775 -0.0045  0.4897  0.8593
   30SAPC   C23 3993   0.184   4.996   6.448 -0.4613 -0.9236  0.0168
   30SAPC   H3R 3994   0.199   4.887   6.458 -1.3276 -1.0609 -0.1385
   30SAPC   H3S 3995   0.078   5.007   6.418 -0.4935 -0.8934  0.1392
   30SAPC   C24 3996   0.207   5.057   6.587 -0.2264  0.2508 -0.4170
   30SAPC   H4R 3997   0.162   5.159   6.585  0.7686  0.6952 -0.4130
   30SAPC   H4S 3998   0.312   5.076   6.618 -0.7863  0.3332  1.5832
   30SAPC   C25 3999   0.146   4.968   6.698 -0.4327 -0.3318 -0.4990
   30SAPC   H5R 4000   0.059   4.914   6.657  0.0186  0.5586 -2.7480
   30SAPC   C26 4001   0.196   4.959   6.822  0.6122 -0.4261 -0.0248
   30SAPC   H6R 4002   0.134   4.900   6.891 -1.5271  2.4407  0.6416
   30SAPC   C27 4003   0.312   5.031   6.884  0.0677 -0.8537  0.1501
   30SAPC   H7R 4004   0.276   5.085   6.974 -0.9053 -1.5592  0.1932
   30SAPC   H7S 4005   0.348   5.109   6.814 -1.3578 -1.1096 -0.8942
   30SAPC   C28 4006   0.430   4.947   6.922 -0.3152  0.0491  0.2606
   30SAPC   H8R 4007   0.500   4.924   6.841  0.7181 -2.1133  1.6818
   30SAPC   C29 4008   0.439   4.884   7.037  0.0318 -0.1200 -0.2933
   30SAPC   H9R 4009   0.512   4.802   7.035  0.9426  0.6500  0.2704
   30SAPC  C210 4010   0.337   4.878   7.149  0.5323  0.1222 -0.4691
   30SAPC  H10R 4011   0.323   4.774   7.186  0.7019  0.3741  0.3398
   30SAPC  H10S 4012   0.233   4.900   7.117  0.9037  1.1852 -0.9805
   30SAPC  C211 4013   0.364   4.959   7.272  0.2860  0.4741 -0.1963
   30SAPC  H11R 4014   0.456   5.021   7.272  0.2328  0.5607 -0.8480
   30SAPC  C212 4015   0.270   4.993   7.367 -0.4387 -0.1593  0.1513
   30SAPC  H12R 4016   0.313   5.044   7.455  1.4623  1.1568 -1.4612
   30SAPC  C213 4017   0.132   4.951   7.379  0.7930 -0.0350  0.1178
   30SAPC  H13R 4018   0.110   4.865   7.312  0.4804  0.8789 -0.9763
   30SAPC  H13S 4019   0.072   5.039   7.347 -0.7317 -1.2329 -0.4529
   30SAPC  C214 4020   0.108   4.913   7.520 -0.4529  0.1485 -0.2997
   30SAPC  H14R 4021   0.109   4.805   7.540  2.2016 -0.2300 -2.0299
   30SAPC  C215 4022   0.098   4.999   7.625 -0.3681 -0.2599 -0.9215
   30SAPC  H15R 4023   0.072   4.959   7.725 -0.9717  1.0501 -0.5357
   30SAPC  C216 4024   0.104   5.150   7.616 -0.0191  0.3315  0.0141
   30SAPC  H16R 4025   0.041   5.181   7.530  0.5637 -0.1084 -0.5838
   30SAPC  H16S 4026   0.204   5.191   7.592 -0.7023  3.7948  2.2666
   30SAPC  C217 4027   0.053   5.214   7.749  0.8728  0.7193  0.0549
   30SAPC  H17R 4028   0.080   5.322   7.751 -1.9012  1.5544  3.6141
   30SAPC  H17S 4029   0.112   5.169   7.832 -3.1520 -2.1937  1.6262
   30SAPC  C218 4030  -0.095   5.204   7.782 -0.2333  0.2711  0.2474
   30SAPC  H18R 4031  -0.142   5.103   7.781 -0.4437  0.3134  2.3404
   30SAPC  H18S 4032  -0.157   5.248   7.701 -1.4437  1.3025  1.6879
   30SAPC  C219 4033  -0.137   5.268   7.922  0.0009  0.0905  0.3774
   30SAPC  H19R 4034  -0.227   5.333   7.907  0.0151  0.1302  0.4616
   30SAPC  H19S 4035  -0.060   5.345   7.945  0.3758 -0.7968  2.2536
   30SAPC  C220 4036  -0.150   5.176   8.037  0.3010 -0.2380  0.8198
   30SAPC  H20R 4037  -0.144   5.233   8.132  0.4719  1.7540 -0.3298
   30SAPC  H20S 4038  -0.061   5.109   8.036 -0.1498 -1.1923  5.0494
   30SAPC  H20T 4039  -0.250   5.128   8.025  0.0574  0.3334  0.5260
   30SAPC   C33 4040   0.571   5.401   6.921 -0.1770 -0.0802 -0.1199
   30SAPC   H3X 4041   0.535   5.506   6.925 -1.2137 -0.4581  1.0942
   30SAPC   H3Y 4042   0.682   5.396   6.917 -0.2617 -1.7415 -1.3533
   30SAPC   C34 4043   0.521   5.327   7.048 -0.0280  0.2429 -0.1886
   30SAPC   H4X 4044   0.547   5.221   7.068 -1.1202  0.2907  1.8300
   30SAPC   H4Y 4045   0.410   5.335   7.046 -0.3202 -2.6503 -2.5586
   30SAPC   C35 4046   0.572   5.393   7.178  0.0510 -1.1237 -0.1477
   30SAPC   H5X 4047   0.542   5.499   7.190  0.7091 -0.8506 -0.8508
   30SAPC   H5Y 4048   0.683   5.403   7.172 -0.2213  2.0433 -3.5059
   30SAPC   C36 4049   0.525   5.315   7.304  0.9350 -0.1551 -0.3301
   30SAPC   H6X 4050   0.567   5.213   7.301 -0.8594 -0.8919 -1.7148
   30SAPC   H6Y 4051   0.417   5.291   7.295  0.6772  0.4765  0.8625
   30SAPC   C37 4052   0.562   5.393   7.427  0.7972  1.1118  0.2460
   30SAPC   H7X 4053   0.537   5.500   7.408 -0.1710  0.8970  0.2703
   30SAPC   H7Y 4054   0.672   5.387   7.442  0.8333 -1.7290 -0.6730
   30SAPC   C38 4055   0.502   5.331   7.558 -0.2135  0.8005 -0.3625
   30SAPC   H8X 4056   0.565   5.243   7.581  0.3057  1.5084  1.0378
   30SAPC   H8Y 4057   0.401   5.292   7.534  0.2475 -1.6334  1.3043
   30SAPC   C39 4058   0.524   5.429   7.671  0.4001  0.2570  0.5304
   30SAPC   H9X 4059   0.461   5.520   7.663  1.2113  0.7968  0.1496
   30SAPC   H9Y 4060   0.628   5.466   7.654  0.2255  0.9739  0.9738
   30SAPC  C310 4061   0.508   5.364   7.808 -0.6760  0.0648 -0.1742
   30SAPC  H10X 4062   0.509   5.438   7.891 -1.8575 -1.6852  1.4908
   30SAPC  H10Y 4063   0.588   5.288   7.815  1.3597  2.2088  1.6320
   30SAPC  C311 4064   0.378   5.284   7.828  0.1614  0.0404  0.1145
   30SAPC  H11X 4065   0.381   5.198   7.758  2.4112 -0.4048  0.6832
   30SAPC  H11Y 4066   0.282   5.331   7.798 -0.4904 -1.2029  0.2132
   30SAPC  C312 4067   0.359   5.222   7.970 -0.1522  0.0065  0.6052
   30SAPC  H12X 4068   0.453   5.165   7.989 -1.0612 -1.6202  0.3727
   30SAPC  H12Y 4069   0.281   5.143   7.968 -0.8753  0.7200  0.1857
   30SAPC  C313 4070   0.334   5.314   8.081  0.2604 -0.8224 -0.1457
   30SAPC  H13X 4071   0.259   5.394   8.060  1.7091  0.8385  0.7013
   30SAPC  H13Y 4072   0.426   5.364   8.120 -1.2185  2.1612 -0.1738
   30SAPC  C314 4073   0.287   5.234   8.207  0.7591 -0.1696  0.2964
   30SAPC  H14X 4074   0.361   5.151   8.211  0.7952 -0.1508  0.0177
   30SAPC  H14Y 4075   0.186   5.195   8.184  0.9954 -0.8656  0.4199
   30SAPC  C315 4076   0.298   5.308   8.336 -0.4055 -0.0848  0.3230
   30SAPC  H15X 4077   0.204   5.365   8.350 -0.4160 -0.4074  1.7228
   30SAPC  H15Y 4078   0.380   5.381   8.320 -0.6669  0.2667  0.5713
   30SAPC  C316 4079   0.322   5.214   8.458  0.5541 -0.0286 -0.8948
   30SAPC  H16X 4080   0.415   5.162   8.428  0.4623 -0.3245 -0.6750
   30SAPC  H16Y 4081   0.249   5.131   8.474  1.6968 -0.8925 -0.0217
   30SAPC  C317 4082   0.327   5.296   8.597  0.3618 -0.4782 -0.0629
   30SAPC  H17X 4083   0.332   5.235   8.689 -0.4875  1.7970  1.5653
   30SAPC  H17Y 4084   0.222   5.333   8.589  0.3512 -0.1243  1.4179
   30SAPC  C318 4085   0.433   5.398   8.599 -0.0853 -0.8355 -0.2169
   30SAPC  H18X 4086   0.523   5.367   8.543 -0.5578  1.7027 -2.5918
   30SAPC  H18Y 4087   0.454   5.420   8.706 -0.9337 -1.2924  0.0558
   30SAPC  H18Z 4088   0.389   5.490   8.555  0.3798  0.0023  0.9805
   31SAPC     N 4089   3.815   0.115   6.237  0.7829  0.3738 -0.3609
   31SAPC   C12 4090   3.706   0.005   6.227  0.2225  0.6848 -0.7221
   31SAPC  H12A 4091   3.635   0.036   6.151  0.2282  1.1753 -0.5317
   31SAPC  H12B 4092   3.651  -0.003   6.319 -2.1308 -0.5388 -2.1395
   31SAPC   C13 4093   3.880   0.093   6.371 -0.4079  0.4787  0.0059
   31SAPC  H13A 4094   3.820   0.120   6.457 -0.9155  1.2898 -0.5924
   31SAPC  H13B 4095   3.898  -0.013   6.373 -1.6670  0.1931 -1.5990
   31SAPC  H13C 4096   3.968   0.155   6.384 -0.3009  0.4366 -0.5121
   31SAPC   C14 4097   3.920   0.084   6.136  0.3266 -0.7210 -0.6708
   31SAPC  H14A 4098   3.948  -0.021   6.136 -1.2320 -1.1722 -1.8263
   31SAPC  H14B 4099   3.883   0.111   6.039 -1.3441 -0.4365  0.0060
   31SAPC  H14C 4100   4.010   0.141   6.155 -0.8355  0.0626  3.8937
   31SAPC   C15 4101   3.754   0.250   6.234  0.8119 -0.0765 -0.5510
   31SAPC  H15A 4102   3.691   0.258   6.321 -0.9313 -2.3825 -1.5050
   31SAPC  H15B 4103   3.833   0.324   6.237 -0.9770  1.9117  0.2116
   31SAPC  H15C 4104   3.690   0.273   6.150 -0.5890 -3.1824 -0.4757
   31SAPC   C11 4105   3.764  -0.140   6.202 -0.0994 -0.5524 -0.0721
   31SAPC  H11A 4106   3.813  -0.140   6.102 -0.0648 -1.0927 -0.0560
   31SAPC  H11B 4107   3.668  -0.193   6.188  0.5383 -1.5238 -0.9122
   31SAPC     P 4108   3.982  -0.268   6.290  0.4599 -0.7253 -0.1490
   31SAPC   O13 4109   3.938  -0.401   6.247 -0.0810  0.5033 -0.3326
   31SAPC   O14 4110   4.081  -0.205   6.204  0.3817  0.4566 -0.1640
   31SAPC   O12 4111   3.846  -0.185   6.305 -0.4807 -0.3110  0.0515
   31SAPC   O11 4112   4.049  -0.270   6.434  0.4207  0.6860  0.5777
   31SAPC    C1 4113   4.087  -0.144   6.489  0.1696  0.3415  0.1592
   31SAPC    HA 4114   4.131  -0.080   6.410  1.9389 -2.2206 -1.0577
   31SAPC    HB 4115   4.002  -0.086   6.531 -1.3286  0.4754 -2.8255
   31SAPC    C2 4116   4.194  -0.158   6.600  0.3568  0.1598  0.4846
   31SAPC    HS 4117   4.281  -0.199   6.544 -0.8303 -1.8524  0.0362
   31SAPC   O21 4118   4.163  -0.247   6.709  0.0529  0.4005  0.2562
   31SAPC   C21 4119   4.265  -0.312   6.759 -0.5877 -0.1625 -0.2595
   31SAPC   O22 4120   4.378  -0.324   6.714  0.4152 -0.5969 -0.2632
   31SAPC   C22 4121   4.207  -0.380   6.884  0.9753 -0.1687  1.3410
   31SAPC   H2R 4122   4.119  -0.438   6.849  0.7204 -0.9867  3.2338
   31SAPC   H2S 4123   4.282  -0.452   6.925  1.6707  0.2016  0.7426
   31SAPC    C3 4124   4.244  -0.024   6.653 -0.0614 -0.4362  0.1646
   31SAPC    HX 4125   4.273   0.040   6.567 -0.2088  0.3618  0.7010
   31SAPC    HY 4126   4.334  -0.033   6.716  0.8759  0.0327 -1.0720
   31SAPC   O31 4127   4.148   0.043   6.733  0.3508  0.0552 -0.1730
   31SAPC   C31 4128   4.087   0.157   6.686 -0.4263 -0.2705 -0.1771
   31SAPC   O32 4129   4.083   0.197   6.570 -0.5766 -0.0510 -0.0607
   31SAPC   C32 4130   3.998   0.219   6.797 -0.2504 -0.4387 -0.2824
   31SAPC   H2X 4131   3.931   0.144   6.844  1.3889 -2.0651 -0.4272
   31SAPC   H2Y 4132   3.940   0.295   6.741 -0.1542 -0.8322 -0.9322
   31SAPC   C23 4133   4.155  -0.290   6.998  0.3833 -0.2604  0.1331
   31SAPC   H3R 4134   4.100  -0.351   7.073 -1.5451 -1.4627 -2.1091
   31SAPC   H3S 4135   4.078  -0.219   6.961  2.3401  1.6877 -0.3789
   31SAPC   C24 4136   4.263  -0.215   7.071 -0.1093 -0.4074 -1.0955
   31SAPC   H4R 4137   4.297  -0.127   7.013  0.1573  1.3030  1.4659
   31SAPC   H4S 4138   4.350  -0.280   7.094  0.0041  0.6381  1.9554
   31SAPC   C25 4139   4.224  -0.162   7.208  0.1851  1.2932 -0.8537
   31SAPC   H5R 4140   4.154  -0.078   7.216 -1.0363  0.1632  1.2265
   31SAPC   C26 4141   4.250  -0.212   7.331 -0.6197  0.4199 -0.0440
   31SAPC   H6R 4142   4.199  -0.162   7.415 -0.2615  0.0192  0.4119
   31SAPC   C27 4143   4.329  -0.339   7.366 -0.7406 -0.1349 -0.2904
   31SAPC   H7R 4144   4.401  -0.369   7.287 -0.8646  1.2800 -0.9602
   31SAPC   H7S 4145   4.279  -0.435   7.393  2.1848 -1.4703  0.8050
   31SAPC   C28 4146   4.419  -0.309   7.485 -0.3291  0.2878 -0.1202
   31SAPC   H8R 4147   4.523  -0.292   7.454 -0.4195  0.6595 -0.2270
   31SAPC   C29 4148   4.391  -0.296   7.622  0.2397 -0.1139 -0.1616
   31SAPC   H9R 4149   4.471  -0.258   7.687  0.0600 -0.2116  0.1161
   31SAPC  C210 4150   4.256  -0.294   7.693  0.0393 -0.1923  0.0523
   31SAPC  H10R 4151   4.247  -0.367   7.777 -0.5214  0.3703  0.4942
   31SAPC  H10S 4152   4.176  -0.321   7.620 -0.0142 -0.2520  0.1329
   31SAPC  C211 4153   4.217  -0.158   7.740 -0.4869  0.1953  0.6556
   31SAPC  H11R 4154   4.164  -0.090   7.673  2.4205  4.5492  2.3002
   31SAPC  C212 4155   4.254  -0.121   7.866  0.3981  0.1175 -0.2992
   31SAPC  H12R 4156   4.219  -0.022   7.898 -0.8838 -0.4484  0.0949
   31SAPC  C213 4157   4.319  -0.195   7.970  0.0842 -0.0460 -0.1221
   31SAPC  H13R 4158   4.427  -0.169   7.962 -0.2367  1.6215  0.7613
   31SAPC  H13S 4159   4.317  -0.304   7.945 -0.9570  0.4217 -2.2930
   31SAPC  C214 4160   4.272  -0.150   8.110 -0.5127 -1.1017  0.5044
   31SAPC  H14R 4161   4.316  -0.051   8.129  1.6770 -1.9040 -0.0486
   31SAPC  C215 4162   4.198  -0.219   8.200  0.0964 -0.5624 -0.5146
   31SAPC  H15R 4163   4.164  -0.173   8.294 -1.6068 -0.5340 -1.1168
   31SAPC  C216 4164   4.149  -0.357   8.182  0.4556 -0.0249 -0.1279
   31SAPC  H16R 4165   4.159  -0.392   8.077  1.5026  2.9657 -1.1195
   31SAPC  H16S 4166   4.043  -0.360   8.213 -0.0194  0.9920 -1.5525
   31SAPC  C217 4167   4.221  -0.460   8.273 -0.1056 -0.2604 -0.4077
   31SAPC  H17R 4168   4.319  -0.477   8.224 -0.4702 -0.8383 -0.9452
   31SAPC  H17S 4169   4.156  -0.548   8.258  1.0026 -1.2658  0.4833
   31SAPC  C218 4170   4.235  -0.408   8.416 -0.2707 -0.3282 -0.1714
   31SAPC  H18R 4171   4.144  -0.365   8.462  1.6791  2.5617  1.2417
   31SAPC  H18S 4172   4.316  -0.331   8.417 -1.3046  0.7741  0.4301
   31SAPC  C219 4173   4.291  -0.517   8.508  0.1886 -0.3030 -1.0305
   31SAPC  H19R 4174   4.338  -0.465   8.595  0.0378 -0.5924 -0.7724
   31SAPC  H19S 4175   4.371  -0.575   8.457 -0.0580  0.0765 -1.8511
   31SAPC  C220 4176   4.179  -0.616   8.552 -0.1373 -0.2988  0.2587
   31SAPC  H20R 4177   4.210  -0.655   8.651  0.9543  3.0807  1.4017
   31SAPC  H20S 4178   4.160  -0.688   8.471 -0.9212  2.2013 -1.9286
   31SAPC  H20T 4179   4.090  -0.556   8.581 -0.3647 -1.3347  1.8544
   31SAPC   C33 4180   4.082   0.289   6.902 -0.0371  0.5038 -0.0451
   31SAPC   H3X 4181   4.040   0.388   6.931 -1.5726  0.1738 -1.0395
   31SAPC   H3Y 4182   4.187   0.312   6.872 -0.4584  0.4318 -1.6412
   31SAPC   C34 4183   4.094   0.207   7.032  0.9232  0.0710 -1.0113
   31SAPC   H4X 4184   4.156   0.115   7.020 -0.3842 -0.9545 -0.2734
   31SAPC   H4Y 4185   3.991   0.174   7.059  0.0856  2.4626 -1.1272
   31SAPC   C35 4186   4.156   0.296   7.143  0.2581  0.5627  0.1291
   31SAPC   H5X 4187   4.091   0.383   7.168 -1.9648 -0.6277 -1.2148
   31SAPC   H5Y 4188   4.247   0.344   7.103 -0.2342  0.2397 -1.4201
   31SAPC   C36 4189   4.178   0.223   7.277 -0.3649  0.4510 -0.4408
   31SAPC   H6X 4190   4.241   0.132   7.267 -2.3630 -1.3533  2.1183
   31SAPC   H6Y 4191   4.080   0.183   7.312 -1.1545  3.3945  1.0278
   31SAPC   C37 4192   4.243   0.317   7.375  0.0535  0.1979  0.3286
   31SAPC   H7X 4193   4.190   0.414   7.367  2.8715  1.6985 -2.4594
   31SAPC   H7Y 4194   4.351   0.336   7.360  0.4149  0.0907  2.4647
   31SAPC   C38 4195   4.225   0.269   7.525 -0.6453  0.7838  0.5891
   31SAPC   H8X 4196   4.269   0.168   7.535 -1.1763  0.5485  0.5737
   31SAPC   H8Y 4197   4.116   0.263   7.546 -0.5555 -0.3234  0.7686
   31SAPC   C39 4198   4.297   0.345   7.635  1.1625 -0.2412  0.6634
   31SAPC   H9X 4199   4.274   0.454   7.636  1.8516 -0.0867  0.2843
   31SAPC   H9Y 4200   4.405   0.348   7.610  1.1202 -1.5742  0.2489
   31SAPC  C310 4201   4.275   0.281   7.772  0.5670  0.0108 -0.4379
   31SAPC  H10X 4202   4.308   0.176   7.789 -1.2296 -0.3978  0.7471
   31SAPC  H10Y 4203   4.165   0.266   7.776  0.5510  0.3228  0.5455
   31SAPC  C311 4204   4.309   0.375   7.887 -0.0962 -0.2350  0.3024
   31SAPC  H11X 4205   4.246   0.467   7.886 -1.5195 -1.1837 -1.2166
   31SAPC  H11Y 4206   4.417   0.398   7.872 -0.2161 -0.6674 -1.3829
   31SAPC  C312 4207   4.292   0.320   8.028  0.5634  0.0615 -0.0601
   31SAPC  H12X 4208   4.341   0.221   8.034  0.2143 -0.2889 -2.2635
   31SAPC  H12Y 4209   4.182   0.309   8.040  0.4180  0.9882 -0.4331
   31SAPC  C313 4210   4.367   0.416   8.128  0.6224 -0.2107 -0.2876
   31SAPC  H13X 4211   4.349   0.523   8.105 -1.8459 -1.1527 -3.3583
   31SAPC  H13Y 4212   4.476   0.394   8.125  0.5399 -2.0244  3.7908
   31SAPC  C314 4213   4.337   0.396   8.278  1.2201 -0.4773  0.1383
   31SAPC  H14X 4214   4.226   0.386   8.276  1.2260 -0.8717  0.9815
   31SAPC  H14Y 4215   4.357   0.496   8.320 -0.6368  0.3031 -0.7207
   31SAPC  C315 4216   4.408   0.276   8.331  0.6137 -0.2154 -0.8604
   31SAPC  H15X 4217   4.509   0.309   8.366  0.0724  0.5504  0.0303
   31SAPC  H15Y 4218   4.422   0.190   8.262 -1.7826 -0.5132 -1.0590
   31SAPC  C316 4219   4.337   0.221   8.464  0.3089 -0.2074  0.2443
   31SAPC  H16X 4220   4.236   0.191   8.428  1.4370 -1.1315 -2.4516
   31SAPC  H16Y 4221   4.323   0.306   8.534  1.2602  1.4434 -1.4556
   31SAPC  C317 4222   4.417   0.106   8.535  0.0020 -0.0677 -0.2092
   31SAPC  H17X 4223   4.442   0.022   8.467 -1.3714  0.0101 -0.8317
   31SAPC  H17Y 4224   4.358   0.070   8.622  0.6643 -0.4494  0.0896
   31SAPC  C318 4225   4.551   0.156   8.593 -0.1612  0.1144  0.1673
   31SAPC  H18X 4226   4.618   0.202   8.517 -2.3503  2.5940 -0.4212
   31SAPC  H18Y 4227   4.604   0.091   8.666  0.9405  0.9646  0.1472
   31SAPC  H18Z 4228   4.530   0.244   8.657  1.9570  1.7426 -1.2297
   32SAPC     N 4229   4.290   2.457   5.820  0.6898 -0.7505  0.3929
   32SAPC   C12 4230   4.327   2.426   5.961  0.4200  0.3422  0.2431
   32SAPC  H12A 4231   4.273   2.498   6.020 -0.4418  2.3059 -2.6821
   32SAPC  H12B 4232   4.431   2.452   5.968  1.1394 -1.7250 -1.5140
   32SAPC   C13 4233   4.365   2.364   5.728 -0.3521  0.2509 -0.0363
   32SAPC  H13A 4234   4.340   2.382   5.624 -0.9351 -1.4081 -0.2125
   32SAPC  H13B 4235   4.472   2.374   5.743  0.0919  0.3844 -2.6792
   32SAPC  H13C 4236   4.353   2.258   5.749  0.3168  0.3155  0.7060
   32SAPC   C14 4237   4.146   2.423   5.795 -0.4413  0.2079  0.1249
   32SAPC  H14A 4238   4.085   2.481   5.862  2.3890  0.6529  2.5430
   32SAPC  H14B 4239   4.122   2.436   5.691  0.4332 -0.5349 -0.1855
   32SAPC  H14C 4240   4.133   2.318   5.813 -0.2757  0.3025  0.8438
   32SAPC   C15 4241   4.310   2.604   5.791  0.8795  0.3421 -0.1175
   32SAPC  H15A 4242   4.274   2.623   5.691 -0.9538 -1.6953  0.0718
   32SAPC  H15B 4243   4.251   2.656   5.865 -0.0393 -0.7506 -0.0497
   32SAPC  H15C 4244   4.414   2.633   5.799  1.9729 -2.7942 -1.2797
   32SAPC   C11 4245   4.306   2.288   6.024 -0.9998  0.6658 -0.2103
   32SAPC  H11A 4246   4.199   2.257   6.020 -0.2335 -2.2684 -0.2500
   32SAPC  H11B 4247   4.334   2.320   6.126  1.6770 -0.9749 -0.3324
   32SAPC     P 4248   4.555   2.198   6.005 -0.2410 -0.0549  0.3581
   32SAPC   O13 4249   4.618   2.106   5.906  0.2078 -0.1567  0.2033
   32SAPC   O14 4250   4.608   2.334   5.999  0.3227 -0.4728  0.0604
   32SAPC   O12 4251   4.395   2.195   5.975 -0.1937  0.3449  0.2628
   32SAPC   O11 4252   4.559   2.148   6.147 -0.4032  0.2936 -0.5363
   32SAPC    C1 4253   4.454   2.058   6.196 -0.8167 -0.0493  0.4157
   32SAPC    HA 4254   4.361   2.111   6.226 -0.3165  3.1175 -2.8418
   32SAPC    HB 4255   4.416   1.997   6.111  0.6072  1.6840 -1.5702
   32SAPC    C2 4256   4.501   1.961   6.308  0.6866 -1.4596  0.1651
   32SAPC    HS 4257   4.417   1.899   6.346  0.9727 -2.1916 -0.3526
   32SAPC   O21 4258   4.565   2.046   6.404  0.3352 -0.3188  0.3320
   32SAPC   C21 4259   4.486   2.097   6.500 -0.0412  0.0549  0.9435
   32SAPC   O22 4260   4.363   2.101   6.489 -0.3538 -0.4192  0.5880
   32SAPC   C22 4261   4.568   2.152   6.615  0.3389  0.4229 -0.0295
   32SAPC   H2R 4262   4.663   2.096   6.624 -0.5501 -1.4852 -1.6587
   32SAPC   H2S 4263   4.597   2.252   6.574 -1.2722  1.8124  1.9905
   32SAPC    C3 4264   4.601   1.858   6.248  0.6228 -0.2982 -0.0706
   32SAPC    HX 4265   4.675   1.917   6.188  1.6913 -2.0326 -0.5134
   32SAPC    HY 4266   4.554   1.791   6.173  3.6683 -2.3404 -0.3165
   32SAPC   O31 4267   4.643   1.778   6.358 -0.0413  0.6135  0.7204
   32SAPC   C31 4268   4.765   1.806   6.403 -0.0548  0.4452  0.1214
   32SAPC   O32 4269   4.835   1.901   6.364 -0.4013  0.4004  0.3056
   32SAPC   C32 4270   4.806   1.699   6.503 -0.8021  0.0208 -0.1949
   32SAPC   H2X 4271   4.907   1.662   6.477 -1.7728 -1.5426 -2.0208
   32SAPC   H2Y 4272   4.750   1.604   6.492 -0.4204 -0.2704  0.3410
   32SAPC   C23 4273   4.481   2.166   6.745 -0.5571  0.5263 -0.7097
   32SAPC   H3R 4274   4.386   2.223   6.735 -0.2211  1.5567  1.2269
   32SAPC   H3S 4275   4.536   2.217   6.828 -0.8432 -1.1103  0.5313
   32SAPC   C24 4276   4.421   2.039   6.806  0.2808 -0.0290 -0.5052
   32SAPC   H4R 4277   4.386   1.965   6.731 -2.1855 -2.1043  2.3882
   32SAPC   H4S 4278   4.321   2.064   6.848  0.2452 -1.5190  0.3836
   32SAPC   C25 4279   4.519   1.965   6.892  0.1181  0.3837 -0.1096
   32SAPC   H5R 4280   4.589   1.897   6.843 -2.8193 -3.5025  0.5456
   32SAPC   C26 4281   4.519   1.970   7.024 -0.2758 -1.2315 -0.2552
   32SAPC   H6R 4282   4.601   1.920   7.078  0.1681 -0.4638 -0.2055
   32SAPC   C27 4283   4.430   2.041   7.124  0.3741 -0.5073  0.5201
   32SAPC   H7R 4284   4.408   1.984   7.218 -2.8230  2.1006  1.5431
   32SAPC   H7S 4285   4.326   2.042   7.084  0.0767 -3.3263  0.9923
   32SAPC   C28 4286   4.458   2.183   7.153 -0.7626 -0.0071 -0.1982
   32SAPC   H8R 4287   4.501   2.239   7.069 -1.9848  1.3025  0.0180
   32SAPC   C29 4288   4.431   2.244   7.270  0.1905  0.6418 -0.4546
   32SAPC   H9R 4289   4.463   2.349   7.279 -1.2047  1.1240 -0.8136
   32SAPC  C210 4290   4.354   2.184   7.390 -0.1264 -1.1055  0.1722
   32SAPC  H10R 4291   4.409   2.214   7.482 -0.8719  1.3063 -0.1017
   32SAPC  H10S 4292   4.372   2.074   7.385  1.9797 -0.7451 -1.8187
   32SAPC  C211 4293   4.211   2.216   7.397 -0.0227  0.0634  0.8956
   32SAPC  H11R 4294   4.157   2.193   7.305  1.2050  1.7399 -0.2980
   32SAPC  C212 4295   4.147   2.250   7.511  0.0368  0.2271 -0.6521
   32SAPC  H12R 4296   4.039   2.268   7.499  0.2368 -0.1223 -3.6692
   32SAPC  C213 4297   4.197   2.262   7.647  0.0039 -0.3303 -0.0198
   32SAPC  H13R 4298   4.239   2.364   7.653 -1.8590  0.4424  0.8322
   32SAPC  H13S 4299   4.286   2.196   7.657 -0.5154 -1.0116  0.2528
   32SAPC  C214 4300   4.105   2.253   7.767 -0.2152  0.7489 -0.2386
   32SAPC  H14R 4301   4.021   2.185   7.747  0.5533 -0.6343  1.0624
   32SAPC  C215 4302   4.099   2.331   7.878  0.1446  0.3925 -0.2912
   32SAPC  H15R 4303   4.028   2.302   7.957  1.7563 -0.3748  0.9254
   32SAPC  C216 4304   4.195   2.443   7.910  0.5240  0.5270  0.1816
   32SAPC  H16R 4305   4.136   2.531   7.941 -0.5818  0.0986 -0.6363
   32SAPC  H16S 4306   4.256   2.473   7.822 -3.2949  2.0978 -2.1698
   32SAPC  C217 4307   4.280   2.389   8.026  0.1658 -0.0276 -0.2775
   32SAPC  H17R 4308   4.341   2.304   7.988 -0.6004  0.0599 -1.7603
   32SAPC  H17S 4309   4.213   2.347   8.104  0.4337  1.5569  0.8742
   32SAPC  C218 4310   4.366   2.499   8.082 -0.0661 -0.3684  1.5290
   32SAPC  H18R 4311   4.314   2.596   8.094  1.3516  0.4456  1.3606
   32SAPC  H18S 4312   4.450   2.516   8.012 -0.7160  3.5261  1.5035
   32SAPC  C219 4313   4.414   2.463   8.214  0.6331  0.0142  0.0235
   32SAPC  H19R 4314   4.460   2.361   8.210 -0.6545 -0.6489  1.1621
   32SAPC  H19S 4315   4.320   2.446   8.271  1.4298 -1.4513  0.9980
   32SAPC  C220 4316   4.502   2.561   8.279 -0.2725 -0.4048 -0.6962
   32SAPC  H20R 4317   4.440   2.647   8.311 -1.5246 -2.7445  3.9676
   32SAPC  H20S 4318   4.585   2.594   8.213  0.2666 -2.0126 -0.8563
   32SAPC  H20T 4319   4.532   2.506   8.370 -0.6547 -3.0217 -2.0653
   32SAPC   C33 4320   4.802   1.748   6.656  0.3402 -0.1998 -0.1908
   32SAPC   H3X 4321   4.779   1.654   6.711 -0.8323 -0.4445 -1.0567
   32SAPC   H3Y 4322   4.711   1.808   6.677  0.1905 -0.6992  0.6664
   32SAPC   C34 4323   4.936   1.805   6.700 -0.4929  0.5798 -1.0130
   32SAPC   H4X 4324   4.952   1.889   6.629  0.8409  0.3029 -1.0637
   32SAPC   H4Y 4325   5.023   1.736   6.692  0.7254  1.8479  0.7115
   32SAPC   C35 4326   4.929   1.858   6.845 -0.5539 -0.3799  0.4717
   32SAPC   H5X 4327   4.849   1.935   6.850 -1.3555 -1.0950 -0.7001
   32SAPC   H5Y 4328   5.030   1.894   6.873 -0.7784 -1.1207  2.3940
   32SAPC   C36 4329   4.899   1.748   6.947 -0.7134 -0.2845  0.0508
   32SAPC   H6X 4330   4.991   1.687   6.956 -0.1262  0.8083  2.2543
   32SAPC   H6Y 4331   4.812   1.683   6.923 -0.4371 -1.5627  2.2191
   32SAPC   C37 4332   4.894   1.807   7.088  0.3602  0.2206 -0.4431
   32SAPC   H7X 4333   4.813   1.881   7.101 -0.0180 -0.5557  2.2309
   32SAPC   H7Y 4334   4.989   1.856   7.118  0.6830 -0.8689  0.3684
   32SAPC   C38 4335   4.877   1.701   7.195  0.0936  0.4976 -0.6796
   32SAPC   H8X 4336   4.959   1.626   7.189  1.4634  1.4751  2.9278
   32SAPC   H8Y 4337   4.784   1.646   7.172 -0.5491  0.9374  0.7555
   32SAPC   C39 4338   4.876   1.764   7.337  0.0622  0.0056 -1.3211
   32SAPC   H9X 4339   4.771   1.794   7.361 -0.0623 -0.8114 -0.7999
   32SAPC   H9Y 4340   4.943   1.852   7.345  1.4651 -1.0363 -1.3161
   32SAPC  C310 4341   4.914   1.665   7.456  0.2358 -0.5064  0.6261
   32SAPC  H10X 4342   4.993   1.591   7.429  0.8800  1.0509 -2.1005
   32SAPC  H10Y 4343   4.833   1.597   7.490  0.4399 -0.5404  1.0557
   32SAPC  C311 4344   4.950   1.761   7.570  0.4574 -0.2537  0.2282
   32SAPC  H11X 4345   4.867   1.834   7.581  1.0402  0.4022  0.3093
   32SAPC  H11Y 4346   5.042   1.818   7.549 -0.4945  2.4169  2.6682
   32SAPC  C312 4347   4.959   1.682   7.701 -0.0233  0.1243 -0.2553
   32SAPC  H12X 4348   5.035   1.602   7.684  0.3021  0.6700 -1.4246
   32SAPC  H12Y 4349   4.862   1.629   7.717 -0.1158  0.0297 -1.1136
   32SAPC  C313 4350   4.974   1.758   7.836 -0.3448 -0.2988  0.6323
   32SAPC  H13X 4351   4.891   1.831   7.825 -0.4867 -0.4720  0.5455
   32SAPC  H13Y 4352   5.071   1.808   7.853  0.8413 -3.1087  2.9210
   32SAPC  C314 4353   4.943   1.663   7.952  0.9917 -0.2330  0.1124
   32SAPC  H14X 4354   4.844   1.614   7.936  0.1602  0.8935  1.6332
   32SAPC  H14Y 4355   4.935   1.718   8.048  2.2060 -0.8217  0.5725
   32SAPC  C315 4356   5.050   1.558   7.990 -0.2395 -0.6893  0.5901
   32SAPC  H15X 4357   5.151   1.602   7.976 -0.1922 -1.2481 -1.1077
   32SAPC  H15Y 4358   5.056   1.474   7.917  0.0315 -0.4163  0.2993
   32SAPC  C316 4359   5.051   1.511   8.140  0.5578 -0.6604  1.0115
   32SAPC  H16X 4360   4.943   1.493   8.158  0.1172  0.1562 -0.5647
   32SAPC  H16Y 4361   5.061   1.596   8.210 -2.2531 -0.1965  0.9891
   32SAPC  C317 4362   5.136   1.394   8.183 -0.1502 -0.3438  0.0890
   32SAPC  H17X 4363   5.237   1.410   8.140 -1.6566  0.9375 -3.2944
   32SAPC  H17Y 4364   5.087   1.297   8.159 -0.5994 -0.9182  2.8998
   32SAPC  C318 4365   5.150   1.381   8.339 -0.0143 -0.7839  0.4856
   32SAPC  H18X 4366   5.203   1.287   8.367 -0.1038 -0.7199  0.8812
   32SAPC  H18Y 4367   5.046   1.369   8.377 -0.3158  1.6883  0.6210
   32SAPC  H18Z 4368   5.196   1.467   8.393  1.3751 -2.6780  2.4981
   33POPC     N 4369   1.621   1.669  10.756  0.7081 -0.0118  0.1772
   33POPC   C12 4370   1.551   1.597  10.648  0.0754 -0.1167  0.0025
   33POPC  H12A 4371   1.539   1.496  10.687 -3.5001 -1.0596 -2.9499
   33POPC  H12B 4372   1.620   1.595  10.566  0.7534 -2.4748  0.5274
   33POPC   C13 4373   1.726   1.584  10.819 -0.1273 -0.7540  0.2758
   33POPC  H13A 4374   1.695   1.481  10.831  4.1912 -2.5402 -1.5865
   33POPC  H13B 4375   1.812   1.585  10.754 -1.3140  0.6335 -1.3659
   33POPC  H13C 4376   1.748   1.630  10.915 -3.4828  0.0577  0.7790
   33POPC   C14 4377   1.681   1.797  10.705 -0.0619 -0.0395 -0.3189
   33POPC  H14A 4378   1.610   1.869  10.666  1.8925  2.2761  0.1267
   33POPC  H14B 4379   1.738   1.847  10.782  0.0813 -0.7164  0.0217
   33POPC  H14C 4380   1.753   1.783  10.625 -0.2556  2.3514 -1.0056
   33POPC   C15 4381   1.527   1.707  10.868  0.9511 -0.0265 -0.0010
   33POPC  H15A 4382   1.578   1.737  10.959  0.0865 -0.3574  0.6110
   33POPC  H15B 4383   1.465   1.620  10.885 -0.7981  0.3129 -3.7539
   33POPC  H15C 4384   1.451   1.769  10.823 -0.5163 -0.6922  1.4645
   33POPC   C11 4385   1.420   1.650  10.593 -0.4697 -0.3975  0.5474
   33POPC  H11A 4386   1.360   1.663  10.685  1.8646  0.0529  2.0942
   33POPC  H11B 4387   1.364   1.582  10.526 -0.2288  0.9044 -1.0333
   33POPC     P 4388   1.372   1.910  10.558  0.1923 -0.1709  0.1129
   33POPC   O13 4389   1.442   2.018  10.485 -0.2651 -0.1257  0.0776
   33POPC   O14 4390   1.359   1.923  10.703  0.0938  0.6453  0.1937
   33POPC   O12 4391   1.447   1.777  10.529  0.7336 -0.3182 -0.1087
   33POPC   O11 4392   1.227   1.903  10.491 -0.6349 -0.0617 -0.4365
   33POPC    C1 4393   1.210   1.847  10.362 -0.2259 -0.2686  0.1638
   33POPC    HA 4394   1.278   1.898  10.290  0.2401 -0.0971  0.7219
   33POPC    HB 4395   1.234   1.739  10.356  0.1526 -0.1298 -1.4868
   33POPC    C2 4396   1.070   1.877  10.309 -0.4937 -0.1551  0.3412
   33POPC    HS 4397   1.045   1.984  10.324 -0.1836 -0.0872  0.3665
   33POPC   O21 4398   0.974   1.790  10.373  0.4034  0.2903 -0.7383
   33POPC   C21 4399   0.850   1.816  10.375  0.7997  0.6496  0.4441
   33POPC   O22 4400   0.797   1.919  10.353  0.1265  0.0431 -0.0211
   33POPC   C22 4401   0.777   1.694  10.442  0.0885 -0.5088  0.1377
   33POPC   H2R 4402   0.732   1.727  10.538 -1.1353 -1.5239 -0.0487
   33POPC   H2S 4403   0.844   1.607  10.460 -1.5892 -1.4101  2.5298
   33POPC    C3 4404   1.046   1.848  10.157  0.3513 -0.1317  0.5475
   33POPC    HX 4405   0.936   1.845  10.139 -0.0586  1.5097  2.3675
   33POPC    HY 4406   1.073   1.742  10.136 -1.4079 -1.0259  2.4539
   33POPC   O31 4407   1.105   1.956  10.066  0.1260  0.7586  0.0110
   33POPC   C31 4408   1.118   1.900   9.941 -0.3814 -0.0258  0.1049
   33POPC   O32 4409   1.097   1.784   9.918  0.1347  0.4316  0.6746
   33POPC   C32 4410   1.143   2.022   9.842  0.0092  0.1165 -0.1686
   33POPC   H2X 4411   1.220   2.085   9.891 -0.3526  0.7667 -0.4209
   33POPC   H2Y 4412   1.047   2.078   9.841 -0.0064  0.1372 -2.0707
   33POPC   C23 4413   0.657   1.646  10.354 -0.8254 -0.2119 -0.6915
   33POPC   H3R 4414   0.588   1.733  10.348  1.0058  1.3052 -0.9052
   33POPC   H3S 4415   0.603   1.563  10.403 -1.6795 -0.6720 -2.3274
   33POPC   C24 4416   0.695   1.604  10.207 -0.4796 -0.3775  0.3264
   33POPC   H4R 4417   0.776   1.529  10.209  0.1820  0.2624 -0.9276
   33POPC   H4S 4418   0.717   1.701  10.157 -1.0397  0.3942  1.5344
   33POPC   C25 4419   0.575   1.562  10.129  0.0410  0.7980  0.0918
   33POPC   H5R 4420   0.484   1.615  10.164 -2.2047 -1.3965 -2.0316
   33POPC   H5S 4421   0.552   1.454  10.145 -1.8694  1.0555 -0.6151
   33POPC   C26 4422   0.576   1.572   9.973 -0.7091  0.2442 -0.6775
   33POPC   H6R 4423   0.544   1.674   9.941  0.0931  0.6209 -0.2939
   33POPC   H6S 4424   0.495   1.511   9.927 -0.8508 -0.0936  0.0144
   33POPC   C27 4425   0.711   1.523   9.914  0.1802  0.4135 -0.0367
   33POPC   H7R 4426   0.754   1.428   9.950  0.3262  0.5082  0.0406
   33POPC   H7S 4427   0.787   1.597   9.948  1.4264  0.3742 -2.5451
   33POPC   C28 4428   0.710   1.526   9.762 -0.1458  0.9576 -0.6554
   33POPC   H8R 4429   0.815   1.520   9.726 -0.4889 -1.8569 -1.4358
   33POPC   H8S 4430   0.669   1.626   9.737 -0.8734  0.0140 -3.6371
   33POPC   C29 4431   0.616   1.435   9.690  0.2194  0.2806  0.2542
   33POPC   H91 4432   0.552   1.376   9.757 -0.0594  0.8798  0.5221
   33POPC  C210 4433   0.617   1.407   9.551 -0.1528 -0.3226  0.7624
   33POPC  H101 4434   0.555   1.327   9.508  0.5229 -0.5318  0.1544
   33POPC  C211 4435   0.704   1.478   9.451  0.4557  0.2332 -0.0533
   33POPC  H11R 4436   0.788   1.532   9.501  0.6342  0.1477 -0.2613
   33POPC  H11S 4437   0.649   1.559   9.399  0.5495 -0.0823 -0.6431
   33POPC  C212 4438   0.758   1.385   9.342  0.2779  0.4612 -0.4354
   33POPC  H12R 4439   0.675   1.342   9.281  0.3470 -1.3342  0.6462
   33POPC  H12S 4440   0.825   1.305   9.380  0.9854  0.9666 -0.5889
   33POPC  C213 4441   0.848   1.464   9.235  0.3719 -0.5478  0.0041
   33POPC  H13R 4442   0.901   1.393   9.168 -1.5134 -0.5008 -1.6336
   33POPC  H13S 4443   0.924   1.519   9.294  0.0391  1.5858 -1.4595
   33POPC  C214 4444   0.769   1.556   9.135 -0.2982 -0.9408  0.1381
   33POPC  H14R 4445   0.725   1.638   9.195 -0.7386 -0.4391 -0.8500
   33POPC  H14S 4446   0.684   1.509   9.081  1.1064  1.2214 -4.4392
   33POPC  C215 4447   0.861   1.629   9.033  0.2454 -0.7710 -0.0556
   33POPC  H15R 4448   0.882   1.540   8.971 -1.5777 -1.1142 -0.2464
   33POPC  H15S 4449   0.950   1.678   9.078  0.2812  0.6390 -1.5650
   33POPC  C216 4450   0.779   1.743   8.965 -0.4175 -0.0492 -0.0286
   33POPC  H16R 4451   0.845   1.810   8.906  0.6510  0.1916  1.3961
   33POPC  H16S 4452   0.723   1.800   9.042  0.2236  1.7730 -0.8551
   33POPC  C217 4453   0.664   1.710   8.871  0.4357 -0.0007 -0.4213
   33POPC  H17R 4454   0.604   1.800   8.845 -0.4386 -0.8805 -1.5464
   33POPC  H17S 4455   0.592   1.647   8.927  0.1598  0.8836  0.2565
   33POPC  C218 4456   0.717   1.628   8.748  0.4441  0.3363  0.3314
   33POPC  H18R 4457   0.827   1.643   8.736  0.6499 -1.1509  0.2706
   33POPC  H18S 4458   0.659   1.644   8.655 -0.5919  0.4230  0.9777
   33POPC  H18T 4459   0.704   1.521   8.774 -0.7035 -0.2389 -2.2452
   33POPC   C33 4460   1.191   1.983   9.699  0.0601  0.2706  0.7706
   33POPC   H3X 4461   1.142   1.891   9.659  1.9033 -0.0193 -0.9799
   33POPC   H3Y 4462   1.298   1.955   9.697  0.2473  1.0091 -0.5540
   33POPC   C34 4463   1.167   2.106   9.609 -0.1390 -0.0454  0.1276
   33POPC   H4X 4464   1.198   2.194   9.668 -0.2032  0.0023  0.0905
   33POPC   H4Y 4465   1.060   2.129   9.588 -0.3693 -0.4297  0.8552
   33POPC   C35 4466   1.256   2.108   9.485  0.2141  0.6195 -0.1453
   33POPC   H5X 4467   1.360   2.082   9.513 -0.4034 -2.1044 -0.0924
   33POPC   H5Y 4468   1.257   2.215   9.455 -0.1510  1.2009  1.7984
   33POPC   C36 4469   1.213   2.010   9.383 -0.3152  0.2258  0.2817
   33POPC   H6X 4470   1.111   2.027   9.344 -0.7357  0.6988  1.5425
   33POPC   H6Y 4471   1.220   1.906   9.421 -1.8717  0.9593  2.7819
   33POPC   C37 4472   1.297   2.021   9.250 -0.3407  0.3472 -0.1305
   33POPC   H7X 4473   1.402   1.994   9.276  0.2446  1.7170 -0.9066
   33POPC   H7Y 4474   1.291   2.125   9.211 -0.5018 -0.1791 -1.5765
   33POPC   C38 4475   1.239   1.939   9.130  0.5854  0.0496 -0.4342
   33POPC   H8X 4476   1.150   1.987   9.082 -0.8152 -2.0316 -0.0331
   33POPC   H8Y 4477   1.201   1.842   9.169  0.0426  0.3959 -0.0786
   33POPC   C39 4478   1.344   1.919   9.026  0.2160 -0.0605 -0.8391
   33POPC   H9X 4479   1.415   1.842   9.061 -0.3198 -0.5654 -0.8458
   33POPC   H9Y 4480   1.402   2.014   9.019  0.0528  0.3958  2.3292
   33POPC  C310 4481   1.290   1.884   8.882 -0.8520 -0.2397  0.5034
   33POPC  H10X 4482   1.255   1.982   8.844  1.1622 -0.6285 -2.6955
   33POPC  H10Y 4483   1.214   1.804   8.877 -1.2563  0.1993 -0.4406
   33POPC  C311 4484   1.409   1.843   8.791 -0.5483  0.1286  0.4955
   33POPC  H11X 4485   1.449   1.742   8.815 -0.2314  0.0336 -0.4056
   33POPC  H11Y 4486   1.489   1.921   8.795  0.2513 -0.6194 -0.4586
   33POPC  C312 4487   1.374   1.836   8.638  0.1740 -0.3227 -0.2326
   33POPC  H12X 4488   1.459   1.783   8.588  0.1195 -0.7312  0.0991
   33POPC  H12Y 4489   1.382   1.941   8.603  3.2198 -0.1156  0.7926
   33POPC  C313 4490   1.242   1.768   8.592  0.1171 -0.0434  0.3162
   33POPC  H13X 4491   1.164   1.822   8.649 -0.8993  1.7938 -2.6153
   33POPC  H13Y 4492   1.238   1.664   8.631 -1.7402 -0.9437 -2.0325
   33POPC  C314 4493   1.228   1.771   8.439 -0.2709  0.2130 -0.3626
   33POPC  H14X 4494   1.318   1.716   8.403  0.8412  1.8300 -0.2075
   33POPC  H14Y 4495   1.222   1.877   8.407 -2.8500 -0.0519 -0.9225
   33POPC  C315 4496   1.104   1.704   8.388 -0.1534  0.1613 -0.6351
   33POPC  H15X 4497   1.014   1.763   8.417 -2.2018 -1.7625 -2.6789
   33POPC  H15Y 4498   1.091   1.605   8.437  0.1837  0.7486  0.6912
   33POPC  C316 4499   1.113   1.685   8.233  0.0424  0.4708 -0.6233
   33POPC  H16X 4500   1.040   1.604   8.211  0.1314 -0.0731  1.0073
   33POPC  H16Y 4501   1.214   1.648   8.206 -0.5385 -0.0692 -2.2404
   33POPC  H16Z 4502   1.091   1.781   8.181 -0.1263  0.8230  0.0965
   34POPC     N 4503   1.384   3.830  10.802  0.1835  0.0489  0.3663
   34POPC   C12 4504   1.405   3.772  10.662 -0.3728 -0.8708 -0.0760
   34POPC  H12A 4505   1.508   3.794  10.637  0.6295 -3.3230  1.5355
   34POPC  H12B 4506   1.334   3.802  10.586 -0.2115 -5.0824 -2.1954
   34POPC   C13 4507   1.485   3.774  10.893  0.0666 -0.3506 -0.3990
   34POPC  H13A 4508   1.460   3.673  10.920 -0.6627  0.0519  0.4857
   34POPC  H13B 4509   1.580   3.772  10.841 -0.2344  1.4488 -1.1064
   34POPC  H13C 4510   1.493   3.824  10.989 -0.5858 -1.1974  0.1030
   34POPC   C14 4511   1.397   3.980  10.794 -0.0038 -0.1541 -0.0588
   34POPC  H14A 4512   1.306   4.017  10.750 -0.9957  1.3356  2.9904
   34POPC  H14B 4513   1.402   4.019  10.895  1.6935 -3.0429  1.1159
   34POPC  H14C 4514   1.479   3.997  10.726 -0.4327 -0.1211 -0.5682
   34POPC   C15 4515   1.237   3.810  10.842  0.2755  0.6319  0.0895
   34POPC  H15A 4516   1.212   3.707  10.819  0.6308  0.7776 -0.9957
   34POPC  H15B 4517   1.173   3.865  10.775 -0.5953 -0.5002 -0.0404
   34POPC  H15C 4518   1.216   3.835  10.945 -0.6882  0.6211 -0.0927
   34POPC   C11 4519   1.373   3.615  10.643 -0.3128 -0.0712 -0.6498
   34POPC  H11A 4520   1.410   3.566  10.735 -0.3333 -1.7693 -1.5037
   34POPC  H11B 4521   1.433   3.584  10.555  0.8640 -2.2642  0.8367
   34POPC     P 4522   1.159   3.469  10.680 -0.1118  0.4845  0.0248
   34POPC   O13 4523   1.038   3.522  10.747 -0.0937  0.7166  0.6664
   34POPC   O14 4524   1.258   3.380  10.745  0.2622 -0.4238 -0.2867
   34POPC   O12 4525   1.236   3.595  10.616  0.2136 -0.2082  0.2864
   34POPC   O11 4526   1.114   3.384  10.557  0.4305 -0.7362  0.3664
   34POPC    C1 4527   1.201   3.352  10.443 -0.0548  0.0899 -0.3490
   34POPC    HA 4528   1.186   3.246  10.411  0.9646 -0.1850  0.0405
   34POPC    HB 4529   1.304   3.353  10.484 -0.7194 -0.6928  1.4756
   34POPC    C2 4530   1.180   3.450  10.324  0.0914  0.7306  0.2863
   34POPC    HS 4531   1.156   3.551  10.364 -3.0899  0.3238 -0.3316
   34POPC   O21 4532   1.067   3.389  10.251 -0.4685 -0.0601 -0.1121
   34POPC   C21 4533   0.995   3.485  10.201  0.0451 -1.0674 -1.0119
   34POPC   O22 4534   1.007   3.602  10.217 -0.3658  0.4342  0.2464
   34POPC   C22 4535   0.884   3.428  10.120 -0.0918  0.3936  0.2649
   34POPC   H2R 4536   0.808   3.386  10.190 -2.2828  0.4799 -1.9563
   34POPC   H2S 4537   0.910   3.342  10.055 -2.1961  0.7216 -1.1167
   34POPC    C3 4538   1.312   3.453  10.234  0.2852 -0.5693  0.1293
   34POPC    HX 4539   1.332   3.345  10.217  0.0164 -0.6091  0.0697
   34POPC    HY 4540   1.389   3.502  10.298  0.3170  0.3300 -0.5806
   34POPC   O31 4541   1.306   3.510  10.097  0.6441  0.3251 -0.0984
   34POPC   C31 4542   1.298   3.642  10.097 -0.4346 -0.5339  0.5407
   34POPC   O32 4543   1.302   3.714  10.200 -0.1865  0.3457  0.3184
   34POPC   C32 4544   1.300   3.689   9.947  0.7139 -0.6221  0.1993
   34POPC   H2X 4545   1.241   3.614   9.890  0.3915 -0.5113  0.3853
   34POPC   H2Y 4546   1.407   3.675   9.920  0.6167 -0.6046 -0.2097
   34POPC   C23 4547   0.832   3.538  10.027  0.2320 -0.0149  0.0712
   34POPC   H3R 4548   0.792   3.623  10.085  1.1049  1.3763 -1.2848
   34POPC   H3S 4549   0.752   3.490   9.967 -1.4019 -1.3120  3.0656
   34POPC   C24 4550   0.939   3.602   9.932  0.0481 -0.0662 -0.4019
   34POPC   H4R 4551   1.016   3.661   9.987 -1.9405  2.4025 -0.0705
   34POPC   H4S 4552   0.883   3.673   9.867  0.9753 -0.0305 -1.1799
   34POPC   C25 4553   1.004   3.511   9.828 -0.0318 -0.4187 -0.8117
   34POPC   H5R 4554   1.081   3.449   9.879  0.9267  1.1921 -0.2679
   34POPC   H5S 4555   1.073   3.574   9.768 -1.5831  1.5474 -0.6476
   34POPC   C26 4556   0.902   3.426   9.738 -0.1705 -0.5889 -0.8076
   34POPC   H6R 4557   0.811   3.479   9.704  0.1395 -0.1924 -1.0194
   34POPC   H6S 4558   0.869   3.350   9.813  1.3969  0.5203  1.0995
   34POPC   C27 4559   0.973   3.340   9.628 -0.6550  0.0818  0.5551
   34POPC   H7R 4560   0.926   3.240   9.617 -1.6715  0.7290 -1.2798
   34POPC   H7S 4561   1.077   3.313   9.656  0.0837 -1.4858 -3.1226
   34POPC   C28 4562   0.980   3.412   9.491  0.7854 -0.5452  0.5160
   34POPC   H8R 4563   1.059   3.355   9.437  1.3216 -0.7415  1.4760
   34POPC   H8S 4564   1.023   3.513   9.505  2.6324 -0.7298 -2.7771
   34POPC   C29 4565   0.846   3.423   9.416 -0.1663 -0.7213 -0.0697
   34POPC   H91 4566   0.760   3.463   9.472  0.1505 -0.0271 -0.0645
   34POPC  C210 4567   0.839   3.390   9.287  0.2448 -0.6079 -0.8425
   34POPC  H101 4568   0.740   3.412   9.245  0.4004 -1.6323 -1.8124
   34POPC  C211 4569   0.941   3.333   9.196  0.1270 -1.2522  0.0219
   34POPC  H11R 4570   0.960   3.225   9.211  2.0933 -0.8505  0.7616
   34POPC  H11S 4571   1.038   3.383   9.219  0.1649 -1.4637  0.3221
   34POPC  C212 4572   0.921   3.360   9.043 -0.3046  0.1069  0.0326
   34POPC  H12R 4573   1.016   3.327   8.994  0.1334  0.6950  0.4791
   34POPC  H12S 4574   0.930   3.469   9.026  0.2398  0.0648  0.0358
   34POPC  C213 4575   0.797   3.306   8.977  0.8320  0.0830 -0.0699
   34POPC  H13R 4576   0.708   3.336   9.036 -1.2835 -0.5635 -2.7379
   34POPC  H13S 4577   0.797   3.195   8.984  2.4991  0.0276 -0.4697
   34POPC  C214 4578   0.787   3.351   8.827  0.1468 -0.0364 -0.1302
   34POPC  H14R 4579   0.699   3.305   8.776 -0.2222  0.1689  0.3222
   34POPC  H14S 4580   0.885   3.312   8.792  0.6080 -1.3782  2.4017
   34POPC  C215 4581   0.782   3.504   8.797  0.1205 -0.5527  1.4490
   34POPC  H15R 4582   0.887   3.541   8.806  0.5597 -1.8850  2.2011
   34POPC  H15S 4583   0.727   3.561   8.875  1.3553  1.5508  0.8509
   34POPC  C216 4584   0.737   3.541   8.649  0.3170 -0.0249 -0.2515
   34POPC  H16R 4585   0.823   3.510   8.587  0.0848 -0.2290 -0.4713
   34POPC  H16S 4586   0.730   3.652   8.653 -1.3628  0.0293 -2.8387
   34POPC  C217 4587   0.599   3.497   8.594 -0.1474  0.0434  0.0208
   34POPC  H17R 4588   0.609   3.388   8.576  0.7577  0.0823  0.2299
   34POPC  H17S 4589   0.594   3.541   8.492  1.0045  0.5278  0.1582
   34POPC  C218 4590   0.489   3.523   8.690 -0.2352  0.4519 -0.0104
   34POPC  H18R 4591   0.491   3.634   8.701 -1.8002  0.5308 -0.2285
   34POPC  H18S 4592   0.523   3.485   8.788 -1.3401 -1.1354 -0.1989
   34POPC  H18T 4593   0.392   3.476   8.663  0.2333 -1.1642  1.0128
   34POPC   C33 4594   1.248   3.837   9.925 -0.0888  0.1767  0.3847
   34POPC   H3X 4595   1.338   3.902   9.916  0.2467  0.0029  2.0937
   34POPC   H3Y 4596   1.190   3.879  10.010  0.1682  2.1118 -0.3271
   34POPC   C34 4597   1.157   3.859   9.797  0.1313  0.2675 -0.7171
   34POPC   H4X 4598   1.082   3.938   9.820  0.6126  0.2278  1.2237
   34POPC   H4Y 4599   1.098   3.767   9.777  1.1880 -0.6425  0.1954
   34POPC   C35 4600   1.237   3.902   9.674  0.1708 -0.5537 -0.5762
   34POPC   H5X 4601   1.317   3.829   9.648 -0.1545 -0.2440 -2.5970
   34POPC   H5Y 4602   1.291   3.995   9.702 -2.2494  0.8658 -0.3778
   34POPC   C36 4603   1.150   3.922   9.549 -0.6970  0.6311 -1.0747
   34POPC   H6X 4604   1.204   3.973   9.467 -0.3207 -0.3325 -1.4395
   34POPC   H6Y 4605   1.058   3.970   9.588 -0.5060 -2.2775  3.7850
   34POPC   C37 4606   1.118   3.787   9.489  0.2565 -0.0275  0.3336
   34POPC   H7X 4607   1.070   3.723   9.566  1.4404  0.7295  1.7616
   34POPC   H7Y 4608   1.202   3.726   9.448 -0.9142 -1.4089 -0.0924
   34POPC   C38 4609   1.007   3.798   9.380 -0.6123 -0.0936  0.9045
   34POPC   H8X 4610   0.936   3.874   9.421  0.3864  1.3977 -0.0186
   34POPC   H8Y 4611   0.957   3.700   9.368 -0.4149  0.1472 -2.8457
   34POPC   C39 4612   1.061   3.843   9.244  0.1530  0.8266 -0.6598
   34POPC   H9X 4613   1.131   3.926   9.269  3.4438 -2.6718  3.6220
   34POPC   H9Y 4614   0.969   3.873   9.190 -1.7221 -2.0592  0.6602
   34POPC  C310 4615   1.142   3.751   9.170 -0.2712 -0.1106 -0.7565
   34POPC  H10X 4616   1.084   3.657   9.155  0.2015 -0.1971 -2.1103
   34POPC  H10Y 4617   1.226   3.710   9.231 -2.0853 -1.3497  1.0713
   34POPC  C311 4618   1.184   3.795   9.034 -0.1197  0.1529  1.3624
   34POPC  H11X 4619   1.263   3.872   9.043 -0.4677  0.6549  0.2913
   34POPC  H11Y 4620   1.088   3.826   8.987 -0.9694 -1.7380  1.7435
   34POPC  C312 4621   1.242   3.683   8.948 -0.1515 -0.0011 -0.4789
   34POPC  H12X 4622   1.185   3.588   8.953 -0.2343  0.0995  0.8102
   34POPC  H12Y 4623   1.346   3.670   8.984 -1.1778 -1.2170  2.2843
   34POPC  C313 4624   1.242   3.732   8.803 -0.4574  0.0825 -0.1522
   34POPC  H13X 4625   1.298   3.828   8.799  0.9792 -0.5091  2.9092
   34POPC  H13Y 4626   1.136   3.741   8.774 -1.4650 -1.2998  2.6963
   34POPC  C314 4627   1.308   3.623   8.716  0.1117  0.0215 -0.4459
   34POPC  H14X 4628   1.239   3.537   8.729  1.4991 -0.8632  1.7804
   34POPC  H14Y 4629   1.407   3.597   8.759 -0.4347 -0.4878  0.5565
   34POPC  C315 4630   1.316   3.647   8.566 -0.4718  0.5099 -0.1777
   34POPC  H15X 4631   1.382   3.571   8.519 -0.0344 -0.0690  1.3002
   34POPC  H15Y 4632   1.363   3.747   8.551  0.6605  0.1674  0.8960
   34POPC  C316 4633   1.188   3.656   8.491 -0.5764 -0.5755 -0.5738
   34POPC  H16X 4634   1.132   3.561   8.478 -1.4242 -0.0202 -1.0924
   34POPC  H16Y 4635   1.214   3.678   8.385 -2.0471  0.2804 -0.7975
   34POPC  H16Z 4636   1.125   3.737   8.535  0.7497  0.7818 -1.0928
   35POPC     N 4637   1.416   0.290  11.326 -0.3236 -0.1767 -0.4845
   35POPC   C12 4638   1.301   0.291  11.231  0.4838  0.5253  0.3409
   35POPC  H12A 4639   1.235   0.372  11.258 -1.1058 -0.2107 -1.2110
   35POPC  H12B 4640   1.253   0.194  11.240  2.1815 -0.2198  2.4406
   35POPC   C13 4641   1.500   0.171  11.308 -0.4384 -0.0101 -0.1314
   35POPC  H13A 4642   1.452   0.085  11.354 -1.0405  0.2673 -0.2223
   35POPC  H13B 4643   1.514   0.158  11.201 -0.0465 -3.3165  0.2078
   35POPC  H13C 4644   1.601   0.189  11.339 -0.3690  0.3935 -0.5912
   35POPC   C14 4645   1.520   0.409  11.324 -0.3173  0.2400  0.3917
   35POPC  H14A 4646   1.475   0.501  11.356  1.6139  0.3584  3.0966
   35POPC  H14B 4647   1.602   0.384  11.389  1.1447 -0.3305 -1.5757
   35POPC  H14C 4648   1.564   0.411  11.225  0.3810  1.6750  0.7132
   35POPC   C15 4649   1.370   0.284  11.466  0.2846  0.0553  0.5694
   35POPC  H15A 4650   1.436   0.320  11.543 -0.7838  0.5104  1.2923
   35POPC  H15B 4651   1.342   0.181  11.484  0.5001 -0.1518 -0.2459
   35POPC  H15C 4652   1.285   0.347  11.486 -0.2012  0.1950 -1.6707
   35POPC   C11 4653   1.335   0.282  11.083 -0.0230  0.3952 -0.1787
   35POPC  H11A 4654   1.379   0.381  11.059 -1.6034  1.5259  1.3139
   35POPC  H11B 4655   1.242   0.268  11.024 -0.2008 -0.8075  0.3554
   35POPC     P 4656   1.369   0.027  11.025  0.3119 -0.1885 -0.2056
   35POPC   O13 4657   1.254   0.004  11.119 -0.3038 -0.0616 -0.0784
   35POPC   O14 4658   1.494  -0.051  11.020  0.0007  0.0206  0.4961
   35POPC   O12 4659   1.425   0.170  11.050 -0.1993  0.3786 -0.1267
   35POPC   O11 4660   1.314   0.037  10.881  0.2934 -0.7288  0.0126
   35POPC    C1 4661   1.355   0.143  10.789  0.2889 -0.3686  0.3036
   35POPC    HA 4662   1.454   0.187  10.812  0.0903  0.6196 -0.6827
   35POPC    HB 4663   1.282   0.227  10.791  2.7802  1.9855 -0.9135
   35POPC    C2 4664   1.366   0.092  10.639 -0.1966 -0.0295  0.4299
   35POPC    HS 4665   1.407   0.177  10.581  0.3396  0.3410  1.3388
   35POPC   O21 4666   1.242   0.058  10.580 -0.0407  0.5389  0.0888
   35POPC   C21 4667   1.155   0.157  10.565  0.9138  0.0733 -0.3524
   35POPC   O22 4668   1.173   0.275  10.587  0.7939 -0.3146  0.2127
   35POPC   C22 4669   1.023   0.101  10.525 -0.7476 -0.1982  0.2230
   35POPC   H2R 4670   0.950   0.185  10.520  1.8411  2.1054 -1.9209
   35POPC   H2S 4671   0.986   0.041  10.611 -0.5244 -0.3543  0.2103
   35POPC    C3 4672   1.461  -0.028  10.626  0.5041 -0.4858 -0.4217
   35POPC    HX 4673   1.432  -0.093  10.711  1.1775  1.1297  1.1097
   35POPC    HY 4674   1.564   0.007  10.650  1.2441 -2.9335  0.2904
   35POPC   O31 4675   1.459  -0.102  10.504  0.5470  0.2925  0.2283
   35POPC   C31 4676   1.491  -0.041  10.386  0.2857  0.4023 -0.2184
   35POPC   O32 4677   1.540   0.069  10.381 -0.2309  0.2471 -0.2182
   35POPC   C32 4678   1.460  -0.142  10.271 -0.1988 -0.2037  0.2942
   35POPC   H2X 4679   1.360  -0.184  10.295 -0.2040 -0.1939  0.2898
   35POPC   H2Y 4680   1.539  -0.217  10.252 -1.3217 -0.9054 -2.0055
   35POPC   C23 4681   1.013   0.028  10.381 -0.4068  0.2311  0.1912
   35POPC   H3R 4682   0.911  -0.014  10.374 -0.3414  0.1742 -0.5663
   35POPC   H3S 4683   1.085  -0.056  10.371 -0.8475 -0.0721 -0.5130
   35POPC   C24 4684   1.045   0.112  10.257  0.6447  0.9715  0.0337
   35POPC   H4R 4685   1.148   0.151  10.266  1.1700 -0.6661  2.0517
   35POPC   H4S 4686   0.978   0.200  10.246 -0.0005  0.2677 -2.5941
   35POPC   C25 4687   1.045   0.035  10.123 -0.2159  0.2364  0.1834
   35POPC   H5R 4688   1.103  -0.060  10.135 -2.5100 -1.5795 -2.0158
   35POPC   H5S 4689   1.084   0.103  10.044  0.9257 -0.6082 -0.0115
   35POPC   C26 4690   0.910  -0.010  10.063  0.1257 -0.1941  0.2306
   35POPC   H6R 4691   0.840   0.074  10.045 -1.0500 -0.6921  2.1890
   35POPC   H6S 4692   0.865  -0.085  10.132 -0.2212 -0.8170 -0.6474
   35POPC   C27 4693   0.928  -0.096   9.931  0.5558  0.2924  0.6622
   35POPC   H7R 4694   0.834  -0.144   9.897 -1.4377  2.8162  2.3010
   35POPC   H7S 4695   1.002  -0.174   9.959 -1.5057 -1.8380  0.4265
   35POPC   C28 4696   0.999  -0.036   9.801  1.3125  0.3905  0.0578
   35POPC   H8R 4697   1.017  -0.115   9.725  1.0202  1.7407 -1.4699
   35POPC   H8S 4698   1.098  -0.004   9.838  0.6217  1.0167  1.4546
   35POPC   C29 4699   0.924   0.084   9.744 -0.6063 -0.1973  0.3703
   35POPC   H91 4700   0.934   0.180   9.797  3.8110  0.6079 -1.4926
   35POPC  C210 4701   0.847   0.080   9.639  0.6837  0.0963 -0.4361
   35POPC  H101 4702   0.782   0.166   9.616 -1.5091 -1.3524  0.0412
   35POPC  C211 4703   0.819  -0.039   9.545 -0.3818  0.4077 -0.0222
   35POPC  H11R 4704   0.714  -0.067   9.566  0.3239 -2.3907  0.2082
   35POPC  H11S 4705   0.886  -0.125   9.566 -1.5166 -0.2945  0.8507
   35POPC  C212 4706   0.837   0.005   9.396  0.4692  0.7698 -0.2007
   35POPC  H12R 4707   0.941   0.042   9.380  0.8613 -0.2189 -0.0163
   35POPC  H12S 4708   0.771   0.091   9.370  0.2188  1.3490  2.0527
   35POPC  C213 4709   0.816  -0.107   9.293 -0.5266 -0.1932 -0.4843
   35POPC  H13R 4710   0.709  -0.134   9.282 -0.9279  0.1656  1.9623
   35POPC  H13S 4711   0.853  -0.200   9.340 -0.0905  0.4813  0.5612
   35POPC  C214 4712   0.894  -0.110   9.157 -0.3450  0.1905  0.2668
   35POPC  H14R 4713   0.914  -0.215   9.125 -1.0168  0.4286 -0.9794
   35POPC  H14S 4714   0.994  -0.065   9.173 -0.1426 -0.2075  0.1495
   35POPC  C215 4715   0.821  -0.032   9.044  0.1739 -0.7867 -0.1950
   35POPC  H15R 4716   0.840   0.075   9.068 -2.2186 -0.4027  0.2684
   35POPC  H15S 4717   0.713  -0.049   9.068  0.2741 -0.7864  0.2629
   35POPC  C216 4718   0.846  -0.079   8.908  0.6724  0.2189  0.7258
   35POPC  H16R 4719   0.955  -0.087   8.890  0.7938  1.0566  1.0691
   35POPC  H16S 4720   0.803  -0.007   8.835 -0.1082 -1.1968 -0.2743
   35POPC  C217 4721   0.775  -0.211   8.883 -0.2882  0.7276  0.2672
   35POPC  H17R 4722   0.669  -0.192   8.910 -0.7067  0.9539 -1.3824
   35POPC  H17S 4723   0.811  -0.283   8.960 -1.5937  0.0717  0.2898
   35POPC  C218 4724   0.773  -0.276   8.744  0.5347  0.3075 -0.3088
   35POPC  H18R 4725   0.862  -0.340   8.725  1.1945  1.2347 -0.4256
   35POPC  H18S 4726   0.760  -0.216   8.651 -1.1559  0.1618 -0.2029
   35POPC  H18T 4727   0.690  -0.349   8.735  0.2780  0.6711 -1.0850
   35POPC   C33 4728   1.445  -0.059  10.142  0.4691 -0.6072  0.0777
   35POPC   H3X 4729   1.512   0.030  10.135 -2.4640  1.7132 -0.4948
   35POPC   H3Y 4730   1.342  -0.018  10.151 -0.4145 -2.9855  1.8522
   35POPC   C34 4731   1.444  -0.132  10.010  0.2402  0.2047  0.3545
   35POPC   H4X 4732   1.375  -0.219  10.012 -0.8218  1.0440  0.4532
   35POPC   H4Y 4733   1.544  -0.175   9.987 -0.3697 -1.0297 -0.0779
   35POPC   C35 4734   1.397  -0.030   9.896 -0.3452  0.1973  0.2071
   35POPC   H5X 4735   1.468   0.056   9.888 -2.1093  1.7868  0.9686
   35POPC   H5Y 4736   1.301   0.011   9.933  0.4990  1.6769  0.8827
   35POPC   C36 4737   1.390  -0.085   9.753  0.0303  0.2052  0.0300
   35POPC   H6X 4738   1.313  -0.165   9.750  1.0839 -0.8401  0.0410
   35POPC   H6Y 4739   1.484  -0.138   9.724 -1.1423 -2.3541  0.5614
   35POPC   C37 4740   1.362   0.024   9.647  0.2815  0.6620 -0.3845
   35POPC   H7X 4741   1.451   0.091   9.646  0.2857  0.6503 -1.0294
   35POPC   H7Y 4742   1.275   0.081   9.686 -0.7028 -0.4509 -0.9057
   35POPC   C38 4743   1.324  -0.033   9.507 -0.6704  0.6741 -0.0186
   35POPC   H8X 4744   1.270   0.047   9.452 -1.2251  0.8763  0.8087
   35POPC   H8Y 4745   1.260  -0.119   9.534 -0.2466 -0.1717 -1.5451
   35POPC   C39 4746   1.448  -0.081   9.427 -0.0437 -0.1022  0.1483
   35POPC   H9X 4747   1.521  -0.130   9.495  0.4852  0.8589  0.2976
   35POPC   H9Y 4748   1.493   0.013   9.388  0.4861  0.8220  2.7895
   35POPC  C310 4749   1.411  -0.174   9.315  0.0714 -0.6977 -0.1988
   35POPC  H10X 4750   1.334  -0.242   9.358  0.6581  0.1376  2.3433
   35POPC  H10Y 4751   1.504  -0.222   9.278 -1.5525 -2.7505 -1.8760
   35POPC  C311 4752   1.347  -0.101   9.201 -0.0179 -1.0607 -0.1223
   35POPC  H11X 4753   1.409  -0.013   9.176 -0.9120 -0.4731 -0.3372
   35POPC  H11Y 4754   1.242  -0.075   9.228  0.7345  0.0668  1.9341
   35POPC  C312 4755   1.325  -0.182   9.066  0.1581  0.1844 -0.5877
   35POPC  H12X 4756   1.284  -0.283   9.089 -0.8996  0.1790 -2.3194
   35POPC  H12Y 4757   1.430  -0.196   9.033  0.9030 -3.9117  2.6449
   35POPC  C313 4758   1.233  -0.107   8.967 -0.4826  0.5925  0.0241
   35POPC  H13X 4759   1.242   0.003   8.981 -2.0175  0.6699  0.5759
   35POPC  H13Y 4760   1.131  -0.140   8.997  0.2763 -0.0009  2.1389
   35POPC  C314 4761   1.249  -0.128   8.813  0.5734  0.4708 -0.7799
   35POPC  H14X 4762   1.341  -0.072   8.785  0.2349  1.1337 -0.5893
   35POPC  H14Y 4763   1.163  -0.079   8.762 -0.5520  0.3736  0.9360
   35POPC  C315 4764   1.294  -0.265   8.760  0.5450 -0.3369 -0.9736
   35POPC  H15X 4765   1.391  -0.293   8.807  0.0071 -2.4624 -1.0317
   35POPC  H15Y 4766   1.323  -0.251   8.654 -0.5664  2.6614 -0.9794
   35POPC  C316 4767   1.190  -0.387   8.768  0.7956 -0.1405 -0.3629
   35POPC  H16X 4768   1.164  -0.402   8.874 -0.1820  1.2246 -0.3866
   35POPC  H16Y 4769   1.234  -0.482   8.730  0.3203 -0.1347 -0.9489
   35POPC  H16Z 4770   1.089  -0.368   8.727  0.6661 -0.7706 -0.3505
   36POPC     N 4771   2.836   3.867  10.829 -0.4639 -1.1121  0.2314
   36POPC   C12 4772   2.763   3.993  10.784 -0.3192 -0.3551  0.1854
   36POPC  H12A 4773   2.828   4.079  10.776  0.8837 -1.1737  0.8758
   36POPC  H12B 4774   2.694   4.024  10.861  0.2359  0.5237  0.3474
   36POPC   C13 4775   2.917   3.904  10.955  0.0713 -0.3988 -0.1372
   36POPC  H13A 4776   2.872   3.979  11.019 -0.1780  0.8834 -1.7356
   36POPC  H13B 4777   2.951   3.814  11.004 -0.9787 -0.3990  0.6203
   36POPC  H13C 4778   2.999   3.960  10.914  0.5538 -0.1944  1.0684
   36POPC   C14 4779   2.730   3.771  10.879  0.1949 -0.8291 -0.1087
   36POPC  H14A 4780   2.677   3.808  10.966  0.7952 -1.7812  0.6881
   36POPC  H14B 4781   2.654   3.739  10.810  0.7473  0.1807 -1.2146
   36POPC  H14C 4782   2.777   3.684  10.924  0.0363 -1.8101 -1.7635
   36POPC   C15 4783   2.920   3.818  10.723  0.8924  0.6630 -0.1786
   36POPC  H15A 4784   2.995   3.891  10.696  0.5556  1.4589  0.9593
   36POPC  H15B 4785   2.870   3.810  10.628  2.2334  0.4118 -0.8910
   36POPC  H15C 4786   2.969   3.723  10.737  1.6890  0.8704 -1.3820
   36POPC   C11 4787   2.690   3.987  10.645  0.5081  0.5575 -0.9873
   36POPC  H11A 4788   2.765   3.975  10.564 -0.4407  0.0464 -1.8142
   36POPC  H11B 4789   2.637   4.081  10.618 -0.5083  0.1592 -0.4351
   36POPC     P 4790   2.447   3.892  10.668  0.6179  0.4859  0.2708
   36POPC   O13 4791   2.417   3.963  10.800 -0.4938 -0.1518  0.6214
   36POPC   O14 4792   2.390   3.758  10.649  0.0526 -0.0372  0.2474
   36POPC   O12 4793   2.598   3.879  10.638 -0.0535  0.3279  0.0728
   36POPC   O11 4794   2.399   3.985  10.553 -0.2042 -0.4765 -0.2313
   36POPC    C1 4795   2.396   3.967  10.419  0.0531  0.7140 -0.1385
   36POPC    HA 4796   2.475   3.892  10.398 -2.1840 -3.0420  3.3398
   36POPC    HB 4797   2.410   4.067  10.374  0.4246  1.0381  0.6823
   36POPC    C2 4798   2.266   3.887  10.380  0.3942  0.2466  0.4889
   36POPC    HS 4799   2.300   3.787  10.414 -1.8117 -0.9969 -0.7292
   36POPC   O21 4800   2.242   3.887  10.238 -0.3434  0.3129  0.2937
   36POPC   C21 4801   2.171   3.781  10.196 -0.4563 -0.4229 -0.9288
   36POPC   O22 4802   2.149   3.689  10.268  0.2094  0.6299 -0.0217
   36POPC   C22 4803   2.142   3.782  10.046 -0.2322 -0.7369  0.1549
   36POPC   H2R 4804   2.043   3.825  10.018  0.7221  1.8622  0.5121
   36POPC   H2S 4805   2.153   3.675  10.020  0.9512 -0.8199  0.9072
   36POPC    C3 4806   2.132   3.933  10.447 -0.1160  0.3111 -0.2314
   36POPC    HX 4807   2.150   3.924  10.557  1.2789  1.4842 -0.3249
   36POPC    HY 4808   2.042   3.873  10.422  0.1287 -0.4416  0.6452
   36POPC   O31 4809   2.117   4.076  10.421  0.4997 -0.2543  0.1468
   36POPC   C31 4810   2.028   4.109  10.328  0.6414 -0.8503  0.5085
   36POPC   O32 4811   1.971   4.026  10.259  0.1218 -0.5495  0.0289
   36POPC   C32 4812   2.021   4.259  10.306  0.0221 -0.4083  0.1636
   36POPC   H2X 4813   2.104   4.299  10.368  1.5955 -0.5775 -1.7386
   36POPC   H2Y 4814   1.919   4.275  10.347  1.0576 -2.4127  4.0628
   36POPC   C23 4815   2.250   3.867   9.971  0.2666 -0.0660 -0.0286
   36POPC   H3R 4816   2.347   3.867  10.024 -1.1788  1.6915  2.8803
   36POPC   H3S 4817   2.219   3.973   9.985 -2.1737 -1.0105  2.6516
   36POPC   C24 4818   2.265   3.823   9.824  0.0054 -0.0866  0.6978
   36POPC   H4R 4819   2.290   3.715   9.814 -1.3264 -0.4857  1.4124
   36POPC   H4S 4820   2.344   3.889   9.783 -1.7317  1.7186  0.1227
   36POPC   C25 4821   2.134   3.843   9.731  0.1002 -0.2605  0.2460
   36POPC   H5R 4822   2.080   3.936   9.758 -1.0055 -0.6593 -0.4908
   36POPC   H5S 4823   2.071   3.752   9.747  0.3978 -0.4113  0.5599
   36POPC   C26 4824   2.153   3.851   9.583  0.0123  0.8948 -0.2641
   36POPC   H6R 4825   2.194   3.952   9.561 -0.5140  0.8054 -1.7646
   36POPC   H6S 4826   2.053   3.862   9.536 -0.0231  2.5851  0.1305
   36POPC   C27 4827   2.217   3.728   9.511 -0.1615  0.0565 -0.3862
   36POPC   H7R 4828   2.137   3.653   9.494 -0.1236 -0.4866  1.5849
   36POPC   H7S 4829   2.307   3.687   9.562  0.7165  1.0968 -1.0457
   36POPC   C28 4830   2.265   3.754   9.363  0.6113  0.4946 -0.4043
   36POPC   H8R 4831   2.308   3.655   9.334  0.2977  0.2394 -0.0089
   36POPC   H8S 4832   2.335   3.840   9.370 -0.1219  0.9905  1.5474
   36POPC   C29 4833   2.145   3.775   9.272 -0.4197  0.4364 -0.8314
   36POPC   H91 4834   2.052   3.800   9.326  0.7645  2.4767  0.3973
   36POPC  C210 4835   2.150   3.776   9.142 -0.2420 -0.7016 -0.4890
   36POPC  H101 4836   2.053   3.795   9.093 -0.1843 -1.9050 -1.1081
   36POPC  C211 4837   2.264   3.755   9.041 -0.0704 -0.5998  0.5506
   36POPC  H11R 4838   2.360   3.746   9.096  0.3950 -2.0974 -0.4388
   36POPC  H11S 4839   2.266   3.840   8.970 -2.7399 -1.8988 -1.2423
   36POPC  C212 4840   2.260   3.620   8.955  0.3487 -0.4255 -0.1728
   36POPC  H12R 4841   2.267   3.545   9.037 -0.1330 -0.2027  0.0753
   36POPC  H12S 4842   2.350   3.624   8.890  0.7842 -1.0494  0.3753
   36POPC  C213 4843   2.124   3.593   8.888 -0.1444  0.0843  0.4118
   36POPC  H13R 4844   2.035   3.591   8.955  1.5321 -0.3760  2.7736
   36POPC  H13S 4845   2.125   3.500   8.827  1.5076 -1.0629  2.0525
   36POPC  C214 4846   2.086   3.707   8.775  0.0941  0.4015 -0.0977
   36POPC  H14R 4847   2.176   3.709   8.710 -0.0876  0.4104 -0.3466
   36POPC  H14S 4848   2.049   3.800   8.824  0.0229 -0.2910  1.2016
   36POPC  C215 4849   1.962   3.664   8.689 -0.2288 -0.0486 -0.5298
   36POPC  H15R 4850   1.863   3.690   8.733  0.1051  0.2679  0.0437
   36POPC  H15S 4851   1.946   3.554   8.693  1.5489 -0.3111  1.7490
   36POPC  C216 4852   1.954   3.724   8.553 -0.7329  0.1648  0.3922
   36POPC  H16R 4853   2.042   3.701   8.489  0.9964  3.1251  1.4924
   36POPC  H16S 4854   1.953   3.835   8.563  0.3134  0.4398 -1.8887
   36POPC  C217 4855   1.828   3.683   8.475 -0.2906 -0.1264 -0.2845
   36POPC  H17R 4856   1.827   3.754   8.389  3.9572 -1.1512 -1.4534
   36POPC  H17S 4857   1.743   3.701   8.544  0.2490 -0.5270  0.4989
   36POPC  C218 4858   1.824   3.541   8.418  0.4560  0.8890 -0.2637
   36POPC  H18R 4859   1.847   3.468   8.498 -1.5591 -0.0919 -0.5079
   36POPC  H18S 4860   1.891   3.525   8.331 -0.7548 -0.9574 -0.9370
   36POPC  H18T 4861   1.724   3.509   8.381 -0.0381 -2.6761  3.4537
   36POPC   C33 4862   2.028   4.306  10.160 -0.0039 -0.5832  0.9078
   36POPC   H3X 4863   2.005   4.414  10.151  1.3233 -0.3963 -0.7191
   36POPC   H3Y 4864   1.960   4.246  10.096  1.1039 -1.8498  0.8673
   36POPC   C34 4865   2.167   4.294  10.103  0.3029  0.0197 -0.1800
   36POPC   H4X 4866   2.194   4.187  10.095  0.4530  0.1144 -0.9774
   36POPC   H4Y 4867   2.236   4.335  10.181 -1.5266 -2.3055  2.9241
   36POPC   C35 4868   2.180   4.347   9.962 -0.7759  0.1678  0.2758
   36POPC   H5X 4869   2.279   4.318   9.919 -1.1109 -1.3261  0.4527
   36POPC   H5Y 4870   2.168   4.457   9.956 -1.3673  0.1140  0.4858
   36POPC   C36 4871   2.074   4.305   9.856 -0.4472  0.2427  0.6773
   36POPC   H6X 4872   1.980   4.359   9.882  0.4412  2.4637 -0.4170
   36POPC   H6Y 4873   2.053   4.197   9.865 -2.0521  0.6374  2.3998
   36POPC   C37 4874   2.132   4.318   9.711  0.0827 -0.1250 -0.0364
   36POPC   H7X 4875   2.227   4.262   9.719 -0.4726 -0.9678  1.0990
   36POPC   H7Y 4876   2.120   4.425   9.685  0.0592  0.4019  2.0059
   36POPC   C38 4877   2.053   4.227   9.610  0.6071 -0.2067 -0.7903
   36POPC   H8X 4878   1.949   4.266   9.616 -0.5916 -3.2730  1.3801
   36POPC   H8Y 4879   2.058   4.122   9.648  3.6365  0.4058  0.8008
   36POPC   C39 4880   2.096   4.244   9.466 -0.0086 -0.1952 -0.1083
   36POPC   H9X 4881   2.197   4.205   9.442 -0.0946 -0.3978 -0.1478
   36POPC   H9Y 4882   2.091   4.351   9.439 -3.8886  0.0113  0.8174
   36POPC  C310 4883   2.008   4.156   9.374 -0.2703  0.2660  0.2652
   36POPC  H10X 4884   1.902   4.163   9.407 -0.4794  0.3446 -0.4214
   36POPC  H10Y 4885   2.027   4.048   9.395 -1.3143 -0.3647 -1.8292
   36POPC  C311 4886   2.029   4.185   9.220 -0.0763 -0.2313 -0.2182
   36POPC  H11X 4887   2.135   4.158   9.199  0.9172  2.0849  1.3137
   36POPC  H11Y 4888   2.029   4.295   9.203  0.6772 -0.1579  0.2020
   36POPC  C312 4889   1.923   4.116   9.131  0.2949 -0.6031 -0.2223
   36POPC  H12X 4890   1.825   4.160   9.161  1.5776  1.3204  1.4504
   36POPC  H12Y 4891   1.927   4.005   9.136 -0.3329 -0.6559 -0.6720
   36POPC  C313 4892   1.898   4.156   8.983  0.0392  0.3352 -0.6013
   36POPC  H13X 4893   1.979   4.125   8.914 -0.6066  1.1394 -1.7447
   36POPC  H13Y 4894   1.882   4.266   8.989  0.8556  0.3758  2.1129
   36POPC  C314 4895   1.761   4.108   8.926 -0.1547 -0.7201 -0.2790
   36POPC  H14X 4896   1.683   4.154   8.990 -0.6270 -2.4051  0.3906
   36POPC  H14Y 4897   1.745   3.998   8.924  2.1576 -1.2072  2.4523
   36POPC  C315 4898   1.741   4.155   8.779  0.0530 -0.3255  0.0795
   36POPC  H15X 4899   1.836   4.137   8.724  1.5433  1.4039  1.9465
   36POPC  H15Y 4900   1.733   4.265   8.784  1.6208 -0.2379  1.6908
   36POPC  C316 4901   1.626   4.084   8.700 -0.1905  0.2058 -0.7962
   36POPC  H16X 4902   1.540   4.155   8.703 -0.0763  0.3424 -0.7448
   36POPC  H16Y 4903   1.597   3.981   8.729  1.2487 -0.2596 -0.9850
   36POPC  H16Z 4904   1.654   4.084   8.593  0.6889  2.0843 -0.6114
   37POPC     N 4905   6.051   6.337   6.441 -0.0852 -0.1164 -0.4129
   37POPC   C12 4906   5.917   6.367   6.515 -0.2369  1.3494  0.4397
   37POPC  H12A 4907   5.901   6.276   6.572  0.7920  0.0938 -1.1752
   37POPC  H12B 4908   5.839   6.372   6.441 -0.9434 -2.1393  0.7818
   37POPC   C13 4909   6.166   6.367   6.532 -0.1387  0.3895  0.2747
   37POPC  H13A 4910   6.172   6.473   6.552  1.4023  0.7981 -1.8772
   37POPC  H13B 4911   6.169   6.313   6.625  2.2208  0.4345  0.2885
   37POPC  H13C 4912   6.258   6.346   6.479 -0.1512  2.1870 -0.5285
   37POPC   C14 4913   6.068   6.195   6.389  0.4142 -0.8338  0.1677
   37POPC  H14A 4914   6.164   6.184   6.341 -0.7296 -0.7328 -2.2753
   37POPC  H14B 4915   6.045   6.119   6.463 -2.1309 -0.6180 -0.3152
   37POPC  H14C 4916   6.000   6.186   6.306  1.5272  1.4878 -1.1114
   37POPC   C15 4917   6.067   6.437   6.328 -0.1623  0.2242  1.1297
   37POPC  H15A 4918   5.987   6.424   6.257  0.5696 -1.9582  0.6280
   37POPC  H15B 4919   6.165   6.429   6.282 -0.1004  1.1454  1.0788
   37POPC  H15C 4920   6.064   6.532   6.379  1.3305 -0.2792  2.2131
   37POPC   C11 4921   5.909   6.494   6.606 -0.0102  0.4560 -0.2354
   37POPC  H11A 4922   5.966   6.477   6.700  0.8096 -0.3276 -0.8534
   37POPC  H11B 4923   5.803   6.509   6.634 -0.2614 -0.1836 -0.8040
   37POPC     P 4924   5.936   6.746   6.575 -0.0797  0.0499  0.1303
   37POPC   O13 4925   5.799   6.762   6.516 -0.6503 -0.1328 -0.3215
   37POPC   O14 4926   6.042   6.842   6.531 -0.2217  0.9537 -0.2254
   37POPC   O12 4927   5.980   6.602   6.536  0.7192  0.0504  0.5066
   37POPC   O11 4928   5.920   6.744   6.730 -0.1195 -0.1788  0.6244
   37POPC    C1 4929   6.026   6.785   6.818  0.2861  0.9440  0.7089
   37POPC    HA 4930   5.986   6.823   6.914  1.0701  2.8744  0.3145
   37POPC    HB 4931   6.100   6.853   6.770  1.8057 -2.0898 -1.6725
   37POPC    C2 4932   6.117   6.665   6.858  0.5426  0.1906 -0.1258
   37POPC    HS 4933   6.155   6.629   6.760  2.0698 -0.2727  0.5953
   37POPC   O21 4934   6.063   6.555   6.937 -0.8071  0.2960 -0.1296
   37POPC   C21 4935   6.140   6.442   6.939 -0.6822  0.3720  0.5484
   37POPC   O22 4936   6.242   6.425   6.872  0.1200 -0.3537  0.3446
   37POPC   C22 4937   6.088   6.345   7.044 -0.3635  0.3202  0.3676
   37POPC   H2R 4938   5.983   6.376   7.062 -0.2361  1.3117 -0.4857
   37POPC   H2S 4939   6.146   6.358   7.138  3.3341  0.2704 -1.6702
   37POPC    C3 4940   6.243   6.722   6.933 -0.3862 -0.1726 -0.4178
   37POPC    HX 4941   6.296   6.798   6.871 -0.6032 -0.7625 -1.3431
   37POPC    HY 4942   6.311   6.641   6.969 -0.5150  0.3352  1.0509
   37POPC   O31 4943   6.191   6.789   7.056 -0.3622 -0.1834  0.2887
   37POPC   C31 4944   6.192   6.720   7.173  0.5375  1.2248 -0.0011
   37POPC   O32 4945   6.256   6.616   7.192  0.5097  0.3124 -0.0899
   37POPC   C32 4946   6.112   6.807   7.273 -0.4105  0.3356 -0.0863
   37POPC   H2X 4947   6.014   6.844   7.237 -0.2501  0.8353 -0.0199
   37POPC   H2Y 4948   6.179   6.896   7.279 -0.8546  0.7795 -1.5219
   37POPC   C23 4949   6.084   6.194   6.997 -0.2080  0.3550 -0.3180
   37POPC   H3R 4950   6.186   6.167   6.962 -0.2670  0.1409 -0.3248
   37POPC   H3S 4951   6.020   6.193   6.906 -0.0950 -1.6800 -0.4222
   37POPC   C24 4952   6.032   6.094   7.097  0.1173  0.1582  0.4747
   37POPC   H4R 4953   6.051   5.987   7.075  0.3574  0.2437  0.2651
   37POPC   H4S 4954   5.922   6.108   7.104  0.0587 -0.6797  1.5155
   37POPC   C25 4955   6.076   6.119   7.237 -0.4103  0.0413 -0.8140
   37POPC   H5R 4956   6.023   6.206   7.281  0.7597  1.4699 -2.0657
   37POPC   H5S 4957   6.185   6.137   7.221 -0.3512 -0.0219 -0.4856
   37POPC   C26 4958   6.049   6.009   7.337 -0.4711  0.1650 -0.3725
   37POPC   H6R 4959   6.087   6.036   7.438 -0.5787 -0.7367 -0.0832
   37POPC   H6S 4960   6.098   5.915   7.307 -0.0752  0.2853 -0.1029
   37POPC   C27 4961   5.899   5.988   7.368 -0.7022  0.5308  0.3574
   37POPC   H7R 4962   5.852   5.959   7.271 -0.0458  0.8733 -0.0633
   37POPC   H7S 4963   5.854   6.083   7.404 -1.0572  0.2707  0.6033
   37POPC   C28 4964   5.883   5.860   7.460 -0.0738  0.2693  0.4898
   37POPC   H8R 4965   5.919   5.764   7.416 -1.8812 -0.7627  1.1400
   37POPC   H8S 4966   5.773   5.847   7.461 -0.0204 -0.1560  1.1256
   37POPC   C29 4967   5.929   5.873   7.597 -0.3134  0.0289 -0.2158
   37POPC   H91 4968   6.031   5.911   7.614 -0.3583 -0.0465  0.2361
   37POPC  C210 4969   5.863   5.839   7.713  0.1584  0.8402  0.8048
   37POPC  H101 4970   5.919   5.843   7.807  1.8873 -0.8967 -0.0812
   37POPC  C211 4971   5.721   5.784   7.719  0.5688 -0.1599  0.4560
   37POPC  H11R 4972   5.721   5.676   7.744 -1.0714  0.2580  2.5838
   37POPC  H11S 4973   5.660   5.800   7.627  1.2076  1.3203  0.2667
   37POPC  C212 4974   5.636   5.852   7.826  0.1605  0.1684  0.5873
   37POPC  H12R 4975   5.676   5.837   7.929  0.4884 -2.2530  0.1583
   37POPC  H12S 4976   5.534   5.808   7.831 -0.9838  2.6889  4.7593
   37POPC  C213 4977   5.621   6.005   7.811  0.4077  0.2874  0.7649
   37POPC  H13R 4978   5.572   6.034   7.716  2.1953  1.7802  0.2395
   37POPC  H13S 4979   5.724   6.046   7.806  0.6348 -0.4166 -1.4203
   37POPC  C214 4980   5.545   6.074   7.927  0.9161  0.1885 -0.7414
   37POPC  H14R 4981   5.448   6.020   7.937  0.8230  0.2775 -1.1438
   37POPC  H14S 4982   5.531   6.182   7.908  3.3775  1.2120  2.4717
   37POPC  C215 4983   5.607   6.057   8.067  0.3980 -0.1918  0.3389
   37POPC  H15R 4984   5.706   6.104   8.050 -0.1707  1.3295  1.0426
   37POPC  H15S 4985   5.620   5.948   8.083 -1.7404 -0.5243  0.1423
   37POPC  C216 4986   5.520   6.108   8.182  0.6441  0.9955  0.2196
   37POPC  H16R 4987   5.413   6.098   8.154  0.5373  2.5729 -0.0261
   37POPC  H16S 4988   5.522   6.217   8.200 -0.5386  1.0050  0.3519
   37POPC  C217 4989   5.560   6.036   8.310  0.4659 -0.6339  0.2251
   37POPC  H17R 4990   5.519   6.094   8.396  2.3346 -0.6596  1.1702
   37POPC  H17S 4991   5.670   6.029   8.324  0.0760 -0.6432  4.6893
   37POPC  C218 4992   5.500   5.900   8.316 -0.3135  0.2929 -0.2474
   37POPC  H18R 4993   5.496   5.856   8.214 -2.3816 -0.8688  0.2928
   37POPC  H18S 4994   5.392   5.904   8.339 -0.4822 -0.0370 -0.9467
   37POPC  H18T 4995   5.557   5.828   8.379 -3.7118 -0.7098  1.9465
   37POPC   C33 4996   6.103   6.739   7.410  0.2458 -0.0399  0.5627
   37POPC   H3X 4997   6.202   6.698   7.440 -0.4682 -2.1445  0.2032
   37POPC   H3Y 4998   6.032   6.654   7.402 -3.5328  3.0071 -1.6214
   37POPC   C34 4999   6.049   6.840   7.517 -0.1468 -0.7456  0.3777
   37POPC   H4X 5000   5.957   6.887   7.478 -0.2079  0.7477  2.1467
   37POPC   H4Y 5001   6.121   6.924   7.523 -0.8266  0.0195 -1.4935
   37POPC   C35 5002   6.033   6.782   7.658  0.1975  0.7609 -0.4104
   37POPC   H5X 5003   6.128   6.733   7.688  1.6820  2.2035 -2.5573
   37POPC   H5Y 5004   5.953   6.704   7.651  2.5261 -1.6692 -1.6576
   37POPC   C36 5005   5.998   6.884   7.766  0.2145  0.5883 -0.4616
   37POPC   H6X 5006   5.962   6.839   7.861 -0.6703  0.8059 -0.6922
   37POPC   H6Y 5007   5.916   6.952   7.735  0.4906  0.6717 -1.0106
   37POPC   C37 5008   6.106   6.986   7.794  0.5175  0.7395 -0.3106
   37POPC   H7X 5009   6.111   7.057   7.709 -3.3429  0.2277 -1.1379
   37POPC   H7Y 5010   6.205   6.934   7.796 -0.4044 -1.1140 -0.9773
   37POPC   C38 5011   6.083   7.072   7.916  0.0117  0.5105 -0.1531
   37POPC   H8X 5012   6.158   7.154   7.902 -1.2679  2.3946  2.8642
   37POPC   H8Y 5013   6.091   7.018   8.013 -0.2957  0.7337 -0.0023
   37POPC   C39 5014   5.942   7.136   7.914  0.3460 -0.0595 -0.2073
   37POPC   H9X 5015   5.873   7.051   7.935 -0.4362  0.3691 -0.9973
   37POPC   H9Y 5016   5.923   7.186   7.817 -2.2706  0.7826  0.6404
   37POPC  C310 5017   5.922   7.238   8.032  0.1184  0.9998  0.3610
   37POPC  H10X 5018   5.820   7.282   8.024  0.9712  3.9456  3.6282
   37POPC  H10Y 5019   5.977   7.333   8.018 -2.6248  2.6493 -0.0325
   37POPC  C311 5020   5.954   7.184   8.167 -0.1170 -0.2599 -0.1544
   37POPC  H11X 5021   6.063   7.176   8.184 -0.6651 -1.7973  3.9713
   37POPC  H11Y 5022   5.919   7.079   8.171  1.6718 -0.8633  2.3201
   37POPC  C312 5023   5.885   7.257   8.288  0.1704 -0.8946  0.0957
   37POPC  H12X 5024   5.924   7.207   8.379  0.9015 -0.6726 -0.0960
   37POPC  H12Y 5025   5.776   7.236   8.283 -0.7320  2.9380  0.2942
   37POPC  C313 5026   5.907   7.399   8.296 -0.1170  0.1085 -0.2419
   37POPC  H13X 5027   5.853   7.451   8.214  1.4714 -0.3596 -1.6565
   37POPC  H13Y 5028   6.016   7.420   8.293  0.2506 -1.3668  1.3684
   37POPC  C314 5029   5.851   7.467   8.422  0.4917 -0.0805 -0.0409
   37POPC  H14X 5030   5.868   7.576   8.404  0.7155  0.1400  1.3485
   37POPC  H14Y 5031   5.916   7.453   8.511  0.5887  0.1380 -0.0757
   37POPC  C315 5032   5.703   7.458   8.444  0.6157  0.0101 -0.7586
   37POPC  H15X 5033   5.700   7.350   8.471  0.8176  0.5993  1.9807
   37POPC  H15Y 5034   5.645   7.471   8.351  1.8988 -1.0722 -1.7531
   37POPC  C316 5035   5.642   7.524   8.569  0.0104 -0.3539 -0.5892
   37POPC  H16X 5036   5.702   7.494   8.658  1.3407  1.3593 -0.8528
   37POPC  H16Y 5037   5.538   7.491   8.586 -0.3814 -0.1601 -2.4820
   37POPC  H16Z 5038   5.633   7.635   8.559 -3.5060 -0.5015 -0.1499
   38POPC     N 5039   1.493   4.033   6.157 -0.0593 -0.4966  0.4802
   38POPC   C12 5040   1.428   3.978   6.281 -0.2566 -0.3518  0.0423
   38POPC  H12A 5041   1.325   4.008   6.284  0.4244  2.1707  0.7771
   38POPC  H12B 5042   1.477   4.025   6.366 -1.7086 -0.0393  0.7299
   38POPC   C13 5043   1.405   3.995   6.046 -0.2497 -0.3261  0.1011
   38POPC  H13A 5044   1.308   4.043   6.051 -0.2677 -0.3236 -0.2714
   38POPC  H13B 5045   1.440   4.027   5.949 -1.0282 -2.8949 -1.1095
   38POPC  H13C 5046   1.392   3.888   6.049 -0.2790 -0.4432 -2.4800
   38POPC   C14 5047   1.484   4.180   6.160  0.8858 -0.1579  0.0273
   38POPC  H14A 5048   1.478   4.215   6.059  0.0092 -3.8841 -1.3947
   38POPC  H14B 5049   1.394   4.209   6.212  1.6585  0.1716  1.2436
   38POPC  H14C 5050   1.570   4.219   6.213  0.5150 -0.5464  0.9393
   38POPC   C15 5051   1.630   3.979   6.133 -0.1726 -0.1743 -0.1763
   38POPC  H15A 5052   1.670   4.025   6.044 -0.2247  0.5051  0.1420
   38POPC  H15B 5053   1.629   3.871   6.131  0.3796 -0.1775 -0.3455
   38POPC  H15C 5054   1.684   4.016   6.219  0.3244  1.0943 -1.0092
   38POPC   C11 5055   1.427   3.829   6.297 -0.4033 -0.1947 -0.1799
   38POPC  H11A 5056   1.393   3.809   6.401 -1.4661 -0.6047 -0.5889
   38POPC  H11B 5057   1.533   3.795   6.294  0.4396  2.0000  1.7476
   38POPC     P 5058   1.190   3.760   6.221  0.6342 -0.2605  0.2407
   38POPC   O13 5059   1.126   3.674   6.120  0.2700 -0.3323  0.0151
   38POPC   O14 5060   1.140   3.900   6.226  0.0464  0.0772  0.1005
   38POPC   O12 5061   1.340   3.759   6.208  0.1970 -1.2647  0.5341
   38POPC   O11 5062   1.168   3.708   6.364 -0.1671  0.5989 -0.2507
   38POPC    C1 5063   1.191   3.564   6.380 -0.2503 -0.2322  0.2904
   38POPC    HA 5064   1.295   3.529   6.366 -1.0101 -3.1061  1.2868
   38POPC    HB 5065   1.125   3.510   6.309  0.4916 -1.4385  0.5081
   38POPC    C2 5066   1.142   3.509   6.516  0.2264  0.9833  0.1324
   38POPC    HS 5067   1.035   3.538   6.526 -0.0680  0.5942 -1.5053
   38POPC   O21 5068   1.232   3.567   6.616 -0.3602 -0.1386 -0.0456
   38POPC   C21 5069   1.195   3.689   6.644  0.4932  0.4871 -0.0926
   38POPC   O22 5070   1.094   3.752   6.611  0.1248  0.1172 -0.1626
   38POPC   C22 5071   1.307   3.746   6.729 -0.1621 -0.6308 -0.3016
   38POPC   H2R 5072   1.387   3.782   6.659  0.9326 -1.2546  0.6028
   38POPC   H2S 5073   1.360   3.668   6.788  0.4074  0.6576  0.9599
   38POPC    C3 5074   1.158   3.357   6.518 -0.0609  0.1387 -0.4456
   38POPC    HX 5075   1.262   3.331   6.489  0.8898  1.3763  1.6036
   38POPC    HY 5076   1.090   3.305   6.448 -2.5028 -0.1903  1.9755
   38POPC   O31 5077   1.116   3.304   6.645 -0.0367  0.2066 -0.1806
   38POPC   C31 5078   1.157   3.173   6.665  0.1836 -0.0312  0.1779
   38POPC   O32 5079   1.219   3.107   6.581 -0.5128  0.0044 -0.7252
   38POPC   C32 5080   1.133   3.125   6.805  0.0289  0.3115  0.1529
   38POPC   H2X 5081   1.218   3.061   6.835 -1.1470 -0.4033  2.1873
   38POPC   H2Y 5082   1.048   3.052   6.800  1.1277 -0.9730 -4.0721
   38POPC   C23 5083   1.259   3.854   6.832  0.2757 -0.0087  0.0898
   38POPC   H3R 5084   1.193   3.932   6.789 -0.6618 -0.9011 -0.1181
   38POPC   H3S 5085   1.351   3.910   6.860 -0.2595  0.5217  0.8104
   38POPC   C24 5086   1.190   3.780   6.948 -0.2281  0.8527 -0.6689
   38POPC   H4R 5087   1.121   3.703   6.907  0.3464  0.7199 -1.3923
   38POPC   H4S 5088   1.121   3.856   6.991 -2.0853 -1.9237  1.7493
   38POPC   C25 5089   1.283   3.732   7.058  0.1200 -0.2014 -0.0820
   38POPC   H5R 5090   1.321   3.820   7.114 -0.0581 -0.8047  1.0163
   38POPC   H5S 5091   1.368   3.684   7.006  0.8801  0.3995  0.5606
   38POPC   C26 5092   1.205   3.640   7.159 -0.3676 -0.5449  0.3045
   38POPC   H6R 5093   1.281   3.606   7.233 -0.5751  1.1199  1.3365
   38POPC   H6S 5094   1.155   3.552   7.114  0.4963 -1.8663  1.8185
   38POPC   C27 5095   1.094   3.717   7.239 -0.0501 -0.5219  0.0997
   38POPC   H7R 5096   1.058   3.643   7.313 -0.9016 -0.0077  0.2102
   38POPC   H7S 5097   1.010   3.738   7.170  0.8162  1.2541 -0.4839
   38POPC   C28 5098   1.119   3.847   7.310  0.3326  0.4333 -0.4532
   38POPC   H8R 5099   1.135   3.926   7.233  1.3726  1.3342  0.6359
   38POPC   H8S 5100   1.215   3.843   7.367 -0.4734 -0.5487  0.8974
   38POPC   C29 5101   1.006   3.891   7.404  0.1918 -0.8322 -0.2411
   38POPC   H91 5102   0.926   3.960   7.375 -0.5415 -0.8463  1.6623
   38POPC  C210 5103   1.009   3.863   7.535 -0.7374 -0.5300  0.1550
   38POPC  H101 5104   0.933   3.913   7.597 -0.5537  2.7230 -1.9763
   38POPC  C211 5105   1.107   3.766   7.606 -0.7565  0.0612 -0.2275
   38POPC  H11R 5106   1.195   3.820   7.647 -1.7250  0.0232  2.0447
   38POPC  H11S 5107   1.147   3.697   7.529 -1.5135  0.8947 -1.4067
   38POPC  C212 5108   1.058   3.692   7.725  0.3102 -0.0010  0.5029
   38POPC  H12R 5109   1.149   3.639   7.759  1.0423  1.3270  0.6616
   38POPC  H12S 5110   0.990   3.613   7.687 -0.2191  0.3725  0.6672
   38POPC  C213 5111   0.991   3.773   7.841 -0.0888  0.3546 -0.3532
   38POPC  H13R 5112   0.950   3.703   7.917  1.0314  1.0883  0.9525
   38POPC  H13S 5113   0.907   3.837   7.806 -1.8390 -0.7941  1.5517
   38POPC  C214 5114   1.094   3.873   7.908  0.0605 -0.0590 -0.2208
   38POPC  H14R 5115   1.145   3.926   7.824 -2.4463 -0.3001 -2.0018
   38POPC  H14S 5116   1.178   3.810   7.945  1.1494  0.0211 -2.3731
   38POPC  C215 5117   1.032   3.975   8.005 -0.0009  0.5527  0.3650
   38POPC  H15R 5118   0.999   3.914   8.091 -2.1198  0.0848 -0.7252
   38POPC  H15S 5119   0.939   4.013   7.958  0.0837  0.8795  0.4606
   38POPC  C216 5120   1.122   4.085   8.051  0.0057  0.7867  0.2376
   38POPC  H16R 5121   1.063   4.156   8.113 -0.7391  1.9836 -1.7546
   38POPC  H16S 5122   1.157   4.139   7.961  1.0094 -0.9627 -0.4666
   38POPC  C217 5123   1.241   4.045   8.139  0.2215 -0.1791 -0.1484
   38POPC  H17R 5124   1.304   4.137   8.146  0.8323 -0.5681 -0.4303
   38POPC  H17S 5125   1.301   3.968   8.086  1.3220 -0.8553  1.9725
   38POPC  C218 5126   1.200   3.978   8.270  0.2045 -0.5737  0.2153
   38POPC  H18R 5127   1.296   3.960   8.322 -0.6135 -0.1038  1.9561
   38POPC  H18S 5128   1.143   3.883   8.258 -0.1302 -0.4070  0.4914
   38POPC  H18T 5129   1.143   4.056   8.326  0.5088 -0.8491  0.9139
   38POPC   C33 5130   1.101   3.223   6.918  0.7649 -0.3658  0.0046
   38POPC   H3X 5131   0.990   3.233   6.922  0.5236 -2.8143  1.2700
   38POPC   H3Y 5132   1.143   3.325   6.904 -0.1305 -0.0565 -0.5410
   38POPC   C34 5133   1.133   3.165   7.054 -0.7955  0.0762  0.8320
   38POPC   H4X 5134   1.244   3.173   7.050 -0.7185 -0.2087 -3.6710
   38POPC   H4Y 5135   1.103   3.059   7.059 -1.3204  0.1917  0.3151
   38POPC   C35 5136   1.070   3.251   7.162 -0.4295 -0.2280  0.2359
   38POPC   H5X 5137   0.963   3.248   7.130  0.3846 -0.7109 -2.7467
   38POPC   H5Y 5138   1.095   3.359   7.160 -2.6792  0.3407 -1.0488
   38POPC   C36 5139   1.086   3.204   7.305 -0.6053  0.0189  0.6030
   38POPC   H6X 5140   1.191   3.211   7.341 -0.8421 -2.3069  1.9032
   38POPC   H6Y 5141   1.063   3.096   7.309  0.0065 -0.2519 -1.5220
   38POPC   C37 5142   1.003   3.278   7.411 -0.2205  0.6455  0.5408
   38POPC   H7X 5143   0.898   3.247   7.391 -0.8293  2.0616  1.3655
   38POPC   H7Y 5144   1.004   3.388   7.398 -0.2771  0.5972  0.1139
   38POPC   C38 5145   1.030   3.234   7.555 -0.1150 -0.3049 -0.2115
   38POPC   H8X 5146   1.134   3.262   7.582 -0.9105  1.3140  1.4052
   38POPC   H8Y 5147   1.024   3.125   7.574 -3.1688  0.1545  2.2872
   38POPC   C39 5148   0.919   3.289   7.648  0.1594  0.4077  0.3468
   38POPC   H9X 5149   0.833   3.219   7.639  0.0125  0.6709 -0.3667
   38POPC   H9Y 5150   0.879   3.382   7.602  0.9531  0.1688 -0.8719
   38POPC  C310 5151   0.963   3.308   7.794 -0.4615 -0.4710  0.1148
   38POPC  H10X 5152   0.869   3.337   7.846 -0.6938 -0.5129 -0.2823
   38POPC  H10Y 5153   1.042   3.386   7.808  1.6460 -2.7092  1.7305
   38POPC  C311 5154   0.986   3.170   7.857  0.7505 -0.0787  0.3717
   38POPC  H11X 5155   1.060   3.117   7.793 -0.9241 -0.1241 -1.6192
   38POPC  H11Y 5156   0.898   3.103   7.846 -1.2730  2.7736 -2.1239
   38POPC  C312 5157   1.044   3.171   8.003 -0.5484 -0.0817  0.0797
   38POPC  H12X 5158   1.126   3.245   8.009 -2.1716  1.7278  0.9545
   38POPC  H12Y 5159   1.076   3.065   8.016 -4.1079 -1.4425 -1.1269
   38POPC  C313 5160   0.940   3.204   8.108 -0.7491 -0.0707  0.3794
   38POPC  H13X 5161   0.852   3.137   8.105 -0.8748 -0.2101  3.5771
   38POPC  H13Y 5162   0.915   3.307   8.074  0.9352 -0.2219 -1.5284
   38POPC  C314 5163   0.999   3.196   8.250  0.3267  0.0895  0.5190
   38POPC  H14X 5164   1.101   3.240   8.250  0.4573 -0.0425  3.5671
   38POPC  H14Y 5165   1.013   3.087   8.266 -0.6475 -1.2448 -5.3722
   38POPC  C315 5166   0.922   3.279   8.361 -0.2404  0.0336  0.2194
   38POPC  H15X 5167   0.816   3.250   8.349  0.0594 -1.3542  0.7802
   38POPC  H15Y 5168   0.928   3.387   8.336  1.9619  0.3140  1.6273
   38POPC  C316 5169   0.980   3.270   8.499 -0.1089  0.0616 -0.4510
   38POPC  H16X 5170   1.073   3.332   8.498  0.7903 -1.2472 -0.0263
   38POPC  H16Y 5171   1.012   3.166   8.519  1.6772  0.7197  0.3148
   38POPC  H16Z 5172   0.905   3.302   8.574  1.8029  0.5461  1.3495
   39POPC     N 5173   0.521   5.923   5.911 -0.0987 -0.4058 -0.4345
   39POPC   C12 5174   0.492   5.846   6.041  0.3045 -0.5758  0.0294
   39POPC  H12A 5175   0.514   5.741   6.030 -0.0239 -0.7905  1.2967
   39POPC  H12B 5176   0.387   5.848   6.068  0.4763  1.5994  0.7510
   39POPC   C13 5177   0.664   5.947   5.884 -0.8532 -0.2219 -0.2156
   39POPC  H13A 5178   0.722   5.856   5.874  1.0338  0.5576  2.5320
   39POPC  H13B 5179   0.683   6.009   5.798 -1.6817  1.6261  0.8887
   39POPC  H13C 5180   0.708   6.006   5.962  1.4124  1.8458 -2.8695
   39POPC   C14 5181   0.473   5.846   5.784 -0.0448  0.3498  0.6331
   39POPC  H14A 5182   0.379   5.796   5.802 -0.4660  0.1802 -1.7531
   39POPC  H14B 5183   0.449   5.912   5.702  1.4687 -0.9669 -0.9527
   39POPC  H14C 5184   0.558   5.793   5.743 -0.1324  1.7168 -1.4298
   39POPC   C15 5185   0.442   6.052   5.911  0.3451  0.3293  0.6098
   39POPC  H15A 5186   0.336   6.029   5.918  0.6384 -0.5867  4.1595
   39POPC  H15B 5187   0.463   6.116   5.827  1.8536  0.2979  0.9397
   39POPC  H15C 5188   0.470   6.107   6.000  2.1089  1.6209 -0.6715
   39POPC   C11 5189   0.580   5.892   6.167 -0.2013 -0.3862 -0.5035
   39POPC  H11A 5190   0.686   5.884   6.135  0.4590  3.5050  0.2246
   39POPC  H11B 5191   0.565   5.818   6.249 -1.9787 -0.8337 -1.1845
   39POPC     P 5192   0.436   6.069   6.290 -0.1080 -0.1610  0.0322
   39POPC   O13 5193   0.367   5.953   6.340 -0.1515 -0.1511  0.1353
   39POPC   O14 5194   0.353   6.167   6.218 -0.3787 -0.4204 -0.2159
   39POPC   O12 5195   0.554   6.031   6.198 -0.0354 -0.2395 -0.3421
   39POPC   O11 5196   0.501   6.138   6.405 -0.9750  0.0336 -0.0413
   39POPC    C1 5197   0.625   6.085   6.455 -0.6804 -0.1009  0.0507
   39POPC    HA 5198   0.704   6.096   6.378 -2.1523 -1.2953 -1.7110
   39POPC    HB 5199   0.617   5.974   6.461 -0.5913 -0.0837  0.5143
   39POPC    C2 5200   0.670   6.164   6.579  0.4177  0.1208 -0.8853
   39POPC    HS 5201   0.781   6.157   6.582  0.3481 -1.0038  0.8901
   39POPC   O21 5202   0.614   6.110   6.700 -0.1800 -0.1207  0.0319
   39POPC   C21 5203   0.680   6.004   6.740  1.0961 -0.2547 -0.2936
   39POPC   O22 5204   0.762   5.948   6.670  0.0743  0.4066 -0.0468
   39POPC   C22 5205   0.647   5.959   6.883  0.7512 -0.5511  0.6703
   39POPC   H2R 5206   0.537   5.947   6.882  0.4587  1.4914 -2.1690
   39POPC   H2S 5207   0.676   6.052   6.935 -0.3799 -0.0184  0.3653
   39POPC    C3 5208   0.637   6.319   6.568 -0.2893 -0.3385 -0.3536
   39POPC    HX 5209   0.528   6.333   6.561 -0.0532  0.6871 -3.9507
   39POPC    HY 5210   0.690   6.361   6.479 -0.8401 -0.5254 -0.7734
   39POPC   O31 5211   0.684   6.388   6.690 -0.9185 -0.0005 -0.1217
   39POPC   C31 5212   0.644   6.522   6.688  0.9452 -0.7688 -0.7023
   39POPC   O32 5213   0.568   6.567   6.605  0.5972 -0.0080 -0.5114
   39POPC   C32 5214   0.705   6.593   6.806  0.5158  0.0002 -0.3604
   39POPC   H2X 5215   0.674   6.532   6.894 -1.0010 -0.0144 -0.8623
   39POPC   H2Y 5216   0.815   6.588   6.794  0.7809  1.9657  0.9004
   39POPC   C23 5217   0.721   5.826   6.920  0.2630  0.3802 -0.1786
   39POPC   H3R 5218   0.827   5.845   6.945  0.0517  0.8086  0.4224
   39POPC   H3S 5219   0.710   5.750   6.839  2.6731 -0.6518  0.4099
   39POPC   C24 5220   0.648   5.758   7.037  1.0977 -0.1725 -0.1956
   39POPC   H4R 5221   0.696   5.661   7.063  0.3029 -0.8479 -1.1669
   39POPC   H4S 5222   0.546   5.737   6.998  0.7039  2.0932 -0.5104
   39POPC   C25 5223   0.655   5.845   7.165  0.3678 -0.0332 -1.2505
   39POPC   H5R 5224   0.611   5.947   7.154 -0.7327 -0.2297  0.7393
   39POPC   H5S 5225   0.759   5.851   7.201  0.0651 -1.4906 -0.0626
   39POPC   C26 5226   0.561   5.784   7.275 -0.3176  0.4492 -0.9362
   39POPC   H6R 5227   0.601   5.686   7.307  0.6404  0.9948 -0.4074
   39POPC   H6S 5228   0.460   5.761   7.234  0.2341 -0.9752 -1.5305
   39POPC   C27 5229   0.559   5.875   7.404  0.6165 -0.0314  0.3159
   39POPC   H7R 5230   0.538   5.974   7.359  0.9164 -0.3705 -0.6043
   39POPC   H7S 5231   0.652   5.883   7.464 -0.8148  0.6776  2.5238
   39POPC   C28 5232   0.447   5.832   7.503  0.0470  0.1427 -0.3663
   39POPC   H8R 5233   0.463   5.729   7.543 -1.1592  0.6678  1.6760
   39POPC   H8S 5234   0.347   5.823   7.455 -0.2328  2.3222 -0.2780
   39POPC   C29 5235   0.437   5.939   7.612 -0.5463  0.0827 -0.1170
   39POPC   H91 5236   0.403   6.041   7.586  0.2252  0.7016  1.1919
   39POPC  C210 5237   0.470   5.927   7.740  0.3269 -0.0860 -0.6408
   39POPC  H101 5238   0.448   6.013   7.805 -1.7492 -1.3550  0.4441
   39POPC  C211 5239   0.511   5.803   7.812  0.2193  0.1008 -0.9552
   39POPC  H11R 5240   0.596   5.828   7.879 -2.3617  0.1672  2.5130
   39POPC  H11S 5241   0.548   5.720   7.747  1.8411 -0.8098  1.0152
   39POPC  C212 5242   0.399   5.750   7.903 -0.7837 -0.5905 -0.4731
   39POPC  H12R 5243   0.407   5.639   7.906 -0.4236 -0.5764 -0.9005
   39POPC  H12S 5244   0.298   5.758   7.858 -1.1257 -0.0516  0.3563
   39POPC  C213 5245   0.404   5.818   8.050  0.1703 -0.7709 -0.3966
   39POPC  H13R 5246   0.426   5.926   8.039 -1.1325 -0.4864 -0.3971
   39POPC  H13S 5247   0.486   5.769   8.106  0.9561  0.0454 -0.8229
   39POPC  C214 5248   0.275   5.794   8.122  0.4451  0.3073  0.3851
   39POPC  H14R 5249   0.258   5.684   8.110  0.5456  0.1453  1.6046
   39POPC  H14S 5250   0.193   5.852   8.076  1.0174  0.2226 -0.7637
   39POPC  C215 5251   0.310   5.811   8.269  0.6852 -0.1134 -0.5710
   39POPC  H15R 5252   0.363   5.908   8.278  4.4451 -1.9668 -0.5716
   39POPC  H15S 5253   0.385   5.737   8.303  0.8244 -0.1874 -1.0388
   39POPC  C216 5254   0.176   5.810   8.342  0.1014  0.0222 -0.4913
   39POPC  H16R 5255   0.136   5.706   8.346 -0.5005  0.2742  0.2945
   39POPC  H16S 5256   0.104   5.869   8.282 -0.6872 -0.8077 -0.3891
   39POPC  C217 5257   0.165   5.874   8.492  0.1733 -0.3490  1.1346
   39POPC  H17R 5258   0.213   5.974   8.495  0.8244 -0.3982 -2.9329
   39POPC  H17S 5259   0.214   5.805   8.564  1.4834 -0.5474  0.0885
   39POPC  C218 5260   0.017   5.898   8.533  0.7138  0.2592 -0.4533
   39POPC  H18R 5261  -0.016   5.793   8.548  1.5693 -0.1577 -1.3480
   39POPC  H18S 5262  -0.046   5.950   8.458 -1.9332 -0.6466  1.0301
   39POPC  H18T 5263   0.013   5.957   8.626  0.9909  0.4414 -0.5552
   39POPC   C33 5264   0.655   6.740   6.835  0.4935  0.8224  0.7099
   39POPC   H3X 5265   0.544   6.736   6.825  0.5850  2.1767 -1.3506
   39POPC   H3Y 5266   0.697   6.806   6.756  1.6051 -0.1689  0.4469
   39POPC   C34 5267   0.700   6.784   6.979  1.0780 -0.0446 -0.1459
   39POPC   H4X 5268   0.671   6.891   6.989  1.1885 -0.1513  1.5809
   39POPC   H4Y 5269   0.809   6.768   6.969  0.7684 -2.5254 -0.1348
   39POPC   C35 5270   0.672   6.718   7.114  0.8016  0.0915 -0.5324
   39POPC   H5X 5271   0.724   6.621   7.129 -0.7550 -0.4442  2.2568
   39POPC   H5Y 5272   0.563   6.700   7.127  0.4453  0.6782 -2.4488
   39POPC   C36 5273   0.738   6.797   7.239  0.3171 -0.3534  0.1628
   39POPC   H6X 5274   0.702   6.902   7.226 -0.0244 -0.6815 -1.9089
   39POPC   H6Y 5275   0.847   6.816   7.241  0.2016  0.3198  1.3412
   39POPC   C37 5276   0.703   6.738   7.380  0.1766 -0.5926  0.7007
   39POPC   H7X 5277   0.758   6.641   7.385  1.2289 -0.1030 -0.7413
   39POPC   H7Y 5278   0.595   6.712   7.374  0.7101 -2.8645 -0.1986
   39POPC   C38 5279   0.736   6.835   7.489 -0.6982 -0.2789 -0.1630
   39POPC   H8X 5280   0.666   6.921   7.480 -1.1725 -0.8097 -1.6797
   39POPC   H8Y 5281   0.843   6.862   7.480 -0.1614 -1.9158  0.9126
   39POPC   C39 5282   0.715   6.774   7.631 -0.0580 -0.0163  0.4386
   39POPC   H9X 5283   0.791   6.695   7.648 -0.7475 -0.4252  1.7228
   39POPC   H9Y 5284   0.612   6.733   7.634 -0.4609  0.7695 -1.3851
   39POPC  C310 5285   0.743   6.892   7.721 -0.2137  0.6962 -0.2595
   39POPC  H10X 5286   0.666   6.968   7.696 -0.3840  0.2991 -0.9858
   39POPC  H10Y 5287   0.838   6.943   7.694 -0.9126  0.0131 -4.8157
   39POPC  C311 5288   0.733   6.867   7.873 -0.0225 -0.1128  0.2327
   39POPC  H11X 5289   0.630   6.848   7.910  0.5423  0.9469  2.5737
   39POPC  H11Y 5290   0.772   6.957   7.924 -2.1611 -0.4254  2.6310
   39POPC  C312 5291   0.811   6.746   7.926 -0.1840 -0.2049 -0.4296
   39POPC  H12X 5292   0.921   6.764   7.922 -0.0736  0.1939  2.4010
   39POPC  H12Y 5293   0.791   6.652   7.871 -0.8568  1.2228 -2.8025
   39POPC  C313 5294   0.783   6.727   8.079 -0.1144 -0.4181  0.0270
   39POPC  H13X 5295   0.839   6.805   8.135 -0.7065 -0.4486  0.6744
   39POPC  H13Y 5296   0.843   6.638   8.106 -1.0941 -0.6383  1.6441
   39POPC  C314 5297   0.633   6.706   8.110 -0.2937  0.4629 -0.3395
   39POPC  H14X 5298   0.587   6.658   8.021 -2.5997  1.6010  0.1524
   39POPC  H14Y 5299   0.588   6.807   8.123 -1.0789  0.4027 -2.2249
   39POPC  C315 5300   0.617   6.611   8.231  0.4188 -0.1430 -0.1480
   39POPC  H15X 5301   0.622   6.507   8.194 -2.7479 -1.0955  1.7062
   39POPC  H15Y 5302   0.512   6.629   8.262  0.9899  1.7288  0.8595
   39POPC  C316 5303   0.690   6.629   8.358 -0.3493  0.1022  0.4955
   39POPC  H16X 5304   0.680   6.734   8.392  0.8239  0.3427  0.1566
   39POPC  H16Y 5305   0.796   6.598   8.345  0.0709  0.7820  2.0946
   39POPC  H16Z 5306   0.652   6.553   8.430  2.6480 -1.4131  0.6664
   40POPC     N 5307   2.523   0.903   6.161  0.4024  0.3576  0.5402
   40POPC   C12 5308   2.590   0.875   6.298  0.0668  0.0931  0.3474
   40POPC  H12A 5309   2.515   0.829   6.360 -1.1940  0.5044 -0.8276
   40POPC  H12B 5310   2.604   0.969   6.349 -0.0870 -0.8252  2.1727
   40POPC   C13 5311   2.405   0.996   6.177  0.2633  0.5286 -0.0477
   40POPC  H13A 5312   2.357   1.024   6.085  3.0305 -0.0735 -1.7950
   40POPC  H13B 5313   2.330   0.946   6.237 -0.9868 -0.8357 -2.5878
   40POPC  H13C 5314   2.430   1.089   6.224 -1.2389  0.2056  1.4931
   40POPC   C14 5315   2.620   0.962   6.063 -0.2175 -0.2868 -0.2703
   40POPC  H14A 5316   2.646   1.050   6.119  0.5306 -1.5126  1.4100
   40POPC  H14B 5317   2.704   0.895   6.055 -0.6941 -0.7045 -2.5013
   40POPC  H14C 5318   2.584   0.976   5.962 -0.4792 -0.8773 -0.2653
   40POPC   C15 5319   2.468   0.785   6.099  0.7391 -0.1982 -0.5572
   40POPC  H15A 5320   2.549   0.716   6.078  1.9021 -0.1644  3.1906
   40POPC  H15B 5321   2.423   0.814   6.005 -0.8238  2.8824  1.0088
   40POPC  H15C 5322   2.402   0.743   6.173  0.1011  3.2369  1.0172
   40POPC   C11 5323   2.731   0.797   6.278  0.3885 -0.8905  0.5328
   40POPC  H11A 5324   2.775   0.797   6.379  0.7224  0.3348  0.4063
   40POPC  H11B 5325   2.800   0.853   6.211  0.4877  0.8029  1.9839
   40POPC     P 5326   2.683   0.537   6.316 -0.0947  0.0054 -0.2768
   40POPC   O13 5327   2.817   0.496   6.362  0.1986  1.1185  0.6710
   40POPC   O14 5328   2.610   0.436   6.235 -0.6053  0.2241 -0.0045
   40POPC   O12 5329   2.705   0.666   6.229  0.4817  0.2288  0.4057
   40POPC   O11 5330   2.598   0.563   6.445 -0.1074 -0.1549 -0.3134
   40POPC    C1 5331   2.661   0.607   6.565 -0.1579  0.8161  0.0704
   40POPC    HA 5332   2.664   0.718   6.556 -0.6094  0.7427 -1.1174
   40POPC    HB 5333   2.756   0.555   6.587 -1.4282 -1.0292  1.4692
   40POPC    C2 5334   2.558   0.568   6.677 -0.5436  0.1419  1.1358
   40POPC    HS 5335   2.512   0.471   6.649 -0.9574  0.7223 -0.3169
   40POPC   O21 5336   2.463   0.678   6.691 -0.4996 -0.1842  0.1431
   40POPC   C21 5337   2.336   0.652   6.708  0.7690 -0.3903  0.3523
   40POPC   O22 5338   2.279   0.548   6.694 -0.2711  0.1061  0.1146
   40POPC   C22 5339   2.262   0.777   6.752  0.5647  0.9394  0.0107
   40POPC   H2R 5340   2.195   0.810   6.670  1.5740 -1.5590 -1.9243
   40POPC   H2S 5341   2.329   0.860   6.782  2.6504 -0.4267 -0.7048
   40POPC    C3 5342   2.635   0.553   6.810  0.2801  0.3474  0.2353
   40POPC    HX 5343   2.695   0.646   6.816 -0.3251  0.6747  1.5717
   40POPC    HY 5344   2.707   0.470   6.792 -1.3294 -1.3028  1.1227
   40POPC   O31 5345   2.552   0.537   6.931 -0.0579  0.2456 -0.3530
   40POPC   C31 5346   2.512   0.417   6.958 -0.2288 -0.3693 -0.0806
   40POPC   O32 5347   2.522   0.321   6.882  0.8272 -0.0612  0.1319
   40POPC   C32 5348   2.440   0.416   7.095  0.4621  0.6001 -0.2906
   40POPC   H2X 5349   2.331   0.403   7.080  0.2900 -0.6417  1.6899
   40POPC   H2Y 5350   2.450   0.515   7.145 -0.6669 -0.2196  1.6625
   40POPC   C23 5351   2.167   0.746   6.877  0.0421 -0.5987 -0.7043
   40POPC   H3R 5352   2.101   0.659   6.856 -0.7364 -0.5257  1.2485
   40POPC   H3S 5353   2.110   0.840   6.893  0.0385 -0.8281  0.7738
   40POPC   C24 5354   2.253   0.739   7.007  0.2947  0.4001 -0.1566
   40POPC   H4R 5355   2.330   0.818   7.013  1.2349 -0.5861  1.5130
   40POPC   H4S 5356   2.308   0.643   7.015  1.5323  1.1318  0.3990
   40POPC   C25 5357   2.172   0.751   7.136 -0.0184  0.2255  0.1980
   40POPC   H5R 5358   2.106   0.840   7.127  0.0659  0.3420  0.7229
   40POPC   H5S 5359   2.233   0.767   7.227 -1.1114  0.7657  0.8629
   40POPC   C26 5360   2.070   0.649   7.159 -0.0806  0.6485  0.4108
   40POPC   H6R 5361   1.998   0.635   7.075  0.0620  1.3310  0.1671
   40POPC   H6S 5362   2.004   0.692   7.237 -1.0940  3.0617 -1.6393
   40POPC   C27 5363   2.115   0.513   7.201  0.0475  0.0884  0.3478
   40POPC   H7R 5364   2.213   0.516   7.253 -1.7285 -0.6241  4.1113
   40POPC   H7S 5365   2.128   0.459   7.105  1.6294  2.2465 -0.7360
   40POPC   C28 5366   2.008   0.446   7.295  0.1039 -0.2348  0.0247
   40POPC   H8R 5367   1.910   0.451   7.242  0.1925 -0.7821 -0.2064
   40POPC   H8S 5368   1.999   0.503   7.390 -0.2188 -1.0233  0.4796
   40POPC   C29 5369   2.039   0.298   7.322 -0.0000 -0.3927 -0.7021
   40POPC   H91 5370   2.069   0.244   7.231  1.3453  1.3979 -1.3776
   40POPC  C210 5371   2.049   0.240   7.445 -0.4856 -0.2756  0.1389
   40POPC  H101 5372   2.077   0.134   7.451  0.1882 -0.1438 -0.5362
   40POPC  C211 5373   2.026   0.307   7.575  0.5635  0.4599 -0.3107
   40POPC  H11R 5374   1.916   0.311   7.590  0.6457 -1.2388  0.9311
   40POPC  H11S 5375   2.085   0.399   7.597  1.5171 -0.7083  2.4097
   40POPC  C212 5376   2.060   0.215   7.692  0.5286 -0.3341 -0.6286
   40POPC  H12R 5377   2.170   0.198   7.696  0.1950 -2.6421  1.9077
   40POPC  H12S 5378   2.020   0.112   7.678 -2.6052  0.4130  1.7200
   40POPC  C213 5379   2.015   0.261   7.833 -0.1970  0.6904  0.2658
   40POPC  H13R 5380   1.905   0.251   7.842  0.0992 -3.7209  1.3604
   40POPC  H13S 5381   2.057   0.361   7.858  0.4929  0.4299  0.1733
   40POPC  C214 5382   2.075   0.165   7.934 -0.4224  0.2866 -0.0442
   40POPC  H14R 5383   2.174   0.129   7.898  0.0684  0.1800  1.3141
   40POPC  H14S 5384   2.016   0.071   7.929 -0.7687  0.5692 -1.5565
   40POPC  C215 5385   2.098   0.239   8.066  0.2713  0.3979 -0.3008
   40POPC  H15R 5386   2.001   0.262   8.114 -0.1545 -0.4624 -0.7394
   40POPC  H15S 5387   2.161   0.330   8.053 -0.2190  0.8261  0.2877
   40POPC  C216 5388   2.179   0.157   8.166  0.0287  0.4552  0.1120
   40POPC  H16R 5389   2.281   0.144   8.124  0.2355  0.8943  0.4660
   40POPC  H16S 5390   2.136   0.056   8.181 -3.4188  2.1096  2.9457
   40POPC  C217 5391   2.186   0.220   8.305 -0.0432 -0.4805 -0.3204
   40POPC  H17R 5392   2.190   0.331   8.297 -3.7091 -0.2634 -0.9793
   40POPC  H17S 5393   2.280   0.196   8.360 -0.8195 -2.5679  0.1640
   40POPC  C218 5394   2.070   0.179   8.394  0.3613 -0.4613 -0.6536
   40POPC  H18R 5395   2.074   0.237   8.489  3.2539  0.1344 -1.0356
   40POPC  H18S 5396   2.069   0.073   8.427  0.9994 -0.8971 -1.9856
   40POPC  H18T 5397   1.976   0.200   8.339  0.7969 -0.9190 -1.5777
   40POPC   C33 5398   2.498   0.296   7.184  0.7127 -1.0012 -1.0536
   40POPC   H3X 5399   2.606   0.317   7.200  0.2339  0.7520  0.1289
   40POPC   H3Y 5400   2.488   0.196   7.137 -0.4002 -2.2030  1.5227
   40POPC   C34 5401   2.429   0.283   7.317 -0.1889 -0.3207  0.4021
   40POPC   H4X 5402   2.433   0.174   7.341  0.3598 -0.7215 -1.3593
   40POPC   H4Y 5403   2.321   0.299   7.303 -0.3952 -1.2977  0.7546
   40POPC   C35 5404   2.490   0.358   7.428  0.1847 -0.0477 -0.8807
   40POPC   H5X 5405   2.512   0.467   7.424 -0.2073  0.0600 -0.2861
   40POPC   H5Y 5406   2.593   0.321   7.448  0.5001  1.2679  0.0916
   40POPC   C36 5407   2.410   0.335   7.559  0.2980  0.7218  0.4251
   40POPC   H6X 5408   2.398   0.226   7.578  0.5579  0.1034 -2.4950
   40POPC   H6Y 5409   2.314   0.391   7.555 -1.2273 -1.7451 -0.3416
   40POPC   C37 5410   2.482   0.406   7.675 -0.0378 -0.2071  0.5207
   40POPC   H7X 5411   2.517   0.508   7.650  0.2949  0.0657  2.0171
   40POPC   H7Y 5412   2.579   0.354   7.691  0.3705 -0.4386 -2.1191
   40POPC   C38 5413   2.401   0.417   7.803 -0.7771 -0.7607  0.2576
   40POPC   H8X 5414   2.374   0.313   7.833  0.7191 -0.4780  2.8329
   40POPC   H8Y 5415   2.304   0.470   7.791 -0.2979 -0.0017 -0.3313
   40POPC   C39 5416   2.486   0.483   7.912  0.8276 -0.3523 -0.8536
   40POPC   H9X 5417   2.498   0.589   7.881  1.0725 -0.1698 -0.1457
   40POPC   H9Y 5418   2.590   0.442   7.913  1.7005  1.7195 -1.5105
   40POPC  C310 5419   2.424   0.468   8.058  0.0333 -0.3427 -0.0292
   40POPC  H10X 5420   2.433   0.357   8.070 -0.5623 -0.2861  1.0385
   40POPC  H10Y 5421   2.317   0.495   8.054  0.4469  1.5792  1.0343
   40POPC  C311 5422   2.500   0.529   8.173  0.0466 -0.6694 -0.3167
   40POPC  H11X 5423   2.502   0.640   8.168  0.5176 -0.7093 -1.1354
   40POPC  H11Y 5424   2.606   0.500   8.156  0.7679  1.5155  0.0934
   40POPC  C312 5425   2.442   0.476   8.308  0.1157  0.2881 -0.3465
   40POPC  H12X 5426   2.463   0.368   8.321 -2.0522 -0.0863  0.5197
   40POPC  H12Y 5427   2.331   0.483   8.315  0.2817  3.0873  1.2193
   40POPC  C313 5428   2.494   0.564   8.420 -0.2829 -0.4090  0.0153
   40POPC  H13X 5429   2.467   0.671   8.408  0.5353 -0.3674 -1.8070
   40POPC  H13Y 5430   2.605   0.562   8.413 -0.1416  0.6493  1.4829
   40POPC  C314 5431   2.443   0.516   8.563  0.6639  0.3519 -0.0676
   40POPC  H14X 5432   2.461   0.406   8.564  2.5278  0.6130  1.7292
   40POPC  H14Y 5433   2.334   0.537   8.567  0.7711  0.8630  2.7057
   40POPC  C315 5434   2.503   0.589   8.681 -0.0102  0.3682 -0.6066
   40POPC  H15X 5435   2.426   0.582   8.761 -0.5984  2.2034 -0.9790
   40POPC  H15Y 5436   2.510   0.696   8.652  0.4464 -0.1678 -2.7012
   40POPC  C316 5437   2.637   0.544   8.741  0.7833  0.0438 -0.4085
   40POPC  H16X 5438   2.645   0.605   8.833  1.1987  0.4717 -0.7202
   40POPC  H16Y 5439   2.719   0.561   8.668 -0.6345  2.7013 -1.5198
   40POPC  H16Z 5440   2.640   0.438   8.774 -0.9463  0.1016  0.0325
   41CHL1    C3 5441   2.961   1.018  10.196  0.2278  0.1228  0.8491
   41CHL1    H3 5442   2.854   0.998  10.175  0.2403 -1.5294  2.1640
   41CHL1    O3 5443   2.987   1.007  10.333 -0.2912  0.3569  0.3491
   41CHL1   H3' 5444   3.076   0.971  10.338 -0.0183  0.6254 -1.5954
   41CHL1    C4 5445   3.022   0.896  10.123  0.0236 -0.2102 -0.2244
   41CHL1   H4A 5446   3.130   0.888  10.150 -0.8456 -0.1949  3.8915
   41CHL1   H4B 5447   2.969   0.810  10.168 -0.1221 -1.6446 -2.9462
   41CHL1    C5 5448   3.012   0.892   9.969 -0.5544  0.1801  0.4043
   41CHL1    C6 5449   2.961   0.786   9.907 -1.3416 -0.1831 -0.1652
   41CHL1    H6 5450   2.943   0.690   9.958  0.6559 -0.0430  0.9125
   41CHL1    C7 5451   2.931   0.792   9.755 -0.3699  0.0102 -0.6097
   41CHL1   H7A 5452   2.952   0.692   9.710 -1.4240 -0.6260  0.2821
   41CHL1   H7B 5453   2.822   0.799   9.737 -0.4235  1.8469  0.2519
   41CHL1    C8 5454   3.003   0.903   9.672  0.7219 -0.0824  0.2528
   41CHL1    H8 5455   3.112   0.885   9.662  1.0232 -0.1494  2.8525
   41CHL1   C14 5456   2.946   0.918   9.538 -0.5921 -0.0298  0.3069
   41CHL1   H14 5457   2.836   0.935   9.546 -1.1838 -1.3905 -3.2851
   41CHL1   C15 5458   2.958   0.791   9.452 -0.1340 -0.1758 -0.6076
   41CHL1  H15A 5459   3.056   0.738   9.459 -0.1005 -0.0186  0.2367
   41CHL1  H15B 5460   2.881   0.718   9.487 -0.2984 -0.1943 -1.0116
   41CHL1   C16 5461   2.925   0.847   9.313 -0.5250 -0.1546 -0.2074
   41CHL1  H16A 5462   3.004   0.817   9.240 -0.0606  1.8565 -0.5838
   41CHL1  H16B 5463   2.824   0.826   9.273  0.5337 -3.4995 -1.4748
   41CHL1   C17 5464   2.933   1.004   9.323 -1.5249 -0.4054 -0.3161
   41CHL1   H17 5465   2.826   1.031   9.330 -1.7117 -0.4735 -2.3893
   41CHL1   C13 5466   3.003   1.032   9.456  0.1991  0.0625  0.1253
   41CHL1   C18 5467   3.160   1.014   9.425 -0.8166  0.7300 -0.1681
   41CHL1  H18A 5468   3.204   1.106   9.382  1.5457 -0.6180 -0.8223
   41CHL1  H18B 5469   3.208   1.016   9.525 -0.3519 -0.0698 -0.3652
   41CHL1  H18C 5470   3.187   0.920   9.373 -0.6846  1.7092 -1.9234
   41CHL1   C12 5471   2.972   1.165   9.530 -0.4680  0.1048  0.0133
   41CHL1  H12A 5472   3.016   1.255   9.482  1.3367 -1.3634 -1.1958
   41CHL1  H12B 5473   2.861   1.169   9.534 -0.4454  1.0228 -0.0108
   41CHL1   C11 5474   3.028   1.162   9.671  0.1015  0.3967  0.0693
   41CHL1  H11A 5475   3.138   1.170   9.660 -0.0391  0.6352 -1.4929
   41CHL1  H11B 5476   2.985   1.248   9.726 -1.3391 -0.5318  0.4550
   41CHL1    C9 5477   2.984   1.036   9.758 -0.3420 -0.4405  0.1893
   41CHL1    H9 5478   2.875   1.057   9.758  0.1706  3.0835 -1.9032
   41CHL1   C10 5479   3.042   1.030   9.901  0.5888  0.1368 -0.1108
   41CHL1   C19 5480   3.195   1.048   9.909  0.6563 -0.3588  0.0056
   41CHL1  H19A 5481   3.241   0.988   9.828 -0.9314 -0.8949 -0.5495
   41CHL1  H19B 5482   3.216   1.154   9.884 -2.1607  0.0182 -1.1697
   41CHL1  H19C 5483   3.237   1.036  10.011  1.5465  0.8057 -0.2006
   41CHL1    C1 5484   2.973   1.143   9.979  0.6395 -0.6427  0.3133
   41CHL1   H1A 5485   3.004   1.241   9.935 -1.0886  0.7148  1.9703
   41CHL1   H1B 5486   2.864   1.136   9.959  0.2477  0.9141  1.7049
   41CHL1    C2 5487   3.003   1.154  10.131  0.0520  0.2269 -0.1567
   41CHL1   H2A 5488   2.944   1.240  10.168  0.8055  0.7406 -0.1235
   41CHL1   H2B 5489   3.112   1.171  10.149 -0.0957  2.6083 -1.1026
   41CHL1   C20 5490   2.980   1.065   9.193 -0.8215  0.0271 -0.5860
   41CHL1   H20 5491   3.083   1.030   9.170 -0.9790  0.3233 -1.8350
   41CHL1   C21 5492   2.991   1.219   9.213 -0.6237  0.0426  0.1522
   41CHL1  H21A 5493   3.003   1.268   9.114  1.2681  0.0864  0.3767
   41CHL1  H21B 5494   3.082   1.255   9.265  0.9650 -1.0290 -1.7688
   41CHL1  H21C 5495   2.893   1.257   9.250 -0.1414  1.3073  0.1996
   41CHL1   C22 5496   2.888   1.026   9.070 -0.3764 -0.7473 -0.0821
   41CHL1  H22A 5497   2.874   0.916   9.072 -1.3961 -0.6497  2.1080
   41CHL1  H22B 5498   2.788   1.074   9.076 -0.2896 -0.6972  1.7718
   41CHL1   C23 5499   2.951   1.064   8.929  0.5230  0.8290 -0.4034
   41CHL1  H23A 5500   2.921   1.169   8.909  2.4013  1.5415  0.2587
   41CHL1  H23B 5501   3.059   1.038   8.923  1.0083  2.5176  0.4423
   41CHL1   C24 5502   2.890   0.972   8.820 -0.2530 -0.0688 -0.1569
   41CHL1  H24A 5503   2.907   0.867   8.852 -0.1172  0.5321  1.8980
   41CHL1  H24B 5504   2.781   0.987   8.833 -0.2409 -0.0508 -0.0723
   41CHL1   C25 5505   2.948   1.007   8.678  0.0908  0.2226 -0.5040
   41CHL1   H25 5506   2.947   1.117   8.671  0.0665  0.1719 -1.3566
   41CHL1   C26 5507   3.094   0.958   8.658  0.7066 -0.7152  0.5926
   41CHL1  H26A 5508   3.087   0.847   8.656 -3.1050 -0.6151 -1.4519
   41CHL1  H26B 5509   3.136   0.990   8.560  0.3833  0.8459  0.9426
   41CHL1  H26C 5510   3.156   1.003   8.738 -0.8612  2.5428  0.1144
   41CHL1   C27 5511   2.858   0.953   8.573  0.3712  0.3309  0.4956
   41CHL1  H27A 5512   2.753   0.984   8.595 -0.5617 -2.3092  0.1232
   41CHL1  H27B 5513   2.888   0.992   8.474 -0.8841  0.5910  0.2027
   41CHL1  H27C 5514   2.843   0.844   8.557 -2.1143  0.8560 -1.2799
   42CHL1    C3 5515   1.662   2.222  10.108  0.3930  0.2615 -0.2373
   42CHL1    H3 5516   1.770   2.206  10.127  0.4941  0.9122 -0.2415
   42CHL1    O3 5517   1.586   2.264  10.219 -0.3208  0.0937 -0.4064
   42CHL1   H3' 5518   1.631   2.340  10.255 -0.7917  0.4401 -0.5407
   42CHL1    C4 5519   1.635   2.324   9.992 -0.3330 -0.7920  0.8490
   42CHL1   H4A 5520   1.524   2.326   9.990 -0.3652 -1.8718  0.5139
   42CHL1   H4B 5521   1.680   2.418  10.029 -0.1018 -0.3846 -0.4269
   42CHL1    C5 5522   1.698   2.284   9.858 -0.1462  0.4020  0.7666
   42CHL1    C6 5523   1.783   2.362   9.787 -0.1987 -0.2935  0.5354
   42CHL1    H6 5524   1.806   2.461   9.828 -0.7470  0.1931 -0.2993
   42CHL1    C7 5525   1.835   2.330   9.647  0.6074 -0.3265 -0.0344
   42CHL1   H7A 5526   1.811   2.416   9.580 -0.2300 -2.9894 -3.4774
   42CHL1   H7B 5527   1.945   2.312   9.644  0.7655  0.0021 -5.0668
   42CHL1    C8 5528   1.769   2.204   9.587  0.5894 -0.0976 -0.4553
   42CHL1    H8 5529   1.669   2.233   9.547 -0.3981 -0.5342  1.5367
   42CHL1   C14 5530   1.855   2.152   9.469 -0.2977  0.6806 -0.6033
   42CHL1   H14 5531   1.950   2.112   9.512 -1.2197 -1.0310 -0.0809
   42CHL1   C15 5532   1.899   2.252   9.355 -0.8339 -0.3036  0.8949
   42CHL1  H15A 5533   1.812   2.318   9.338 -0.7883 -0.8100 -1.7573
   42CHL1  H15B 5534   1.985   2.317   9.382  0.1449 -0.5793 -1.3444
   42CHL1   C16 5535   1.923   2.171   9.227 -0.1747 -0.5198  0.8021
   42CHL1  H16A 5536   1.887   2.229   9.139 -0.1258  4.6103  3.7421
   42CHL1  H16B 5537   2.032   2.165   9.204 -0.1189  0.4659  0.7572
   42CHL1   C17 5538   1.871   2.026   9.263 -0.1894 -0.3389 -0.1045
   42CHL1   H17 5539   1.963   1.976   9.300 -0.2843 -1.3186 -1.1327
   42CHL1   C13 5540   1.785   2.035   9.393  0.3186 -0.1155 -0.5455
   42CHL1   C18 5541   1.638   2.062   9.345  0.4307 -0.3015  0.2514
   42CHL1  H18A 5542   1.629   2.109   9.244 -2.5229 -1.9852 -0.3886
   42CHL1  H18B 5543   1.585   1.965   9.333 -0.7450  0.4840 -1.2944
   42CHL1  H18C 5544   1.579   2.115   9.423 -1.4244  1.3809 -2.1400
   42CHL1   C12 5545   1.795   1.921   9.493 -0.1167  0.6356  0.3911
   42CHL1  H12A 5546   1.763   1.828   9.441 -1.0950  1.8487 -1.2611
   42CHL1  H12B 5547   1.902   1.906   9.519  0.1094  0.1342 -0.7700
   42CHL1   C11 5548   1.716   1.956   9.623 -0.3769  0.0282 -0.4144
   42CHL1  H11A 5549   1.610   1.963   9.592 -0.2953 -1.6786 -1.1967
   42CHL1  H11B 5550   1.716   1.875   9.699 -2.8028  0.2541 -0.0957
   42CHL1    C9 5551   1.751   2.096   9.695 -0.7036 -0.7238  0.0507
   42CHL1    H9 5552   1.856   2.088   9.729 -0.7919 -2.8339 -0.0059
   42CHL1   C10 5553   1.657   2.140   9.817  0.2325 -1.2259  1.0346
   42CHL1   C19 5554   1.508   2.129   9.771 -0.0045  0.0710 -0.9401
   42CHL1  H19A 5555   1.437   2.159   9.851 -2.6947 -2.1268 -2.2909
   42CHL1  H19B 5556   1.487   2.174   9.671  1.9414  2.0528 -0.5292
   42CHL1  H19C 5557   1.491   2.019   9.765  0.1346  0.0336 -0.6575
   42CHL1    C1 5558   1.681   2.046   9.924  0.0226  0.3270  0.3029
   42CHL1   H1A 5559   1.647   1.944   9.899 -0.1700  0.9556 -2.3069
   42CHL1   H1B 5560   1.788   2.036   9.953 -0.4813  0.5849  2.4419
   42CHL1    C2 5561   1.611   2.081  10.065 -0.2636  0.0167  0.4218
   42CHL1   H2A 5562   1.643   2.011  10.145  1.8520  2.6452  2.0894
   42CHL1   H2B 5563   1.502   2.085  10.049 -0.4717 -1.0746  1.4697
   42CHL1   C20 5564   1.824   1.933   9.150  0.5385 -0.0828 -0.0676
   42CHL1   H20 5565   1.714   1.925   9.160  0.1936  2.1374 -1.4964
   42CHL1   C21 5566   1.901   1.801   9.161  0.0368  0.0767  0.4019
   42CHL1  H21A 5567   2.009   1.819   9.141  0.5811 -1.6050  1.6419
   42CHL1  H21B 5568   1.856   1.719   9.102  0.6025  0.2189 -0.2425
   42CHL1  H21C 5569   1.894   1.788   9.271  0.1155  1.0482  0.5329
   42CHL1   C22 5570   1.837   1.979   8.999  0.0079  0.4033 -0.4412
   42CHL1  H22A 5571   1.761   2.059   8.990 -2.5685 -2.0080 -1.3974
   42CHL1  H22B 5572   1.940   2.019   8.983 -0.9412  2.5842 -1.4599
   42CHL1   C23 5573   1.797   1.877   8.888 -0.5274  0.2653 -0.3426
   42CHL1  H23A 5574   1.835   1.775   8.909 -0.7150  0.0152 -1.1927
   42CHL1  H23B 5575   1.687   1.886   8.891 -0.4236  2.4114 -1.4246
   42CHL1   C24 5576   1.845   1.915   8.745  0.0342  0.3270  0.4092
   42CHL1  H24A 5577   1.806   2.018   8.737  1.2288  1.0320  2.8467
   42CHL1  H24B 5578   1.956   1.910   8.740  0.0174  1.0971 -1.8902
   42CHL1   C25 5579   1.784   1.819   8.627  0.3533 -0.8229 -0.0063
   42CHL1   H25 5580   1.674   1.813   8.644  0.1182  1.6041 -0.2981
   42CHL1   C26 5581   1.803   1.875   8.486 -0.5771  0.0025 -0.0793
   42CHL1  H26A 5582   1.912   1.898   8.481 -0.1574 -1.9538 -1.0051
   42CHL1  H26B 5583   1.785   1.787   8.420 -0.3524 -1.1665  1.3688
   42CHL1  H26C 5584   1.745   1.963   8.452  0.3701  0.4243 -0.6677
   42CHL1   C27 5585   1.861   1.685   8.645 -0.0434  0.0322 -0.5536
   42CHL1  H27A 5586   1.827   1.626   8.733 -0.5675  2.3174  0.8636
   42CHL1  H27B 5587   1.845   1.627   8.552  1.1955  1.4236 -1.6936
   42CHL1  H27C 5588   1.970   1.708   8.655 -0.2822  1.5710 -1.2221
   43CHL1    C3 5589   1.587   0.722  10.030  0.2007 -0.1969 -0.1328
   43CHL1    H3 5590   1.590   0.615  10.000 -1.8132 -0.5735  0.8457
   43CHL1    O3 5591   1.593   0.729  10.170  0.1273 -0.2221  0.1911
   43CHL1   H3' 5592   1.571   0.820  10.194 -1.5103 -0.2942 -0.8765
   43CHL1    C4 5593   1.710   0.795   9.979  0.7516  0.4564  0.8177
   43CHL1   H4A 5594   1.703   0.898  10.019  1.3257  0.8464 -0.0784
   43CHL1   H4B 5595   1.796   0.743  10.027  0.5634 -0.3918  0.2569
   43CHL1    C5 5596   1.718   0.791   9.830  0.7368 -0.0380 -0.5424
   43CHL1    C6 5597   1.820   0.723   9.771  0.3706  0.2979  0.0751
   43CHL1    H6 5598   1.903   0.677   9.827 -0.8615 -2.7110 -0.3651
   43CHL1    C7 5599   1.830   0.719   9.621 -0.3085 -0.3458  0.9525
   43CHL1   H7A 5600   1.932   0.735   9.581 -1.0468  0.5018 -0.7083
   43CHL1   H7B 5601   1.803   0.615   9.592  1.2965 -0.6788  0.5253
   43CHL1    C8 5602   1.736   0.817   9.541  0.1504  0.9978 -0.0753
   43CHL1    H8 5603   1.782   0.918   9.547  0.0065  1.0273  0.6112
   43CHL1   C14 5604   1.716   0.776   9.399  0.1809  0.1797 -0.1276
   43CHL1   H14 5605   1.670   0.675   9.400  1.0856 -0.2380  0.8035
   43CHL1   C15 5606   1.847   0.763   9.311  0.1612 -0.3952  0.4656
   43CHL1  H15A 5607   1.915   0.848   9.332  0.5227 -0.1172 -1.6953
   43CHL1  H15B 5608   1.898   0.667   9.335 -0.0795 -1.2041 -2.0435
   43CHL1   C16 5609   1.795   0.759   9.165  0.2963  0.0044 -0.3461
   43CHL1  H16A 5610   1.843   0.844   9.112 -0.1589  0.6963  0.3377
   43CHL1  H16B 5611   1.802   0.662   9.111 -0.6520 -0.5585  0.5080
   43CHL1   C17 5612   1.642   0.801   9.177 -0.3501 -0.1970  0.3617
   43CHL1   H17 5613   1.585   0.706   9.174 -2.1336  0.7657  1.5207
   43CHL1   C13 5614   1.620   0.862   9.316 -0.0161 -1.3266  0.9616
   43CHL1   C18 5615   1.675   1.003   9.300 -0.1561 -0.2188  0.2450
   43CHL1  H18A 5616   1.674   1.050   9.401  1.1456  0.0924  0.1383
   43CHL1  H18B 5617   1.779   1.013   9.261  0.7008 -0.6652  2.2876
   43CHL1  H18C 5618   1.613   1.071   9.237  1.4082  1.7682  0.7279
   43CHL1   C12 5619   1.487   0.848   9.374  0.2300 -0.3587  0.4523
   43CHL1  H12A 5620   1.407   0.903   9.321  1.2325  1.8263  1.0769
   43CHL1  H12B 5621   1.451   0.744   9.360 -0.7617  0.1695 -1.1551
   43CHL1   C11 5622   1.487   0.889   9.522 -0.5994 -0.0708 -0.6749
   43CHL1  H11A 5623   1.514   0.997   9.516  1.0190 -0.5049 -4.0850
   43CHL1  H11B 5624   1.386   0.866   9.561 -0.8386 -2.6346 -2.5143
   43CHL1    C9 5625   1.595   0.820   9.611  0.7665 -0.1338 -0.2750
   43CHL1    H9 5626   1.560   0.716   9.594  1.7140 -0.7839  1.4804
   43CHL1   C10 5627   1.593   0.849   9.757 -0.3079  0.4639  0.0926
   43CHL1   C19 5628   1.596   1.007   9.768  0.3991  0.4745 -0.2337
   43CHL1  H19A 5629   1.648   1.037   9.862 -0.9828  2.2688  0.0199
   43CHL1  H19B 5630   1.657   1.047   9.684  1.0442  1.1467  0.5359
   43CHL1  H19C 5631   1.493   1.050   9.762  0.2107  0.3527  1.5647
   43CHL1    C1 5632   1.465   0.785   9.826 -0.4534  0.2248  0.1484
   43CHL1   H1A 5633   1.376   0.836   9.781 -0.3551  2.1007  1.9319
   43CHL1   H1B 5634   1.459   0.676   9.808  0.2513  0.2020  0.0055
   43CHL1    C2 5635   1.462   0.788   9.977  0.3184 -0.3707  0.4440
   43CHL1   H2A 5636   1.373   0.735  10.017 -0.2510  0.4802  0.3256
   43CHL1   H2B 5637   1.453   0.889  10.023 -1.3294 -0.3684  0.1463
   43CHL1   C20 5638   1.591   0.876   9.048  0.7096 -0.4924 -0.2606
   43CHL1   H20 5639   1.660   0.963   9.038  2.7545 -1.6441  2.4850
   43CHL1   C21 5640   1.442   0.920   9.065 -0.7381 -1.0108  0.3458
   43CHL1  H21A 5641   1.409   0.954   8.965 -0.1033 -2.2212 -0.2877
   43CHL1  H21B 5642   1.440   1.005   9.137  0.0727 -2.9445  2.8035
   43CHL1  H21C 5643   1.378   0.835   9.099  1.0526 -1.8388  1.8414
   43CHL1   C22 5644   1.597   0.795   8.912  0.3033  0.1497  0.3755
   43CHL1  H22A 5645   1.699   0.751   8.907  0.4291  0.3282  1.2708
   43CHL1  H22B 5646   1.524   0.711   8.910  0.1119  0.3241 -0.3171
   43CHL1   C23 5647   1.595   0.885   8.790  0.1416  0.0183 -0.4733
   43CHL1  H23A 5648   1.500   0.938   8.766  1.1627  3.6861  2.6541
   43CHL1  H23B 5649   1.677   0.960   8.790  1.4526 -1.3541 -1.1530
   43CHL1   C24 5650   1.627   0.814   8.659  0.0182  0.2069  0.5370
   43CHL1  H24A 5651   1.734   0.787   8.647  0.1158  0.6103  0.4955
   43CHL1  H24B 5652   1.565   0.721   8.659  0.7079 -0.3105 -1.5421
   43CHL1   C25 5653   1.594   0.899   8.533  0.1336 -0.2428  0.5399
   43CHL1   H25 5654   1.512   0.971   8.554 -0.6692 -1.2991  1.1065
   43CHL1   C26 5655   1.714   0.989   8.499 -0.5439  0.6389  0.0432
   43CHL1  H26A 5656   1.787   0.917   8.457 -0.1429  0.8927  0.2995
   43CHL1  H26B 5657   1.676   1.063   8.426 -1.8808  1.0230  1.0885
   43CHL1  H26C 5658   1.734   1.039   8.596 -2.0067  1.0021  0.1903
   43CHL1   C27 5659   1.537   0.810   8.419  0.3409  0.1814  0.5436
   43CHL1  H27A 5660   1.479   0.861   8.339  0.3536  0.4875  0.7284
   43CHL1  H27B 5661   1.624   0.760   8.371 -0.9391 -1.8312  0.1986
   43CHL1  H27C 5662   1.477   0.727   8.463  0.1329  1.7961  3.5279
   44CHL1    C3 5663   1.721   1.612  10.262 -0.1933  0.5250  0.0164
   44CHL1    H3 5664   1.710   1.720  10.239 -3.6670  0.0337 -1.2978
   44CHL1    O3 5665   1.750   1.570  10.392 -0.6822 -0.0059  0.3939
   44CHL1   H3' 5666   1.832   1.521  10.379 -1.9737 -2.2104  0.1047
   44CHL1    C4 5667   1.593   1.541  10.204 -0.2142  0.4452  0.5910
   44CHL1   H4A 5668   1.584   1.436  10.238 -1.9526 -0.0817 -1.2952
   44CHL1   H4B 5669   1.505   1.592  10.249 -1.2397 -0.1432 -0.6628
   44CHL1    C5 5670   1.578   1.550  10.051  0.0598  0.3007  0.2402
   44CHL1    C6 5671   1.469   1.603   9.994  0.6098 -0.6944 -0.7212
   44CHL1    H6 5672   1.391   1.648  10.057  0.3911 -2.7296  0.5499
   44CHL1    C7 5673   1.445   1.608   9.843  0.5796 -0.7227 -0.2924
   44CHL1   H7A 5674   1.338   1.596   9.815  0.2055 -2.5359  1.6443
   44CHL1   H7B 5675   1.471   1.714   9.821 -0.2263 -0.2770  0.8268
   44CHL1    C8 5676   1.527   1.504   9.766 -0.8637 -0.4794  0.7606
   44CHL1    H8 5677   1.496   1.400   9.792 -0.4977 -0.4545  1.3064
   44CHL1   C14 5678   1.533   1.539   9.616  0.4386  0.1882 -0.3341
   44CHL1   H14 5679   1.576   1.642   9.609  1.4410 -0.3071 -2.1948
   44CHL1   C15 5680   1.397   1.536   9.547  0.0892 -0.0566 -0.4235
   44CHL1  H15A 5681   1.352   1.436   9.567  2.2293 -0.7313  1.5197
   44CHL1  H15B 5682   1.323   1.615   9.574 -0.4804 -0.9460  0.7491
   44CHL1   C16 5683   1.434   1.543   9.402 -0.5731  0.6439 -0.2528
   44CHL1  H16A 5684   1.379   1.466   9.343  0.1623  0.8424 -1.2334
   44CHL1  H16B 5685   1.414   1.639   9.350 -0.4641  0.8261  0.0393
   44CHL1   C17 5686   1.589   1.513   9.390  0.7939 -0.5691 -0.2445
   44CHL1   H17 5687   1.638   1.612   9.381  0.3685 -0.1355  1.6667
   44CHL1   C13 5688   1.631   1.459   9.532  0.6947 -0.1182 -0.7506
   44CHL1   C18 5689   1.604   1.311   9.539  0.3068 -0.2554  0.4084
   44CHL1  H18A 5690   1.685   1.258   9.485  1.4945  0.8995  0.9950
   44CHL1  H18B 5691   1.606   1.268   9.641 -0.2509 -0.1373  0.4707
   44CHL1  H18C 5692   1.506   1.285   9.494 -0.2048 -0.3555  1.5385
   44CHL1   C12 5693   1.769   1.483   9.585 -0.8671  0.8683 -0.1011
   44CHL1  H12A 5694   1.831   1.406   9.535 -0.6996  1.0640 -0.1937
   44CHL1  H12B 5695   1.808   1.584   9.557  0.7398  0.0251 -1.0549
   44CHL1   C11 5696   1.775   1.458   9.731 -0.0188 -0.1465 -0.7443
   44CHL1  H11A 5697   1.763   1.348   9.745 -0.0623  0.0145  0.5769
   44CHL1  H11B 5698   1.875   1.490   9.767 -0.5250 -2.0643  2.7688
   44CHL1    C9 5699   1.669   1.524   9.816 -1.4546 -0.3729 -0.7867
   44CHL1    H9 5700   1.689   1.632   9.799 -1.1121 -0.1829  0.7055
   44CHL1   C10 5701   1.688   1.494   9.968  0.5487 -0.1081  0.7709
   44CHL1   C19 5702   1.700   1.343   9.988 -0.1283  0.2595  0.4044
   44CHL1  H19A 5703   1.703   1.316  10.095  0.0583  0.6716  0.5054
   44CHL1  H19B 5704   1.618   1.293   9.933 -1.7620  2.6282  0.5136
   44CHL1  H19C 5705   1.798   1.313   9.946 -0.5042 -0.5671  0.1137
   44CHL1    C1 5706   1.804   1.570  10.025 -0.4220 -0.5277 -0.8547
   44CHL1   H1A 5707   1.892   1.523   9.977 -0.3870 -1.3672 -0.0104
   44CHL1   H1B 5708   1.805   1.675   9.989 -0.1994 -0.4298 -0.5711
   44CHL1    C2 5709   1.838   1.579  10.169  0.1786  0.0727  1.5610
   44CHL1   H2A 5710   1.923   1.645  10.196  0.2352  0.1336  1.2405
   44CHL1   H2B 5711   1.878   1.479  10.197 -0.2067 -0.1501  1.3286
   44CHL1   C20 5712   1.639   1.444   9.263 -0.6219  0.4809  0.0907
   44CHL1   H20 5713   1.602   1.339   9.269  0.0862  0.2365  0.2050
   44CHL1   C21 5714   1.797   1.431   9.259  0.7013 -0.4189 -0.0472
   44CHL1  H21A 5715   1.823   1.408   9.153  0.8707 -0.2417 -0.0444
   44CHL1  H21B 5716   1.838   1.350   9.324 -0.7611  0.5004  2.1442
   44CHL1  H21C 5717   1.844   1.524   9.295  1.2661 -0.3034 -1.0541
   44CHL1   C22 5718   1.577   1.496   9.131  0.1308 -0.4656  0.2485
   44CHL1  H22A 5719   1.473   1.530   9.150  0.4745  0.5697  0.3149
   44CHL1  H22B 5720   1.642   1.586   9.123  1.2169 -1.0235  2.2198
   44CHL1   C23 5721   1.595   1.403   9.013 -0.3126 -0.2335  0.1140
   44CHL1  H23A 5722   1.702   1.375   9.004 -0.4589 -1.0122  0.7294
   44CHL1  H23B 5723   1.551   1.301   9.022 -1.2124  0.0137 -1.1557
   44CHL1   C24 5724   1.547   1.463   8.882 -1.0414 -0.4756  0.3620
   44CHL1  H24A 5725   1.443   1.500   8.891 -0.8003  0.1742  0.5486
   44CHL1  H24B 5726   1.607   1.555   8.861 -0.7869 -0.3253  1.6800
   44CHL1   C25 5727   1.555   1.370   8.756  0.6896 -0.5183 -0.4158
   44CHL1   H25 5728   1.472   1.296   8.767 -0.4280  0.7783  0.2316
   44CHL1   C26 5729   1.544   1.450   8.629 -0.0104  0.0236 -0.2344
   44CHL1  H26A 5730   1.443   1.493   8.609 -0.8452 -1.5970  0.2842
   44CHL1  H26B 5731   1.610   1.538   8.636 -2.1724  1.6719  0.6593
   44CHL1  H26C 5732   1.584   1.389   8.545  0.1599 -0.1011 -0.0629
   44CHL1   C27 5733   1.690   1.297   8.751 -0.1384  0.4744 -0.3153
   44CHL1  H27A 5734   1.706   1.255   8.649  1.4650  1.9495 -0.7280
   44CHL1  H27B 5735   1.776   1.365   8.767  1.1531 -1.1941  0.1547
   44CHL1  H27C 5736   1.705   1.218   8.828 -0.6784 -1.8517 -2.4562
   45CHL1    C3 5737   0.167   6.326  10.292  0.1218  0.0019 -0.0219
   45CHL1    H3 5738   0.253   6.288  10.233 -0.2671 -1.0861  0.0947
   45CHL1    O3 5739   0.167   6.287  10.431 -0.0661  0.0559  0.6662
   45CHL1   H3' 5740   0.086   6.330  10.459 -0.6561  0.5052 -1.5250
   45CHL1    C4 5741   0.134   6.483  10.271  0.0454  0.3686  0.2041
   45CHL1   H4A 5742   0.037   6.502  10.322  0.3942 -3.0535  2.4365
   45CHL1   H4B 5743   0.216   6.533  10.326  1.4923 -1.1976 -0.4362
   45CHL1    C5 5744   0.120   6.510  10.122 -0.4596 -0.7995  0.2060
   45CHL1    C6 5745   0.216   6.583  10.056  0.5291 -0.1287 -0.1330
   45CHL1    H6 5746   0.292   6.642  10.110 -1.7300  3.5538 -0.5730
   45CHL1    C7 5747   0.217   6.594   9.905  0.4123 -1.0616 -0.1480
   45CHL1   H7A 5748   0.174   6.692   9.877  3.0131 -0.5080 -2.8299
   45CHL1   H7B 5749   0.321   6.587   9.866 -0.1346 -0.5335 -1.8019
   45CHL1    C8 5750   0.142   6.477   9.839  1.0638  0.2540 -0.3076
   45CHL1    H8 5751   0.195   6.384   9.865  0.5164 -0.3460 -1.2640
   45CHL1   C14 5752   0.143   6.485   9.691  0.9967  0.5633  1.0159
   45CHL1   H14 5753   0.232   6.544   9.661  2.7125 -2.3851 -0.0693
   45CHL1   C15 5754   0.171   6.345   9.632  0.0334  0.1375 -0.1560
   45CHL1  H15A 5755   0.279   6.320   9.638  0.3530  1.7170  1.4081
   45CHL1  H15B 5756   0.115   6.271   9.694  1.2971 -1.2467 -0.5957
   45CHL1   C16 5757   0.120   6.359   9.491 -0.3018  0.9342 -0.0526
   45CHL1  H16A 5758   0.197   6.416   9.434  0.8506 -0.9352 -0.4771
   45CHL1  H16B 5759   0.088   6.267   9.437 -2.0289  0.2666  1.9781
   45CHL1   C17 5760   0.002   6.456   9.491 -0.0300  0.3522 -0.1766
   45CHL1   H17 5761  -0.080   6.383   9.510  0.7014  0.0296  1.9395
   45CHL1   C13 5762   0.021   6.545   9.613 -0.4495 -0.7403  0.0735
   45CHL1   C18 5763   0.059   6.693   9.579 -0.1628 -0.0217  0.1236
   45CHL1  H18A 5764  -0.022   6.756   9.536  0.5639  1.6391  1.1056
   45CHL1  H18B 5765   0.095   6.748   9.669 -1.4147 -0.1891  0.7533
   45CHL1  H18C 5766   0.152   6.689   9.518 -0.0517  2.3249  0.0547
   45CHL1   C12 5767  -0.107   6.554   9.702 -0.3082 -0.2126  0.4336
   45CHL1  H12A 5768  -0.172   6.638   9.668  0.6058  0.5796  0.5938
   45CHL1  H12B 5769  -0.163   6.458   9.701  0.5121 -0.7430 -2.4651
   45CHL1   C11 5770  -0.089   6.574   9.851  0.0088 -0.1259  0.1749
   45CHL1  H11A 5771  -0.032   6.667   9.875  0.3480  0.4453 -2.4650
   45CHL1  H11B 5772  -0.188   6.588   9.898  0.8004 -3.2281  3.1140
   45CHL1    C9 5773  -0.001   6.458   9.899 -0.2857  0.0907  1.1136
   45CHL1    H9 5774  -0.040   6.364   9.855 -1.1807  0.0586  1.9410
   45CHL1   C10 5775   0.009   6.432  10.052  0.0735  0.0894  0.2643
   45CHL1   C19 5776  -0.122   6.482  10.109 -0.5982 -0.1506  0.2903
   45CHL1  H19A 5777  -0.214   6.444  10.060  0.6772 -0.9899 -1.6037
   45CHL1  H19B 5778  -0.128   6.452  10.215 -1.0002  0.0273  0.3201
   45CHL1  H19C 5779  -0.137   6.592  10.105  1.1465  0.4445  4.5291
   45CHL1    C1 5780   0.034   6.282  10.070  0.4248  0.4739 -0.2192
   45CHL1   H1A 5781  -0.051   6.219  10.036  0.5635 -0.4461  1.0735
   45CHL1   H1B 5782   0.125   6.248  10.016  0.7786 -1.2392  1.3444
   45CHL1    C2 5783   0.053   6.244  10.220  0.3809  0.7303 -0.7214
   45CHL1   H2A 5784   0.055   6.134  10.235  0.5981  0.9183  0.9094
   45CHL1   H2B 5785  -0.039   6.273  10.274  0.6488  2.9223 -1.3454
   45CHL1   C20 5786  -0.030   6.527   9.356 -0.7362 -0.3161  0.2742
   45CHL1   H20 5787   0.048   6.606   9.347 -1.1278  0.0062 -0.3645
   45CHL1   C21 5788  -0.174   6.577   9.360  0.4210 -0.0754 -0.0169
   45CHL1  H21A 5789  -0.192   6.632   9.455 -3.3962 -1.7923  0.4257
   45CHL1  H21B 5790  -0.249   6.496   9.368  0.9144 -0.4176  1.3777
   45CHL1  H21C 5791  -0.201   6.653   9.284  0.2561  0.2918  0.4012
   45CHL1   C22 5792  -0.004   6.431   9.237 -0.6155  0.0524 -0.2337
   45CHL1  H22A 5793   0.104   6.409   9.222 -0.0141  2.4382  0.2356
   45CHL1  H22B 5794  -0.068   6.342   9.254 -1.7488  0.8584 -0.1549
   45CHL1   C23 5795  -0.050   6.493   9.101 -0.2790  0.5477 -0.0206
   45CHL1  H23A 5796  -0.156   6.517   9.124 -1.5163 -1.6667 -2.8366
   45CHL1  H23B 5797   0.004   6.591   9.096 -1.8157  1.6007  2.1470
   45CHL1   C24 5798  -0.051   6.394   8.990 -0.6376 -0.2091  0.3634
   45CHL1  H24A 5799   0.029   6.318   9.001  0.8220  1.3770  1.2205
   45CHL1  H24B 5800  -0.143   6.333   9.000 -0.8324  0.1465  0.7562
   45CHL1   C25 5801  -0.036   6.483   8.860  0.3346  0.1942  0.3739
   45CHL1   H25 5802  -0.114   6.561   8.851 -2.3596 -2.2107  1.0860
   45CHL1   C26 5803   0.106   6.547   8.849 -0.1273  0.0119 -0.0089
   45CHL1  H26A 5804   0.131   6.605   8.941  0.0167 -2.4158  1.5921
   45CHL1  H26B 5805   0.185   6.469   8.849 -0.6431 -0.5230 -0.4626
   45CHL1  H26C 5806   0.127   6.602   8.755  1.7291  0.7243  0.7651
   45CHL1   C27 5807  -0.048   6.399   8.735 -0.7924  0.1337  0.5653
   45CHL1  H27A 5808   0.011   6.305   8.735  2.0021  1.7403 -0.6719
   45CHL1  H27B 5809  -0.155   6.370   8.727 -1.1891  1.6222  0.1477
   45CHL1  H27C 5810  -0.018   6.460   8.647  2.9230 -0.5138  1.1997
   46CHL1    C3 5811   2.377   5.763  10.161  0.0355  0.3616 -0.1396
   46CHL1    H3 5812   2.335   5.661  10.175  0.7669  0.1746  0.8640
   46CHL1    O3 5813   2.408   5.810  10.286 -0.1960  0.0317 -0.2358
   46CHL1   H3' 5814   2.435   5.902  10.283  0.5314 -0.1607  0.2406
   46CHL1    C4 5815   2.497   5.758  10.077  0.7593  0.0166 -0.3849
   46CHL1   H4A 5816   2.538   5.861  10.078 -2.3747  1.3690  0.8809
   46CHL1   H4B 5817   2.568   5.689  10.128 -1.6595 -1.8566  0.6660
   46CHL1    C5 5818   2.465   5.711   9.933 -0.3212  0.2808 -0.3884
   46CHL1    C6 5819   2.529   5.609   9.880  0.0828  0.2218  0.5108
   46CHL1    H6 5820   2.609   5.560   9.937  1.6193  0.9315 -0.9192
   46CHL1    C7 5821   2.504   5.565   9.736 -0.4573 -0.1494 -0.1491
   46CHL1   H7A 5822   2.602   5.536   9.694 -0.6944  1.7959 -2.2101
   46CHL1   H7B 5823   2.436   5.477   9.733  0.0823 -0.5991  0.5724
   46CHL1    C8 5824   2.445   5.679   9.651 -0.3005 -0.2410 -0.6401
   46CHL1    H8 5825   2.525   5.750   9.619  0.5276 -1.6183 -1.7517
   46CHL1   C14 5826   2.402   5.630   9.516 -0.3147  0.2086 -0.3402
   46CHL1   H14 5827   2.335   5.544   9.536  1.7195 -1.3169  0.1856
   46CHL1   C15 5828   2.512   5.570   9.426 -0.1998  0.0480 -0.8611
   46CHL1  H15A 5829   2.605   5.631   9.428  0.6550 -1.2198 -0.3731
   46CHL1  H15B 5830   2.545   5.469   9.461  0.5391  0.6219  0.1487
   46CHL1   C16 5831   2.454   5.563   9.281  0.1306 -0.4896  0.1802
   46CHL1  H16A 5832   2.529   5.603   9.210  1.3653 -3.0917 -0.0984
   46CHL1  H16B 5833   2.442   5.458   9.246  0.7646 -0.5972  0.2683
   46CHL1   C17 5834   2.321   5.645   9.288 -0.1570 -0.4320  0.7157
   46CHL1   H17 5835   2.248   5.565   9.315 -0.7883 -0.0170  0.2811
   46CHL1   C13 5836   2.340   5.734   9.424 -0.3870 -0.2210  0.4416
   46CHL1   C18 5837   2.433   5.854   9.389  0.6907  0.4374  0.1702
   46CHL1  H18A 5838   2.466   5.901   9.484  0.8191  0.2951  0.1951
   46CHL1  H18B 5839   2.525   5.824   9.334  0.9560 -0.7339  1.2169
   46CHL1  H18C 5840   2.374   5.931   9.335  0.2629  1.0561  1.4936
   46CHL1   C12 5841   2.215   5.779   9.495  0.5189  0.2424  0.3929
   46CHL1  H12A 5842   2.152   5.854   9.443 -1.1179 -1.4545 -0.1845
   46CHL1  H12B 5843   2.146   5.691   9.494  0.3443  0.3511 -1.7832
   46CHL1   C11 5844   2.240   5.833   9.635 -0.1420  0.0574 -0.5633
   46CHL1  H11A 5845   2.307   5.920   9.618 -0.2073  0.0890 -0.6610
   46CHL1  H11B 5846   2.143   5.859   9.681 -0.6937 -1.3453 -0.8796
   46CHL1    C9 5847   2.328   5.739   9.725  0.1655 -0.2277 -0.9084
   46CHL1    H9 5848   2.269   5.651   9.759  1.6133  0.0953  2.9598
   46CHL1   C10 5849   2.371   5.803   9.858 -0.2271 -0.8139  0.2141
   46CHL1   C19 5850   2.456   5.934   9.831  0.4366 -0.6650 -0.0474
   46CHL1  H19A 5851   2.536   5.897   9.764 -2.1429 -1.5309 -2.8696
   46CHL1  H19B 5852   2.394   6.011   9.781  2.4201  0.3008 -1.0927
   46CHL1  H19C 5853   2.501   5.974   9.924 -1.8941 -0.2958  0.9908
   46CHL1    C1 5854   2.245   5.848   9.942 -0.4918  0.7322  0.6577
   46CHL1   H1A 5855   2.196   5.932   9.888  0.6197  0.8958 -0.1333
   46CHL1   H1B 5856   2.177   5.762   9.925  1.0839  0.0362 -3.2541
   46CHL1    C2 5857   2.268   5.869  10.099  0.1471  0.4459 -0.2305
   46CHL1   H2A 5858   2.174   5.876  10.159  1.0327  1.3453  1.1207
   46CHL1   H2B 5859   2.327   5.963  10.103  0.6818  0.0905  2.0803
   46CHL1   C20 5860   2.284   5.716   9.155 -0.1659  0.2203  0.6960
   46CHL1   H20 5861   2.370   5.780   9.125  0.8177 -1.6423 -0.6704
   46CHL1   C21 5862   2.152   5.794   9.166 -0.0646 -0.0774 -0.2383
   46CHL1  H21A 5863   2.173   5.883   9.229  0.1232 -1.3564  1.5675
   46CHL1  H21B 5864   2.065   5.737   9.206  0.4739 -1.3542 -0.8230
   46CHL1  H21C 5865   2.122   5.824   9.063 -0.4027  0.2586 -0.0472
   46CHL1   C22 5866   2.280   5.608   9.043  0.1897  0.0673 -0.3106
   46CHL1  H22A 5867   2.373   5.550   9.059 -0.1530  0.2857  3.5745
   46CHL1  H22B 5868   2.202   5.538   9.083  0.4920  0.0425  0.2486
   46CHL1   C23 5869   2.247   5.636   8.902 -0.3889  0.4792  1.5213
   46CHL1  H23A 5870   2.140   5.612   8.886 -0.5038  1.5715  0.5006
   46CHL1  H23B 5871   2.250   5.746   8.889  1.3084  0.2064 -1.2151
   46CHL1   C24 5872   2.336   5.567   8.796 -0.3096 -0.0913  0.0119
   46CHL1  H24A 5873   2.439   5.595   8.823 -0.2533  2.6143 -2.4963
   46CHL1  H24B 5874   2.336   5.458   8.819  2.1171  0.1356  1.3791
   46CHL1   C25 5875   2.307   5.598   8.644 -0.2807 -0.7719 -0.2494
   46CHL1   H25 5876   2.321   5.707   8.629 -0.4456 -0.7214 -0.0413
   46CHL1   C26 5877   2.404   5.527   8.557 -0.5686  0.4710 -0.5782
   46CHL1  H26A 5878   2.374   5.530   8.450 -1.4320  0.0644 -0.3548
   46CHL1  H26B 5879   2.507   5.569   8.566  0.0660 -0.5125 -2.6285
   46CHL1  H26C 5880   2.399   5.420   8.586 -0.3223  1.0776  1.9015
   46CHL1   C27 5881   2.166   5.564   8.592 -0.0440  0.1898  0.7337
   46CHL1  H27A 5882   2.088   5.608   8.657 -0.9237  1.8201 -1.3219
   46CHL1  H27B 5883   2.158   5.609   8.491  1.0116 -0.3752  0.3723
   46CHL1  H27C 5884   2.135   5.458   8.579 -2.6627  1.0401 -0.7200
   47CHL1    C3 5885   2.689   1.421  10.088  0.1188 -0.9543 -0.0883
   47CHL1    H3 5886   2.795   1.389  10.089  0.6689  0.7130 -1.2074
   47CHL1    O3 5887   2.647   1.409  10.218  0.1866  0.5594  0.5517
   47CHL1   H3' 5888   2.555   1.436  10.221 -0.6099 -2.0191  1.2618
   47CHL1    C4 5889   2.668   1.564  10.029 -0.5803 -0.3181 -0.3475
   47CHL1   H4A 5890   2.566   1.606  10.043 -1.1411 -0.9821 -2.1866
   47CHL1   H4B 5891   2.734   1.635  10.084 -1.8964 -0.4677  1.5079
   47CHL1    C5 5892   2.700   1.561   9.882  0.0019 -0.0465  0.9124
   47CHL1    C6 5893   2.805   1.628   9.833 -0.2887  0.3466  0.3488
   47CHL1    H6 5894   2.858   1.703   9.893 -1.2968  2.0952 -0.8314
   47CHL1    C7 5895   2.854   1.638   9.694  0.4688  0.3755  0.2696
   47CHL1   H7A 5896   2.880   1.745   9.678  0.3334  0.3641 -0.0504
   47CHL1   H7B 5897   2.939   1.568   9.680 -0.7959 -1.1422 -0.0861
   47CHL1    C8 5898   2.742   1.588   9.597 -0.0663 -0.3165 -0.2575
   47CHL1    H8 5899   2.661   1.665   9.596  0.6584  0.5256  1.5759
   47CHL1   C14 5900   2.795   1.575   9.451  0.2382  0.7644 -0.4741
   47CHL1   H14 5901   2.875   1.498   9.445 -1.3985 -1.2264  1.6348
   47CHL1   C15 5902   2.863   1.698   9.398  0.3461 -0.0436 -0.2952
   47CHL1  H15A 5903   2.803   1.788   9.425 -1.4054 -0.7938 -1.5048
   47CHL1  H15B 5904   2.967   1.707   9.436  0.4042 -0.7427 -0.2881
   47CHL1   C16 5905   2.846   1.688   9.245  0.0849 -0.3140  0.2036
   47CHL1  H16A 5906   2.787   1.770   9.200 -0.0254 -0.2007  0.5445
   47CHL1  H16B 5907   2.947   1.683   9.198  0.6236  1.1139  1.1297
   47CHL1   C17 5908   2.781   1.550   9.214 -0.5907 -0.2125 -0.8629
   47CHL1   H17 5909   2.864   1.475   9.215  1.3311  1.8021  1.0615
   47CHL1   C13 5910   2.695   1.525   9.345 -0.2290  0.2632 -0.3716
   47CHL1   C18 5911   2.575   1.624   9.326 -0.3946  0.0443  0.5180
   47CHL1  H18A 5912   2.595   1.716   9.268 -2.5714 -0.0667 -0.5049
   47CHL1  H18B 5913   2.482   1.575   9.288 -2.3741  2.3991  1.9879
   47CHL1  H18C 5914   2.552   1.658   9.429  1.9349  0.7673  0.8474
   47CHL1   C12 5915   2.651   1.390   9.392 -0.0753 -0.6044  0.0600
   47CHL1  H12A 5916   2.574   1.354   9.321 -0.8199  1.6119 -0.3146
   47CHL1  H12B 5917   2.732   1.314   9.387 -2.5251 -3.3818 -0.3436
   47CHL1   C11 5918   2.589   1.396   9.533  0.5355 -0.5246  0.7261
   47CHL1  H11A 5919   2.495   1.455   9.534  1.7558  1.5479 -0.3919
   47CHL1  H11B 5920   2.575   1.292   9.569  3.8717 -1.0303  0.9341
   47CHL1    C9 5921   2.681   1.461   9.641  0.5275  0.0215  0.0500
   47CHL1    H9 5922   2.770   1.395   9.650  0.7035  0.4956  2.0921
   47CHL1   C10 5923   2.625   1.457   9.787  0.9449  0.1232  0.4985
   47CHL1   C19 5924   2.475   1.490   9.788  0.2984 -0.1172 -0.5788
   47CHL1  H19A 5925   2.410   1.407   9.752 -2.0493  0.9299  0.9720
   47CHL1  H19B 5926   2.443   1.506   9.893  0.4745 -0.7264 -0.4323
   47CHL1  H19C 5927   2.462   1.586   9.733  1.0553  0.1817 -0.2442
   47CHL1    C1 5928   2.646   1.322   9.860  0.7283 -0.3778 -0.0131
   47CHL1   H1A 5929   2.585   1.247   9.806 -2.3633  3.2347 -2.0478
   47CHL1   H1B 5930   2.751   1.289   9.845  0.1815 -1.6050 -1.2686
   47CHL1    C2 5931   2.608   1.319  10.008  0.8631  0.6254  0.2951
   47CHL1   H2A 5932   2.644   1.224  10.052  1.9120  1.1362  0.5692
   47CHL1   H2B 5933   2.499   1.337  10.020 -0.0709 -3.0528 -1.3254
   47CHL1   C20 5934   2.722   1.529   9.075  0.1691 -0.8371 -0.7501
   47CHL1   H20 5935   2.627   1.587   9.064 -0.6300 -1.7930  0.7395
   47CHL1   C21 5936   2.706   1.374   9.061  0.1656  0.6868  0.9230
   47CHL1  H21A 5937   2.802   1.318   9.066  1.0115  1.9369 -0.5215
   47CHL1  H21B 5938   2.683   1.359   8.953  2.2138  1.3275  0.3490
   47CHL1  H21C 5939   2.625   1.321   9.115  0.2683 -0.6953 -0.2040
   47CHL1   C22 5940   2.820   1.584   8.971  0.9237  0.2806  0.3968
   47CHL1  H22A 5941   2.808   1.694   8.963  0.0362  0.1176 -0.7874
   47CHL1  H22B 5942   2.929   1.562   8.978  0.6095 -1.9741 -0.7990
   47CHL1   C23 5943   2.765   1.541   8.828  0.1290 -0.4214  0.2171
   47CHL1  H23A 5944   2.792   1.435   8.809 -0.9686 -0.5013 -1.0506
   47CHL1  H23B 5945   2.654   1.542   8.834  0.1281  0.1810  0.1757
   47CHL1   C24 5946   2.813   1.626   8.717  0.6802 -0.1096  0.9033
   47CHL1  H24A 5947   2.756   1.597   8.627  2.3937  1.1365 -0.6451
   47CHL1  H24B 5948   2.779   1.727   8.749  1.0727  0.3690 -0.1514
   47CHL1   C25 5949   2.965   1.623   8.690 -0.1945 -0.2883  0.0609
   47CHL1   H25 5950   3.011   1.634   8.790 -0.5582 -1.4428  0.3744
   47CHL1   C26 5951   2.995   1.484   8.627 -0.8117 -0.0703  0.1411
   47CHL1  H26A 5952   3.098   1.483   8.585 -1.3032 -1.1860 -1.1018
   47CHL1  H26B 5953   2.928   1.464   8.541  1.2009  1.5766 -1.9700
   47CHL1  H26C 5954   2.985   1.402   8.700 -1.3007 -1.3941 -1.3669
   47CHL1   C27 5955   3.018   1.735   8.598 -0.2618 -0.0532 -0.4176
   47CHL1  H27A 5956   3.129   1.728   8.598 -0.1918  0.5809  1.0409
   47CHL1  H27B 5957   2.990   1.718   8.492 -2.0084  0.6165 -0.0976
   47CHL1  H27C 5958   2.979   1.833   8.635  1.2305  0.3961  0.0158
   48CHL1    C3 5959   4.430   1.729   9.989 -0.2879  0.1390 -0.2543
   48CHL1    H3 5960   4.388   1.832   9.980  0.4238  0.4653  0.1188
   48CHL1    O3 5961   4.433   1.683  10.127 -0.0605  0.2644 -0.7797
   48CHL1   H3' 5962   4.439   1.587  10.122 -2.0035  0.0587 -0.0885
   48CHL1    C4 5963   4.331   1.642   9.910  0.4941 -0.3642  0.0246
   48CHL1   H4A 5964   4.349   1.536   9.937 -0.1622 -0.2655  0.8916
   48CHL1   H4B 5965   4.231   1.666   9.951  0.1902  0.5223 -1.1711
   48CHL1    C5 5966   4.339   1.667   9.759 -0.2957 -0.3356  0.8897
   48CHL1    C6 5967   4.230   1.712   9.693 -0.3189  0.2885  0.1873
   48CHL1    H6 5968   4.138   1.726   9.751  0.3869  0.6065  1.2548
   48CHL1    C7 5969   4.222   1.732   9.552 -0.0930 -0.5098 -0.1567
   48CHL1   H7A 5970   4.138   1.675   9.507 -0.2859 -0.6728  0.3993
   48CHL1   H7B 5971   4.213   1.839   9.523 -1.9371 -0.8220 -0.8734
   48CHL1    C8 5972   4.344   1.670   9.475  0.7699  0.2591  0.1016
   48CHL1    H8 5973   4.331   1.560   9.482  0.7365  0.1316 -1.6539
   48CHL1   C14 5974   4.356   1.727   9.337  0.2192 -0.1031 -0.5281
   48CHL1   H14 5975   4.384   1.834   9.344 -2.7699  0.6684  2.5897
   48CHL1   C15 5976   4.219   1.721   9.252 -0.2409  0.0958 -0.3183
   48CHL1  H15A 5977   4.165   1.625   9.262 -0.3362  0.0995 -0.8037
   48CHL1  H15B 5978   4.152   1.802   9.288 -0.4137  0.3286 -1.1562
   48CHL1   C16 5979   4.274   1.737   9.112  0.9724  0.9513  0.2962
   48CHL1  H16A 5980   4.238   1.665   9.036  0.7234 -0.8132  1.9818
   48CHL1  H16B 5981   4.254   1.839   9.072 -0.7303  0.5466  0.0501
   48CHL1   C17 5982   4.424   1.721   9.116 -0.1345 -0.0176  0.4120
   48CHL1   H17 5983   4.453   1.828   9.117  0.1324  0.0541 -3.2308
   48CHL1   C13 5984   4.463   1.659   9.251  0.7670 -0.4377 -0.4472
   48CHL1   C18 5985   4.434   1.506   9.240  0.0655 -0.5250  0.0515
   48CHL1  H18A 5986   4.332   1.493   9.197  0.1292  0.9509 -0.5909
   48CHL1  H18B 5987   4.501   1.448   9.174 -1.9989 -0.9203 -1.8185
   48CHL1  H18C 5988   4.432   1.456   9.339  0.0791  0.7812  0.7353
   48CHL1   C12 5989   4.602   1.687   9.316 -0.0793 -0.3937 -0.2615
   48CHL1  H12A 5990   4.684   1.648   9.253  1.1237  2.6259 -0.7347
   48CHL1  H12B 5991   4.618   1.797   9.313  0.2678 -0.4080 -3.9863
   48CHL1   C11 5992   4.601   1.637   9.456 -0.7973  0.9179  0.1620
   48CHL1  H11A 5993   4.588   1.527   9.456  0.1058  0.8058 -0.3697
   48CHL1  H11B 5994   4.699   1.661   9.503 -0.9499  0.6144  0.6452
   48CHL1    C9 5995   4.477   1.688   9.541 -0.1934 -0.0297  0.0754
   48CHL1    H9 5996   4.496   1.798   9.547 -0.1323 -0.0186 -0.2823
   48CHL1   C10 5997   4.477   1.640   9.694  0.7497 -0.0369 -0.4618
   48CHL1   C19 5998   4.516   1.490   9.708  0.1832  0.5198  0.0793
   48CHL1  H19A 5999   4.471   1.438   9.795 -0.2336  0.3064 -0.2582
   48CHL1  H19B 6000   4.467   1.446   9.618 -0.5966 -0.1949  0.8190
   48CHL1  H19C 6001   4.627   1.491   9.703  0.3054 -0.1118  1.9447
   48CHL1    C1 6002   4.575   1.734   9.774 -0.0815  0.0245 -0.2072
   48CHL1   H1A 6003   4.678   1.711   9.737 -0.1817 -0.8540  0.0449
   48CHL1   H1B 6004   4.555   1.841   9.751 -0.1583 -0.5657 -3.3580
   48CHL1    C2 6005   4.571   1.708   9.928  0.9761  0.2526  0.3036
   48CHL1   H2A 6006   4.641   1.764   9.993 -1.1405  0.2970  2.6855
   48CHL1   H2B 6007   4.595   1.601   9.947  1.0537  0.1735 -0.2033
   48CHL1   C20 6008   4.490   1.660   8.989  0.8602 -0.7940 -0.7488
   48CHL1   H20 6009   4.468   1.551   8.989  0.7489 -0.8412  2.1316
   48CHL1   C21 6010   4.643   1.683   8.991 -0.3413  0.3023  0.3968
   48CHL1  H21A 6011   4.666   1.787   9.023 -0.2145 -0.4968  3.1002
   48CHL1  H21B 6012   4.699   1.658   8.898 -0.8762 -0.0176  0.1575
   48CHL1  H21C 6013   4.675   1.605   9.064  0.6895 -0.5368 -0.8979
   48CHL1   C22 6014   4.445   1.725   8.852 -0.5529  0.6390  0.0128
   48CHL1  H22A 6015   4.514   1.675   8.780 -1.7753 -0.1892 -0.6075
   48CHL1  H22B 6016   4.340   1.702   8.827 -0.8519  1.6652  0.2841
   48CHL1   C23 6017   4.468   1.878   8.843  0.0638 -0.4167 -0.1870
   48CHL1  H23A 6018   4.421   1.923   8.933 -1.6516  0.4070 -1.4452
   48CHL1  H23B 6019   4.577   1.893   8.852 -0.0678  0.3455  0.2757
   48CHL1   C24 6020   4.411   1.933   8.718 -0.1074 -0.1475 -1.0118
   48CHL1  H24A 6021   4.464   1.890   8.630  1.1705 -1.5823  0.4080
   48CHL1  H24B 6022   4.304   1.903   8.713  0.0219 -1.2597  1.4206
   48CHL1   C25 6023   4.434   2.085   8.713  0.4596  0.4385 -0.7679
   48CHL1   H25 6024   4.367   2.131   8.790 -0.7516  1.3021 -2.2889
   48CHL1   C26 6025   4.579   2.132   8.745 -0.1601  0.6862  0.0388
   48CHL1  H26A 6026   4.599   2.115   8.853 -3.6100  3.0778  1.2500
   48CHL1  H26B 6027   4.655   2.088   8.677 -0.5339 -0.6607  0.4715
   48CHL1  H26C 6028   4.591   2.242   8.733 -0.2551  0.8007  0.9087
   48CHL1   C27 6029   4.391   2.140   8.580 -0.2513 -0.8385  0.3186
   48CHL1  H27A 6030   4.284   2.121   8.554 -0.4299  2.4594 -1.9889
   48CHL1  H27B 6031   4.401   2.251   8.582  1.5980 -0.9869  0.4370
   48CHL1  H27C 6032   4.453   2.109   8.494 -1.6016  2.6403 -2.1408
   49CHL1    C3 6033   3.326   3.223  10.213 -0.2777 -0.1608  0.9339
   49CHL1    H3 6034   3.421   3.180  10.175 -0.3336  0.5219 -0.0288
   49CHL1    O3 6035   3.299   3.194  10.348 -0.3959 -0.0661 -0.0997
   49CHL1   H3' 6036   3.219   3.241  10.372 -0.6127 -1.3028  1.8850
   49CHL1    C4 6037   3.333   3.371  10.178  0.4308 -0.4703 -0.6323
   49CHL1   H4A 6038   3.243   3.417  10.223  1.4589  2.6770 -1.5028
   49CHL1   H4B 6039   3.411   3.420  10.240 -0.5791 -2.0427  2.0428
   49CHL1    C5 6040   3.339   3.396  10.033 -0.0657 -0.2085  0.0467
   49CHL1    C6 6041   3.438   3.477   9.987  0.5747  0.2938  0.7181
   49CHL1    H6 6042   3.497   3.541  10.053  0.9330 -0.9727  1.6647
   49CHL1    C7 6043   3.466   3.483   9.838 -1.1713 -0.1356 -0.7719
   49CHL1   H7A 6044   3.515   3.579   9.811 -0.0048 -0.1010  1.2657
   49CHL1   H7B 6045   3.528   3.399   9.800 -2.9767 -1.3302 -1.2011
   49CHL1    C8 6046   3.333   3.468   9.756  0.0196  0.0178  0.2092
   49CHL1    H8 6047   3.259   3.541   9.796 -1.1252 -1.8537  1.6939
   49CHL1   C14 6048   3.360   3.477   9.609  0.5734  0.0579  0.3365
   49CHL1   H14 6049   3.414   3.384   9.582  0.9386  1.0727 -2.8605
   49CHL1   C15 6050   3.446   3.590   9.551  0.0666  0.3540 -0.2825
   49CHL1  H15A 6051   3.423   3.686   9.604 -0.1598 -0.9951  2.2528
   49CHL1  H15B 6052   3.555   3.575   9.541 -0.1231 -0.5241 -1.1570
   49CHL1   C16 6053   3.395   3.602   9.410  0.2485  0.2132  0.7598
   49CHL1  H16A 6054   3.335   3.694   9.391  1.5747  0.7659 -1.0807
   49CHL1  H16B 6055   3.478   3.604   9.336  2.2789 -1.1351  2.9064
   49CHL1   C17 6056   3.295   3.486   9.381 -0.1135 -0.2131 -0.1834
   49CHL1   H17 6057   3.350   3.394   9.354 -1.5476 -1.3150  0.5300
   49CHL1   C13 6058   3.233   3.459   9.517 -0.5994  0.3965 -0.0883
   49CHL1   C18 6059   3.135   3.566   9.552  0.1756 -1.1048 -0.0586
   49CHL1  H18A 6060   3.040   3.539   9.501 -0.0869 -1.3065  0.5209
   49CHL1  H18B 6061   3.113   3.587   9.659 -0.4750 -0.5719 -0.2928
   49CHL1  H18C 6062   3.158   3.667   9.511  0.2898 -0.9107  0.4781
   49CHL1   C12 6063   3.177   3.320   9.544  0.1201 -0.0845  0.2484
   49CHL1  H12A 6064   3.083   3.300   9.489  1.8195 -2.8844 -1.8898
   49CHL1  H12B 6065   3.245   3.240   9.508 -0.9730 -0.3614 -1.3038
   49CHL1   C11 6066   3.138   3.312   9.698 -0.1770 -0.4438 -0.0296
   49CHL1  H11A 6067   3.061   3.387   9.728 -0.2577 -0.6553  0.2968
   49CHL1  H11B 6068   3.093   3.211   9.711 -0.0277 -0.5813 -0.5591
   49CHL1    C9 6069   3.261   3.333   9.793 -0.0819  0.3600  0.0172
   49CHL1    H9 6070   3.335   3.255   9.768 -0.2888 -0.0663  0.7126
   49CHL1   C10 6071   3.232   3.321   9.947 -0.1055  0.6007  0.2517
   49CHL1   C19 6072   3.101   3.396   9.977  0.1749 -0.4294 -0.3580
   49CHL1  H19A 6073   3.013   3.342   9.937 -0.0515 -0.3401  0.0236
   49CHL1  H19B 6074   3.077   3.405  10.085  0.4564  1.4923 -0.4312
   49CHL1  H19C 6075   3.106   3.503   9.948  2.0754 -0.9262 -2.1057
   49CHL1    C1 6076   3.219   3.174   9.987 -0.3786 -0.2357 -0.3857
   49CHL1   H1A 6077   3.132   3.135   9.932 -0.6866  2.6380 -2.1470
   49CHL1   H1B 6078   3.304   3.107   9.962 -0.1224 -1.2574  2.6997
   49CHL1    C2 6079   3.208   3.158  10.142 -0.0744 -0.1230 -0.0488
   49CHL1   H2A 6080   3.203   3.051  10.172  0.0313 -0.5237 -1.3698
   49CHL1   H2B 6081   3.116   3.208  10.176 -0.4574  0.3068 -1.6300
   49CHL1   C20 6082   3.209   3.510   9.257  0.6611  0.0912  0.0937
   49CHL1   H20 6083   3.147   3.601   9.257  0.4963 -0.0114 -0.7846
   49CHL1   C21 6084   3.101   3.399   9.243  0.1141  0.4135 -0.7509
   49CHL1  H21A 6085   3.138   3.295   9.259 -0.6574 -0.0926 -2.0427
   49CHL1  H21B 6086   3.057   3.402   9.141 -0.6391  0.8279 -0.4217
   49CHL1  H21C 6087   3.015   3.409   9.312 -3.0144 -1.0076 -4.1225
   49CHL1   C22 6088   3.292   3.514   9.128  0.5844 -0.5234  0.3739
   49CHL1  H22A 6089   3.370   3.593   9.138  0.2376  0.2940 -2.5226
   49CHL1  H22B 6090   3.338   3.414   9.114  0.9423 -0.4695  1.0932
   49CHL1   C23 6091   3.217   3.550   8.999  0.0285  0.0983 -0.1845
   49CHL1  H23A 6092   3.146   3.469   8.974  0.5290 -1.3197  2.6481
   49CHL1  H23B 6093   3.163   3.645   9.019 -2.4618 -1.5250  1.3250
   49CHL1   C24 6094   3.309   3.564   8.878 -0.9143  0.2371  0.6509
   49CHL1  H24A 6095   3.366   3.658   8.894 -1.7027  0.5559  1.6598
   49CHL1  H24B 6096   3.374   3.474   8.872  1.1269  1.6534  0.6831
   49CHL1   C25 6097   3.235   3.578   8.743  0.3453  0.1237  0.5504
   49CHL1   H25 6098   3.174   3.486   8.730 -2.1485  1.8284 -0.6952
   49CHL1   C26 6099   3.147   3.705   8.730  0.9099  0.2450  0.0759
   49CHL1  H26A 6100   3.060   3.705   8.799  0.3667  0.5135 -0.5873
   49CHL1  H26B 6101   3.208   3.794   8.757  1.8667 -0.2018 -0.5506
   49CHL1  H26C 6102   3.107   3.720   8.627 -0.6158  3.6090  1.0245
   49CHL1   C27 6103   3.343   3.574   8.631 -0.6647  0.2446  0.8720
   49CHL1  H27A 6104   3.295   3.573   8.531  2.0176  0.3261 -0.5054
   49CHL1  H27B 6105   3.421   3.654   8.630  1.1926 -1.4775 -0.6514
   49CHL1  H27C 6106   3.390   3.474   8.620 -3.0624 -0.6531 -2.7613
   50CHL1    C3 6107   5.834   1.186  10.027 -0.2833  0.0683 -0.7054
   50CHL1    H3 6108   5.922   1.243   9.990 -0.5216  0.7477 -0.2401
   50CHL1    O3 6109   5.848   1.166  10.166 -0.4281 -0.2986 -0.3666
   50CHL1   H3' 6110   5.762   1.159  10.209  1.5681 -1.7360  3.9342
   50CHL1    C4 6111   5.706   1.260   9.989 -0.2283 -0.0215  0.2161
   50CHL1   H4A 6112   5.614   1.208  10.024  1.5683 -3.8590 -0.2977
   50CHL1   H4B 6113   5.705   1.359  10.039  0.1103  0.2617 -0.3329
   50CHL1    C5 6114   5.701   1.272   9.840  0.2244 -0.3290  0.1105
   50CHL1    C6 6115   5.699   1.390   9.778 -0.0619  0.1824  0.3791
   50CHL1    H6 6116   5.687   1.483   9.835  0.4073  0.8017 -0.5284
   50CHL1    C7 6117   5.688   1.423   9.636 -0.0363  0.2085  0.4282
   50CHL1   H7A 6118   5.608   1.500   9.634 -1.1677 -0.9172  0.5591
   50CHL1   H7B 6119   5.777   1.484   9.612 -1.2378  1.2050 -1.7700
   50CHL1    C8 6120   5.661   1.295   9.546  0.2318  0.6844 -0.6002
   50CHL1    H8 6121   5.552   1.282   9.564  0.4652  0.8844  1.2437
   50CHL1   C14 6122   5.697   1.317   9.409  0.1710 -0.4328  0.0002
   50CHL1   H14 6123   5.808   1.323   9.408  0.2522 -1.8185 -0.6155
   50CHL1   C15 6124   5.651   1.451   9.342  0.2149  0.3579  0.1719
   50CHL1  H15A 6125   5.542   1.469   9.342  0.3763  1.4421 -0.6060
   50CHL1  H15B 6126   5.708   1.539   9.380  1.2909 -0.2047 -0.1002
   50CHL1   C16 6127   5.696   1.426   9.201  0.2629 -0.1601  0.6014
   50CHL1  H16A 6128   5.618   1.469   9.134  0.2123  0.0439  0.7875
   50CHL1  H16B 6129   5.789   1.476   9.165  0.2952 -0.7889 -0.2321
   50CHL1   C17 6130   5.727   1.268   9.181 -0.1159 -0.4085 -0.4917
   50CHL1   H17 6131   5.838   1.257   9.178 -0.3130 -2.4683 -1.9869
   50CHL1   C13 6132   5.674   1.201   9.312  0.0626 -0.2414 -0.2819
   50CHL1   C18 6133   5.528   1.181   9.290 -0.5336  1.0543 -0.4149
   50CHL1  H18A 6134   5.476   1.150   9.384  0.0867  0.6064 -0.2147
   50CHL1  H18B 6135   5.472   1.263   9.241 -2.8744 -1.5567 -2.4186
   50CHL1  H18C 6136   5.498   1.102   9.218  1.7097  0.3368 -0.6206
   50CHL1   C12 6137   5.758   1.085   9.361  0.2624 -0.5348 -0.6874
   50CHL1  H12A 6138   5.742   0.992   9.301  1.2700 -0.0708 -1.7253
   50CHL1  H12B 6139   5.865   1.114   9.360  0.1830 -0.2474 -0.7350
   50CHL1   C11 6140   5.743   1.052   9.515 -0.1326 -0.6678 -0.1284
   50CHL1  H11A 6141   5.643   1.006   9.530 -0.2934 -0.3570 -0.2545
   50CHL1  H11B 6142   5.814   0.971   9.542 -0.4660 -0.8283  0.2821
   50CHL1    C9 6143   5.745   1.177   9.603  0.2760 -0.3075 -0.8375
   50CHL1    H9 6144   5.847   1.223   9.599 -0.4649  1.6487  0.6545
   50CHL1   C10 6145   5.714   1.140   9.753 -0.6960  0.1984  0.4984
   50CHL1   C19 6146   5.584   1.054   9.760 -0.4217  0.2667 -1.1782
   50CHL1  H19A 6147   5.610   0.948   9.739 -0.3793  0.4324 -2.0012
   50CHL1  H19B 6148   5.545   1.060   9.863 -1.8202  0.9169 -1.7180
   50CHL1  H19C 6149   5.516   1.090   9.679 -1.4418 -0.0112 -0.4570
   50CHL1    C1 6150   5.834   1.059   9.816  0.4008 -0.1607  0.4752
   50CHL1   H1A 6151   5.840   0.954   9.782  0.5559  0.3007 -1.0037
   50CHL1   H1B 6152   5.927   1.118   9.799 -0.1143  0.3446 -0.6619
   50CHL1    C2 6153   5.829   1.048   9.966  0.1446  0.0098  0.2110
   50CHL1   H2A 6154   5.917   0.988   9.998  0.6269 -0.2353 -1.4782
   50CHL1   H2B 6155   5.739   0.995  10.005  1.3001 -3.2505 -1.1797
   50CHL1   C20 6156   5.686   1.205   9.042 -0.1006  0.5958  0.4173
   50CHL1   H20 6157   5.574   1.207   9.043 -0.3237 -3.6874  0.3648
   50CHL1   C21 6158   5.731   1.051   9.037  0.1609  0.0064 -0.0101
   50CHL1  H21A 6159   5.722   1.017   8.932 -1.2452 -1.8930  0.6696
   50CHL1  H21B 6160   5.659   0.999   9.104 -0.0530  2.1244  1.5378
   50CHL1  H21C 6161   5.835   1.033   9.072 -0.7658 -1.7391  2.0899
   50CHL1   C22 6162   5.743   1.282   8.917  0.0246  0.4469 -0.4690
   50CHL1  H22A 6163   5.689   1.251   8.824 -1.0654 -0.2556  0.3720
   50CHL1  H22B 6164   5.719   1.389   8.934 -2.9139 -0.2040  0.0713
   50CHL1   C23 6165   5.897   1.261   8.896 -0.2570  0.2771  0.2922
   50CHL1  H23A 6166   5.937   1.242   8.998  1.2780  0.0132 -0.3376
   50CHL1  H23B 6167   5.911   1.174   8.829  0.3562  2.6706 -2.9582
   50CHL1   C24 6168   5.968   1.390   8.834 -0.1349 -0.2488 -0.1894
   50CHL1  H24A 6169   5.939   1.386   8.726 -1.8892 -2.2498  0.2733
   50CHL1  H24B 6170   5.919   1.479   8.878 -1.0941 -1.9135  2.3143
   50CHL1   C25 6171   6.123   1.395   8.848 -0.4450  0.3010  0.0300
   50CHL1   H25 6172   6.161   1.291   8.863  1.2809  0.8654 -0.1927
   50CHL1   C26 6173   6.188   1.457   8.729  0.2439 -0.1187  0.1539
   50CHL1  H26A 6174   6.142   1.556   8.708 -2.2761 -1.1899  0.2118
   50CHL1  H26B 6175   6.299   1.459   8.739  0.1699 -1.1839  1.5497
   50CHL1  H26C 6176   6.166   1.394   8.640  2.7088 -0.3109 -0.3851
   50CHL1   C27 6177   6.165   1.466   8.981 -0.1942  0.3417  0.1097
   50CHL1  H27A 6178   6.120   1.568   8.984 -0.7438  0.0914  0.5319
   50CHL1  H27B 6179   6.127   1.404   9.065 -2.1121  2.1706  0.7006
   50CHL1  H27C 6180   6.276   1.466   8.981 -0.0434 -3.5320 -1.0989
   51CHL1    C3 6181   6.036   3.195  10.246  0.0999 -0.0574 -0.4718
   51CHL1    H3 6182   6.107   3.111  10.261  1.0553  0.9521  1.0115
   51CHL1    O3 6183   5.968   3.205  10.375  0.0461 -0.0430 -0.0755
   51CHL1   H3' 6184   6.041   3.236  10.429 -0.5304  0.1296  0.6279
   51CHL1    C4 6185   6.107   3.325  10.210  0.2131 -0.7924  0.3357
   51CHL1   H4A 6186   6.025   3.400  10.208  1.0328  0.1515  1.1521
   51CHL1   H4B 6187   6.176   3.354  10.292  1.5998  1.7557 -1.5975
   51CHL1    C5 6188   6.176   3.311  10.079 -0.2178 -0.3396  0.3410
   51CHL1    C6 6189   6.310   3.319  10.072  0.6599 -0.1409 -0.4146
   51CHL1    H6 6190   6.377   3.335  10.158  0.7333 -0.2654 -0.4496
   51CHL1    C7 6191   6.392   3.314   9.948 -0.1858 -0.5604  0.3887
   51CHL1   H7A 6192   6.479   3.382   9.940 -0.2374 -0.4555  0.7164
   51CHL1   H7B 6193   6.430   3.210   9.942 -1.2072 -0.8886 -1.1516
   51CHL1    C8 6194   6.296   3.326   9.823 -0.3140 -0.4256 -0.0955
   51CHL1    H8 6195   6.260   3.431   9.816 -1.6099 -0.9556 -2.6042
   51CHL1   C14 6196   6.377   3.304   9.694  0.0440  0.1551 -0.0298
   51CHL1   H14 6197   6.416   3.201   9.708  2.8333  1.3880  2.2970
   51CHL1   C15 6198   6.499   3.390   9.653  0.2840 -0.7470  0.1680
   51CHL1  H15A 6199   6.465   3.495   9.666 -2.2320 -1.3801 -0.7308
   51CHL1  H15B 6200   6.584   3.366   9.721  0.4892  0.6097  0.4166
   51CHL1   C16 6201   6.530   3.350   9.509  0.4406  0.2418 -0.2051
   51CHL1  H16A 6202   6.551   3.440   9.447 -2.7727  0.0389 -1.8035
   51CHL1  H16B 6203   6.620   3.284   9.508  1.4550  1.4696  2.3457
   51CHL1   C17 6204   6.407   3.268   9.456  0.6007  0.8754 -0.1951
   51CHL1   H17 6205   6.437   3.161   9.449 -0.0436  0.7204 -0.6790
   51CHL1   C13 6206   6.298   3.293   9.560  0.5951  0.4485  0.3575
   51CHL1   C18 6207   6.232   3.421   9.519 -0.1174 -0.3683  0.3711
   51CHL1  H18A 6208   6.198   3.472   9.612 -1.4862 -2.3705  1.0343
   51CHL1  H18B 6209   6.303   3.492   9.470 -0.4208 -2.2182 -3.0539
   51CHL1  H18C 6210   6.147   3.403   9.450  0.3516  2.7966 -1.2177
   51CHL1   C12 6211   6.188   3.191   9.579 -0.4474  0.0407  0.7269
   51CHL1  H12A 6212   6.119   3.190   9.492  0.1789  1.5134  0.1812
   51CHL1  H12B 6213   6.229   3.089   9.592 -1.6194 -0.7019 -1.0443
   51CHL1   C11 6214   6.103   3.224   9.699  0.3081  0.9374 -0.2321
   51CHL1  H11A 6215   6.047   3.318   9.680 -3.0844 -0.4094  1.9944
   51CHL1  H11B 6216   6.023   3.147   9.707 -2.4574  3.6343  0.3220
   51CHL1    C9 6217   6.182   3.233   9.835  0.4381  0.2185  1.0375
   51CHL1    H9 6218   6.222   3.131   9.853 -1.0696 -0.3972  1.0782
   51CHL1   C10 6219   6.089   3.275   9.958  0.0545  0.9124 -0.0588
   51CHL1   C19 6220   5.996   3.396   9.916  0.6695 -0.3308  0.3518
   51CHL1  H19A 6221   5.933   3.384   9.825  0.3821 -1.3564  0.6775
   51CHL1  H19B 6222   5.925   3.430   9.994 -1.3275  0.5138 -1.7259
   51CHL1  H19C 6223   6.065   3.482   9.902  0.8765 -0.8416 -2.3362
   51CHL1    C1 6224   5.997   3.153   9.998 -0.2189 -0.1298 -0.6675
   51CHL1   H1A 6225   5.912   3.148   9.927 -0.6051  0.4919 -0.2589
   51CHL1   H1B 6226   6.054   3.058   9.989  0.8137  0.4469 -0.3927
   51CHL1    C2 6227   5.931   3.164  10.139  1.3805  0.1714  0.6155
   51CHL1   H2A 6228   5.881   3.071  10.175  0.6128  0.9707  1.6534
   51CHL1   H2B 6229   5.848   3.238  10.137  2.9091  2.0374 -2.9331
   51CHL1   C20 6230   6.386   3.295   9.301 -0.3321 -1.0034 -0.4409
   51CHL1   H20 6231   6.371   3.405   9.291 -0.2420 -0.5099  3.2974
   51CHL1   C21 6232   6.261   3.233   9.243 -0.3140 -1.1779  0.0450
   51CHL1  H21A 6233   6.177   3.291   9.286 -1.7057 -2.5175 -0.7632
   51CHL1  H21B 6234   6.248   3.125   9.267  0.0339 -1.5388 -1.2944
   51CHL1  H21C 6235   6.256   3.243   9.132 -2.8916  2.2078  0.3234
   51CHL1   C22 6236   6.509   3.252   9.208 -0.3778 -0.1321  0.3242
   51CHL1  H22A 6237   6.596   3.293   9.263 -0.0364  0.2409 -0.4863
   51CHL1  H22B 6238   6.515   3.141   9.218  0.2546 -0.1585 -0.2727
   51CHL1   C23 6239   6.515   3.291   9.060 -0.0271  0.6404  0.1546
   51CHL1  H23A 6240   6.438   3.237   9.001  1.1588  1.2626 -2.1156
   51CHL1  H23B 6241   6.487   3.398   9.046  0.4623  0.6503 -0.9183
   51CHL1   C24 6242   6.652   3.271   9.005 -0.0456 -0.5319  0.3790
   51CHL1  H24A 6243   6.725   3.324   9.070 -0.2930  1.1457 -0.6418
   51CHL1  H24B 6244   6.681   3.164   9.014 -1.3290 -0.8282  1.1973
   51CHL1   C25 6245   6.658   3.330   8.859  0.0977  0.2803 -0.2470
   51CHL1   H25 6246   6.615   3.431   8.869 -1.6009 -0.4022 -0.4105
   51CHL1   C26 6247   6.799   3.331   8.795  0.3637 -0.1004  0.1596
   51CHL1  H26A 6248   6.854   3.419   8.834  0.3424  0.2168 -0.5085
   51CHL1  H26B 6249   6.854   3.236   8.812 -1.2086 -0.9224  0.8697
   51CHL1  H26C 6250   6.784   3.342   8.685  0.7413 -0.5779  0.0553
   51CHL1   C27 6251   6.566   3.258   8.760  1.0701 -0.2130  0.1430
   51CHL1  H27A 6252   6.565   3.308   8.661 -1.0616  1.0644  0.7604
   51CHL1  H27B 6253   6.612   3.158   8.741  2.2810  0.6844 -2.0369
   51CHL1  H27C 6254   6.464   3.263   8.803  0.9798  1.8799 -0.2322
   52CHL1    C3 6255   2.346   0.907  10.164 -0.6306  0.2198  0.2161
   52CHL1    H3 6256   2.262   0.974  10.136 -0.1494  0.5529 -0.4621
   52CHL1    O3 6257   2.360   0.892  10.301 -0.1843  0.2552 -0.3820
   52CHL1   H3' 6258   2.294   0.827  10.326 -0.2686  0.0449 -1.1463
   52CHL1    C4 6259   2.320   0.768  10.099  0.0585  0.1910 -0.3865
   52CHL1   H4A 6260   2.405   0.702  10.128  0.8351  1.2268 -0.2646
   52CHL1   H4B 6261   2.225   0.727  10.141 -0.5793  0.3906 -1.5886
   52CHL1    C5 6262   2.312   0.772   9.947  0.1995  0.0415 -0.2988
   52CHL1    C6 6263   2.199   0.735   9.883 -0.1976  0.0666 -0.2754
   52CHL1    H6 6264   2.105   0.718   9.937 -0.1858  0.1944 -0.2158
   52CHL1    C7 6265   2.189   0.733   9.731  1.1573  0.1321  0.2873
   52CHL1   H7A 6266   2.138   0.638   9.704  0.4360 -0.1290  2.4010
   52CHL1   H7B 6267   2.126   0.817   9.695  1.5355  0.0271 -0.6502
   52CHL1    C8 6268   2.327   0.757   9.666  0.5105 -0.2813  0.0516
   52CHL1    H8 6269   2.386   0.663   9.676  1.3892  0.3635  1.3276
   52CHL1   C14 6270   2.313   0.797   9.520  0.1714 -0.0825  0.3439
   52CHL1   H14 6271   2.256   0.893   9.522 -0.6176 -0.5484  0.5011
   52CHL1   C15 6272   2.222   0.706   9.434  0.8120 -0.2480 -0.1257
   52CHL1  H15A 6273   2.256   0.604   9.461  0.6780 -0.3230 -0.2412
   52CHL1  H15B 6274   2.114   0.720   9.458  0.4650 -0.8664 -1.2564
   52CHL1   C16 6275   2.245   0.749   9.293 -0.3378  0.6783  0.3329
   52CHL1  H16A 6276   2.266   0.665   9.222  1.7929 -0.2469  1.9426
   52CHL1  H16B 6277   2.163   0.802   9.241  0.5378  0.0759 -1.7911
   52CHL1   C17 6278   2.374   0.844   9.297  0.2239  1.1268  1.4198
   52CHL1   H17 6279   2.328   0.944   9.302  1.2031  1.5676  1.9096
   52CHL1   C13 6280   2.442   0.822   9.440  0.3940 -0.6359 -0.0328
   52CHL1   C18 6281   2.527   0.695   9.430 -0.5056 -0.1459 -1.1290
   52CHL1  H18A 6282   2.626   0.717   9.384 -0.4820 -0.3677 -1.1879
   52CHL1  H18B 6283   2.545   0.663   9.535 -0.1506 -1.9384 -1.7016
   52CHL1  H18C 6284   2.468   0.617   9.377 -1.3756  1.8393 -3.2316
   52CHL1   C12 6285   2.506   0.945   9.506 -0.1177  0.7560 -0.2603
   52CHL1  H12A 6286   2.598   0.973   9.450 -0.5563 -2.3938 -2.8878
   52CHL1  H12B 6287   2.434   1.030   9.506  0.7269  1.4987  0.7394
   52CHL1   C11 6288   2.538   0.916   9.655  0.1938  0.1212 -0.0092
   52CHL1  H11A 6289   2.625   0.847   9.658 -0.6537 -0.9474  2.0690
   52CHL1  H11B 6290   2.571   1.013   9.698 -0.4536  0.5985 -0.5742
   52CHL1    C9 6291   2.408   0.867   9.732  0.0903 -0.0829  0.0290
   52CHL1    H9 6292   2.341   0.955   9.730  1.0112  0.6321 -0.2041
   52CHL1   C10 6293   2.441   0.830   9.876 -0.5732 -0.8722 -0.2448
   52CHL1   C19 6294   2.561   0.729   9.888  0.0609 -0.0351 -0.0160
   52CHL1  H19A 6295   2.655   0.788   9.883  0.3294 -0.4386  0.2827
   52CHL1  H19B 6296   2.567   0.686   9.990  0.2614 -1.0938 -0.4635
   52CHL1  H19C 6297   2.552   0.649   9.811 -0.7065 -0.8227  0.8730
   52CHL1    C1 6298   2.482   0.962   9.950  0.3268  0.3578 -0.0714
   52CHL1   H1A 6299   2.588   0.988   9.928  2.2681 -2.6735  4.1924
   52CHL1   H1B 6300   2.413   1.043   9.919 -1.0236 -0.7872 -0.1599
   52CHL1    C2 6301   2.477   0.963  10.106  0.0472  0.1247  0.3657
   52CHL1   H2A 6302   2.506   1.065  10.137  1.6113 -0.0162 -0.5532
   52CHL1   H2B 6303   2.555   0.892  10.142 -0.8950 -0.6845  0.8944
   52CHL1   C20 6304   2.456   0.831   9.163  0.2860 -0.2864 -0.2031
   52CHL1   H20 6305   2.520   0.741   9.167  1.6100  0.6532  0.4999
   52CHL1   C21 6306   2.556   0.950   9.169 -0.1645 -0.3419 -0.7120
   52CHL1  H21A 6307   2.607   0.946   9.071 -0.6443 -2.0430 -0.9153
   52CHL1  H21B 6308   2.631   0.938   9.250 -1.2069  1.7724  0.6896
   52CHL1  H21C 6309   2.501   1.046   9.180 -2.1235 -1.6814  3.5174
   52CHL1   C22 6310   2.373   0.840   9.028  0.1813  0.9512  0.1509
   52CHL1  H22A 6311   2.438   0.835   8.938 -0.2669  2.8974 -0.3361
   52CHL1  H22B 6312   2.303   0.754   9.023  0.3706  0.8516 -1.2274
   52CHL1   C23 6313   2.292   0.968   9.006 -0.2766  0.8624 -0.2937
   52CHL1  H23A 6314   2.232   0.991   9.097  0.9109 -0.3019  0.8316
   52CHL1  H23B 6315   2.361   1.054   8.999 -0.0051  0.6160 -0.7068
   52CHL1   C24 6316   2.197   0.943   8.892 -0.6853 -0.1298 -0.4136
   52CHL1  H24A 6317   2.259   0.935   8.800  1.9566  3.5234  0.8190
   52CHL1  H24B 6318   2.141   0.851   8.919  0.9921 -1.2287 -0.5009
   52CHL1   C25 6319   2.089   1.046   8.865  0.1791 -0.1910 -0.2152
   52CHL1   H25 6320   2.046   1.096   8.954 -0.2237  1.4273 -1.2785
   52CHL1   C26 6321   2.160   1.156   8.792  0.4065  0.0791  0.7064
   52CHL1  H26A 6322   2.219   1.215   8.866  0.3666 -0.1469  0.9199
   52CHL1  H26B 6323   2.230   1.110   8.720 -0.6476  0.0852 -0.3457
   52CHL1  H26C 6324   2.095   1.230   8.740  2.8555  1.5107 -0.5145
   52CHL1   C27 6325   1.976   0.984   8.779  0.0816  0.4705  0.2374
   52CHL1  H27A 6326   1.967   1.047   8.689 -1.1346  0.6023  0.4298
   52CHL1  H27B 6327   1.996   0.882   8.739 -1.5759 -0.0119  0.5571
   52CHL1  H27C 6328   1.890   0.968   8.848  0.1964  0.2363  0.3298
   53CHL1    C3 6329   4.296   2.201  10.149 -0.0968 -0.0715 -0.0132
   53CHL1    H3 6330   4.325   2.305  10.174 -0.8466 -0.2988  1.9833
   53CHL1    O3 6331   4.277   2.139  10.278 -0.6766 -0.3365  0.4822
   53CHL1   H3' 6332   4.333   2.061  10.279  1.9791  1.3724 -1.1588
   53CHL1    C4 6333   4.154   2.185  10.080  0.4390  0.1483 -0.2370
   53CHL1   H4A 6334   4.113   2.084  10.101  1.7607 -0.1465  1.1053
   53CHL1   H4B 6335   4.094   2.247  10.150  1.6623 -0.0089  0.9792
   53CHL1    C5 6336   4.144   2.235   9.938 -0.2940  0.3992 -0.2958
   53CHL1    C6 6337   4.050   2.312   9.888  0.0924  0.0940  0.2324
   53CHL1    H6 6338   3.973   2.355   9.955 -1.0743 -2.6849  0.8213
   53CHL1    C7 6339   4.038   2.347   9.742 -0.1641 -0.1017  0.1361
   53CHL1   H7A 6340   3.935   2.328   9.705  0.6221 -0.5162 -1.9763
   53CHL1   H7B 6341   4.064   2.455   9.731  2.0252 -0.7929 -3.0964
   53CHL1    C8 6342   4.138   2.266   9.656  0.1256  0.0467  1.0506
   53CHL1    H8 6343   4.090   2.166   9.651  1.1677 -0.5405  2.1721
   53CHL1   C14 6344   4.146   2.327   9.520 -0.6643 -0.4467 -0.4380
   53CHL1   H14 6345   4.191   2.427   9.538  2.9903 -2.2815  1.7966
   53CHL1   C15 6346   4.016   2.358   9.447 -0.2047  0.0846 -0.0964
   53CHL1  H15A 6347   3.950   2.272   9.425  1.1866 -1.1776  0.5549
   53CHL1  H15B 6348   3.956   2.437   9.498  1.4057  0.7683  0.8133
   53CHL1   C16 6349   4.060   2.410   9.315 -0.2208 -0.0417  0.4122
   53CHL1  H16A 6350   3.987   2.398   9.233  0.2271  0.0868 -0.0090
   53CHL1  H16B 6351   4.069   2.520   9.321  0.9448 -0.1008  0.0666
   53CHL1   C17 6352   4.204   2.346   9.290  0.3277 -0.0733 -0.5763
   53CHL1   H17 6353   4.272   2.434   9.301 -1.5461  1.2359  1.2070
   53CHL1   C13 6354   4.233   2.261   9.413 -0.4074 -0.4158 -0.1212
   53CHL1   C18 6355   4.180   2.114   9.400  0.3701  0.9044  0.6623
   53CHL1  H18A 6356   4.144   2.071   9.496  3.6835  0.7779  1.9838
   53CHL1  H18B 6357   4.100   2.105   9.324  0.4836 -1.8484  0.7668
   53CHL1  H18C 6358   4.261   2.043   9.373 -2.2385 -1.5777 -1.2370
   53CHL1   C12 6359   4.377   2.268   9.471  0.3942 -0.5339 -0.1366
   53CHL1  H12A 6360   4.445   2.219   9.399  1.0936 -0.5234  0.5039
   53CHL1  H12B 6361   4.407   2.374   9.477 -0.6552 -0.0385 -2.5877
   53CHL1   C11 6362   4.385   2.215   9.615  0.1103  0.2695 -0.7267
   53CHL1  H11A 6363   4.395   2.105   9.609  1.6114  0.4361 -1.6881
   53CHL1  H11B 6364   4.482   2.255   9.651 -0.6654  1.1058  0.5101
   53CHL1    C9 6365   4.274   2.250   9.716  0.5076 -0.3595  0.6662
   53CHL1    H9 6366   4.302   2.353   9.746 -1.8928  0.6206 -0.1479
   53CHL1   C10 6367   4.267   2.183   9.853  0.4443  0.5162 -0.7967
   53CHL1   C19 6368   4.242   2.025   9.825  0.3788  0.6678  0.4843
   53CHL1  H19A 6369   4.183   2.008   9.733 -0.2310 -2.4677  1.3470
   53CHL1  H19B 6370   4.340   1.980   9.798 -0.5609 -0.7553 -0.6499
   53CHL1  H19C 6371   4.207   1.962   9.910 -1.7904  1.8220  0.5136
   53CHL1    C1 6372   4.403   2.198   9.926 -0.2175  0.0326 -0.0451
   53CHL1   H1A 6373   4.481   2.156   9.858 -1.3727  1.2709 -2.2536
   53CHL1   H1B 6374   4.435   2.303   9.948 -0.6397 -0.0982  1.2811
   53CHL1    C2 6375   4.407   2.133  10.065  0.2220 -0.0524  0.3728
   53CHL1   H2A 6376   4.499   2.148  10.124  1.7192 -1.8096 -1.3957
   53CHL1   H2B 6377   4.399   2.023  10.048  1.0383  0.0187 -0.5709
   53CHL1   C20 6378   4.222   2.273   9.152  0.4769 -0.6345  1.0098
   53CHL1   H20 6379   4.148   2.191   9.137 -0.0202 -0.2643  1.3698
   53CHL1   C21 6380   4.357   2.212   9.133 -0.4387 -0.0475 -1.0269
   53CHL1  H21A 6381   4.433   2.289   9.157  1.7634 -2.2056 -0.5964
   53CHL1  H21B 6382   4.380   2.161   9.036  1.0009  0.7460 -1.1307
   53CHL1  H21C 6383   4.373   2.130   9.206  2.2160 -0.0856 -1.5378
   53CHL1   C22 6384   4.198   2.365   9.027  0.1038  0.3548  0.2582
   53CHL1  H22A 6385   4.194   2.294   8.942 -0.4676 -0.7189  1.1470
   53CHL1  H22B 6386   4.091   2.397   9.031  0.2222  0.8398 -0.3850
   53CHL1   C23 6387   4.277   2.492   9.017 -0.0517  0.1735  0.0666
   53CHL1  H23A 6388   4.259   2.555   9.106  0.0667  0.4164 -0.0810
   53CHL1  H23B 6389   4.385   2.466   9.027  0.6271  2.5598 -0.3965
   53CHL1   C24 6390   4.241   2.575   8.897  0.0865  0.2099  0.0345
   53CHL1  H24A 6391   4.132   2.595   8.890  0.1703  1.2585  1.2360
   53CHL1  H24B 6392   4.296   2.671   8.905 -1.8477  1.4417 -0.7700
   53CHL1   C25 6393   4.280   2.520   8.764 -0.6050  0.2260 -0.1644
   53CHL1   H25 6394   4.233   2.421   8.741 -1.2808  0.7598 -1.1792
   53CHL1   C26 6395   4.241   2.619   8.655 -0.5327  0.3029  1.0642
   53CHL1  H26A 6396   4.260   2.570   8.558  2.0917 -0.9974  2.1191
   53CHL1  H26B 6397   4.134   2.646   8.653 -0.3691  0.9566  0.6334
   53CHL1  H26C 6398   4.301   2.713   8.655  0.9737 -0.5690 -1.2988
   53CHL1   C27 6399   4.433   2.498   8.758 -0.1229 -0.0370 -0.4342
   53CHL1  H27A 6400   4.469   2.468   8.657  0.3552 -2.6869  0.4399
   53CHL1  H27B 6401   4.491   2.580   8.804 -1.4222 -0.2580  1.7008
   53CHL1  H27C 6402   4.459   2.412   8.823  0.1463 -0.5836 -1.2486
   54CHL1    C3 6403   0.109   1.796  10.119 -0.0116  0.2993 -0.2511
   54CHL1    H3 6404   0.185   1.876  10.114 -0.9199  1.3569  1.6514
   54CHL1    O3 6405   0.065   1.795  10.253 -0.0921  0.2884  0.5100
   54CHL1   H3' 6406   0.143   1.828  10.299 -0.2225  1.8341 -0.3254
   54CHL1    C4 6407  -0.013   1.810  10.028 -0.3132  0.1357 -0.1144
   54CHL1   H4A 6408  -0.075   1.719  10.047  1.6691 -1.1210  0.5982
   54CHL1   H4B 6409  -0.071   1.898  10.062  0.9358 -0.1227  2.9286
   54CHL1    C5 6410   0.024   1.817   9.880  0.3678  0.7879 -0.4952
   54CHL1    C6 6411  -0.012   1.921   9.810 -0.0513  0.0773 -0.4678
   54CHL1    H6 6412  -0.059   2.004   9.866  0.6199  0.5728 -0.6290
   54CHL1    C7 6413   0.029   1.951   9.668  0.2169  0.2298  0.0195
   54CHL1   H7A 6414  -0.052   1.987   9.601  1.7895  1.6214 -1.2255
   54CHL1   H7B 6415   0.106   2.030   9.674 -0.7285  1.0807  1.6637
   54CHL1    C8 6416   0.077   1.823   9.605 -0.2158  1.3467 -0.5436
   54CHL1    H8 6417  -0.006   1.752   9.586  0.1223  0.2232  1.7625
   54CHL1   C14 6418   0.139   1.845   9.474 -0.0174  0.0359 -0.3355
   54CHL1   H14 6419   0.226   1.910   9.499 -1.4712  1.5120  1.0450
   54CHL1   C15 6420   0.055   1.927   9.375 -0.1530  0.2096 -0.3946
   54CHL1  H15A 6421  -0.049   1.889   9.379 -0.2036  0.2015 -1.5482
   54CHL1  H15B 6422   0.057   2.035   9.399 -0.2077  0.2361 -0.5095
   54CHL1   C16 6423   0.101   1.891   9.229 -0.1862  0.8687  0.0377
   54CHL1  H16A 6424   0.022   1.832   9.178  0.7701 -1.5069  1.1494
   54CHL1  H16B 6425   0.143   1.980   9.178  2.0525 -0.1842 -0.1105
   54CHL1   C17 6426   0.224   1.798   9.258  0.4831 -0.1682 -0.0519
   54CHL1   H17 6427   0.314   1.861   9.275  1.5912 -1.8574  0.6219
   54CHL1   C13 6428   0.191   1.728   9.392 -0.2158 -0.6183  0.3530
   54CHL1   C18 6429   0.093   1.613   9.353 -0.1733  0.7155  0.1507
   54CHL1  H18A 6430   0.051   1.580   9.450  1.3300  0.4388  0.7478
   54CHL1  H18B 6431   0.016   1.654   9.286  1.4577  0.8793 -1.7079
   54CHL1  H18C 6432   0.142   1.527   9.301 -1.1569 -0.4266  1.0557
   54CHL1   C12 6433   0.309   1.677   9.478  0.3488 -0.1328  0.2169
   54CHL1  H12A 6434   0.349   1.584   9.433  2.4266  0.1311  1.3683
   54CHL1  H12B 6435   0.380   1.762   9.493 -0.8600  0.8585  0.4321
   54CHL1   C11 6436   0.260   1.642   9.617  0.0104  1.1894 -0.8238
   54CHL1  H11A 6437   0.201   1.547   9.610  1.3024 -0.2427  3.9751
   54CHL1  H11B 6438   0.351   1.623   9.677  0.7551  2.8179 -1.3936
   54CHL1    C9 6439   0.178   1.743   9.695 -0.7557 -0.4154  0.6114
   54CHL1    H9 6440   0.257   1.821   9.709  1.0116 -2.1339  0.5905
   54CHL1   C10 6441   0.117   1.703   9.823 -0.1955 -0.2408 -0.0775
   54CHL1   C19 6442   0.033   1.578   9.806  0.5546  0.8397 -0.0594
   54CHL1  H19A 6443  -0.049   1.598   9.734 -1.4102 -0.2391  1.7783
   54CHL1  H19B 6444   0.093   1.493   9.768  0.6734  0.2795  1.3415
   54CHL1  H19C 6445  -0.017   1.548   9.900  0.4717  0.6739 -0.1567
   54CHL1    C1 6446   0.232   1.684   9.926  0.3814 -0.2750  0.5385
   54CHL1   H1A 6447   0.274   1.582   9.908 -1.1215 -0.7618 -0.4445
   54CHL1   H1B 6448   0.311   1.761   9.917  1.0702 -1.0287 -0.0828
   54CHL1    C2 6449   0.189   1.672  10.074 -0.6607 -0.3105  0.7278
   54CHL1   H2A 6450   0.274   1.666  10.145  0.2968 -0.0447 -0.3711
   54CHL1   H2B 6451   0.109   1.596  10.087 -2.8472  1.6029 -0.8092
   54CHL1   C20 6452   0.254   1.720   9.134  0.6348  0.2352 -0.0525
   54CHL1   H20 6453   0.168   1.651   9.117 -0.4459  1.4533  0.3142
   54CHL1   C21 6454   0.374   1.636   9.155  0.5111 -0.3863  0.2990
   54CHL1  H21A 6455   0.466   1.697   9.142 -0.4467  0.8361 -1.1098
   54CHL1  H21B 6456   0.392   1.562   9.074 -2.5195 -0.7150 -0.1989
   54CHL1  H21C 6457   0.362   1.571   9.244 -1.1893 -1.9714 -1.0130
   54CHL1   C22 6458   0.274   1.812   9.020  0.0137  0.4189  1.0513
   54CHL1  H22A 6459   0.186   1.878   9.006  0.0005  0.2139  0.1349
   54CHL1  H22B 6460   0.366   1.872   9.033  2.3705 -2.7924  0.5697
   54CHL1   C23 6461   0.274   1.736   8.884 -0.3838 -1.0726  0.9574
   54CHL1  H23A 6462   0.355   1.662   8.863  1.7473  1.8351 -2.0115
   54CHL1  H23B 6463   0.181   1.675   8.877 -1.7430  0.8904  0.9555
   54CHL1   C24 6464   0.302   1.833   8.766  0.3914 -0.2023 -0.2148
   54CHL1  H24A 6465   0.212   1.897   8.754  0.4417  0.0263  0.5726
   54CHL1  H24B 6466   0.387   1.904   8.776 -0.5041  1.5623 -3.4066
   54CHL1   C25 6467   0.329   1.757   8.634 -0.2732  0.4390  0.8486
   54CHL1   H25 6468   0.417   1.695   8.660 -0.9530 -0.1201  1.8851
   54CHL1   C26 6469   0.203   1.679   8.592 -0.0721  0.3954 -0.1864
   54CHL1  H26A 6470   0.211   1.643   8.487 -1.6959  3.3778 -1.4479
   54CHL1  H26B 6471   0.172   1.610   8.673 -2.3654  3.8252  2.1097
   54CHL1  H26C 6472   0.114   1.745   8.585 -0.1811  0.1852 -0.9029
   54CHL1   C27 6473   0.358   1.858   8.519  0.0159 -0.0695 -0.3132
   54CHL1  H27A 6474   0.451   1.916   8.540  1.1344 -1.0848 -2.2075
   54CHL1  H27B 6475   0.381   1.811   8.421 -0.8604 -0.4432 -0.3420
   54CHL1  H27C 6476   0.281   1.934   8.497 -0.1533 -0.0061  0.4472
   55CHL1    C3 6477   5.663   0.051  10.048 -0.2404 -0.0685  0.1488
   55CHL1    H3 6478   5.685  -0.054  10.017 -0.7928  0.2848 -1.4911
   55CHL1    O3 6479   5.667   0.063  10.189 -0.8199 -0.0973  0.4075
   55CHL1   H3' 6480   5.677   0.154  10.217  1.7771  0.0546 -0.7574
   55CHL1    C4 6481   5.765   0.137   9.976  0.5892 -0.1268 -0.5324
   55CHL1   H4A 6482   5.755   0.240  10.014  0.6882 -0.2275 -0.2293
   55CHL1   H4B 6483   5.861   0.108  10.023  0.7622 -0.0128 -0.8180
   55CHL1    C5 6484   5.758   0.127   9.828  0.7086  0.1814  0.3665
   55CHL1    C6 6485   5.875   0.110   9.763  0.3006  0.6904 -0.6421
   55CHL1    H6 6486   5.975   0.106   9.809  0.0937  2.7074  0.1014
   55CHL1    C7 6487   5.883   0.114   9.616 -0.0323 -0.0149 -0.2504
   55CHL1   H7A 6488   5.962   0.183   9.579 -2.0238  1.9617 -1.0150
   55CHL1   H7B 6489   5.906   0.010   9.585  0.6114  0.3891 -1.2051
   55CHL1    C8 6490   5.755   0.167   9.536 -1.2132  0.2143  0.1374
   55CHL1    H8 6491   5.759   0.278   9.541 -0.5533  0.2275 -0.5334
   55CHL1   C14 6492   5.754   0.093   9.398 -0.5613 -0.3661 -0.6265
   55CHL1   H14 6493   5.751  -0.016   9.422 -0.5513 -0.4416 -0.9651
   55CHL1   C15 6494   5.877   0.102   9.312  0.0096 -0.2705 -0.0909
   55CHL1  H15A 6495   5.900   0.210   9.308  0.0602 -0.2759  0.0213
   55CHL1  H15B 6496   5.971   0.049   9.343  0.1888  0.0974 -0.0018
   55CHL1   C16 6497   5.841   0.053   9.174 -0.4754  0.2814  0.0063
   55CHL1  H16A 6498   5.875   0.130   9.102  0.1504  0.5182  0.5452
   55CHL1  H16B 6499   5.878  -0.046   9.140 -1.9961 -0.2697 -0.1500
   55CHL1   C17 6500   5.680   0.048   9.176 -0.0030  0.0700 -0.3062
   55CHL1   H17 6501   5.660  -0.061   9.187  0.6006 -0.2816 -2.3957
   55CHL1   C13 6502   5.636   0.128   9.304 -0.5034  0.1267  0.5963
   55CHL1   C18 6503   5.633   0.280   9.271  0.2614 -0.4565 -0.0200
   55CHL1  H18A 6504   5.537   0.307   9.223  0.4648  0.3038 -0.0130
   55CHL1  H18B 6505   5.642   0.336   9.366  1.8368 -2.4159  1.0857
   55CHL1  H18C 6506   5.717   0.304   9.202  1.5743 -3.8517  0.1924
   55CHL1   C12 6507   5.516   0.078   9.375 -0.0342  0.0156 -0.4539
   55CHL1  H12A 6508   5.421   0.117   9.332 -0.1788  0.6010  0.3592
   55CHL1  H12B 6509   5.522  -0.033   9.370 -0.8870 -0.0475 -0.2814
   55CHL1   C11 6510   5.511   0.121   9.519  0.3776 -0.1992 -0.4365
   55CHL1  H11A 6511   5.485   0.228   9.535 -1.7053 -0.7245  0.1173
   55CHL1  H11B 6512   5.432   0.076   9.584  0.5224  1.2265  0.7909
   55CHL1    C9 6513   5.638   0.107   9.605 -0.2412 -0.2062 -0.6710
   55CHL1    H9 6514   5.654  -0.002   9.610 -0.3608 -0.2474 -1.1292
   55CHL1   C10 6515   5.621   0.144   9.753  0.4092  0.0502 -0.7839
   55CHL1   C19 6516   5.579   0.294   9.760 -0.4029 -0.2445 -0.2776
   55CHL1  H19A 6517   5.639   0.352   9.686 -1.9689  1.3583 -0.3545
   55CHL1  H19B 6518   5.472   0.304   9.734 -0.7841  0.1010  1.2788
   55CHL1  H19C 6519   5.588   0.340   9.861 -1.4604 -1.1202  0.2267
   55CHL1    C1 6520   5.522   0.053   9.836  0.0187  0.0468  0.3739
   55CHL1   H1A 6521   5.418   0.063   9.797 -0.5718  0.9321  2.0793
   55CHL1   H1B 6522   5.530  -0.056   9.819 -2.2773  0.0153 -0.9915
   55CHL1    C2 6523   5.521   0.073   9.987  0.1032 -0.5059  0.5392
   55CHL1   H2A 6524   5.454   0.000  10.038 -1.2862 -0.7223 -1.4991
   55CHL1   H2B 6525   5.489   0.175  10.017 -0.7485 -0.2597 -1.0998
   55CHL1   C20 6526   5.616   0.090   9.048  0.7706  0.5039  0.7469
   55CHL1   H20 6527   5.632   0.198   9.030  1.2188  0.3440  0.1511
   55CHL1   C21 6528   5.463   0.051   9.054 -0.0866  0.3415 -0.2623
   55CHL1  H21A 6529   5.439  -0.057   9.065  0.7590 -0.1328 -2.4470
   55CHL1  H21B 6530   5.412   0.085   8.961 -1.7971 -0.1272  0.4695
   55CHL1  H21C 6531   5.421   0.121   9.130 -0.5448 -0.1551 -0.0533
   55CHL1   C22 6532   5.680   0.022   8.922  0.3061 -0.3476  0.6146
   55CHL1  H22A 6533   5.790   0.019   8.932  0.1270 -0.3995  3.1396
   55CHL1  H22B 6534   5.642  -0.082   8.915 -2.2646  0.5180  0.4641
   55CHL1   C23 6535   5.644   0.101   8.789  0.5804 -0.2852 -0.4469
   55CHL1  H23A 6536   5.536   0.088   8.765  0.9066 -2.8672 -0.8192
   55CHL1  H23B 6537   5.648   0.211   8.806  0.5588 -0.3347 -0.1144
   55CHL1   C24 6538   5.727   0.066   8.669 -0.0502  0.5178  0.9128
   55CHL1  H24A 6539   5.834   0.058   8.699  1.0719  1.0959 -2.4477
   55CHL1  H24B 6540   5.690  -0.033   8.636 -1.9927  1.4645  0.0689
   55CHL1   C25 6541   5.715   0.165   8.547  0.4273  0.1276  0.0539
   55CHL1   H25 6542   5.785   0.251   8.545 -0.8271  1.1822 -1.2129
   55CHL1   C26 6543   5.763   0.082   8.420 -0.1717  0.5103  0.2195
   55CHL1  H26A 6544   5.680   0.025   8.372  0.9600 -0.3528 -0.8016
   55CHL1  H26B 6545   5.799   0.158   8.347 -0.5187  0.4997  0.0347
   55CHL1  H26C 6546   5.854   0.021   8.441  1.1636  3.1067  2.6850
   55CHL1   C27 6547   5.570   0.218   8.514  0.2854 -0.2366  0.5806
   55CHL1  H27A 6548   5.512   0.127   8.486  0.9644 -1.0479  1.7251
   55CHL1  H27B 6549   5.531   0.281   8.596  1.2798  1.9829 -0.5678
   55CHL1  H27C 6550   5.578   0.284   8.425  2.4449  0.0846  0.9563
   56CHL1    C3 6551   3.609   3.952   9.971 -0.1091  0.5970 -0.0178
   56CHL1    H3 6552   3.665   3.873   9.917 -2.5380 -1.5601  0.4040
   56CHL1    O3 6553   3.596   3.918  10.106 -0.0373 -0.1866  0.0569
   56CHL1   H3' 6554   3.639   3.977  10.168 -2.3963  0.3388  1.2840
   56CHL1    C4 6555   3.676   4.088   9.967  0.3706  0.4907 -0.4207
   56CHL1   H4A 6556   3.618   4.157  10.032  1.7628 -0.5687  2.0832
   56CHL1   H4B 6557   3.774   4.086  10.021  0.4515  2.2199 -0.4339
   56CHL1    C5 6558   3.693   4.148   9.828 -0.0169  0.2123  0.7494
   56CHL1    C6 6559   3.810   4.171   9.775 -0.2833  0.1228  0.3135
   56CHL1    H6 6560   3.902   4.161   9.833  0.6959  0.5481 -1.1187
   56CHL1    C7 6561   3.826   4.226   9.632 -0.6643  0.8472 -0.8782
   56CHL1   H7A 6562   3.903   4.305   9.616 -0.9750  1.4869  0.6348
   56CHL1   H7B 6563   3.875   4.142   9.579  0.6068 -0.2036  1.7984
   56CHL1    C8 6564   3.702   4.277   9.564  0.5437  0.3735 -0.6630
   56CHL1    H8 6565   3.685   4.373   9.617  1.2957 -1.1313  2.5209
   56CHL1   C14 6566   3.717   4.307   9.415 -0.2942  0.9292 -0.5612
   56CHL1   H14 6567   3.745   4.214   9.360 -1.2220  1.0315 -1.2369
   56CHL1   C15 6568   3.834   4.403   9.379  1.1133  0.3399  0.3609
   56CHL1  H15A 6569   3.843   4.490   9.447 -0.7745  1.2703 -0.4980
   56CHL1  H15B 6570   3.934   4.356   9.372  0.0689 -2.1304  0.8750
   56CHL1   C16 6571   3.782   4.447   9.239  0.8431 -0.6341  0.0893
   56CHL1  H16A 6572   3.772   4.556   9.258  2.5532 -0.6179  1.0946
   56CHL1  H16B 6573   3.850   4.432   9.152  0.2780 -0.3445 -0.4120
   56CHL1   C17 6574   3.646   4.389   9.216  0.8111  0.0499  0.2776
   56CHL1   H17 6575   3.660   4.290   9.166 -1.0394  0.4638 -1.1620
   56CHL1   C13 6576   3.587   4.357   9.353 -0.0724 -0.4227 -0.0735
   56CHL1   C18 6577   3.526   4.489   9.411  0.0529  0.1660 -0.3760
   56CHL1  H18A 6578   3.433   4.524   9.361 -0.3976 -1.1938 -0.5164
   56CHL1  H18B 6579   3.512   4.475   9.520  0.9452 -1.8810 -0.4806
   56CHL1  H18C 6580   3.594   4.577   9.401  1.0073 -0.7278 -2.2771
   56CHL1   C12 6581   3.476   4.246   9.364  0.0939  0.1568 -0.4895
   56CHL1  H12A 6582   3.376   4.279   9.330  0.1045 -0.7060 -1.4147
   56CHL1  H12B 6583   3.499   4.158   9.300 -0.8037 -0.9335  0.6410
   56CHL1   C11 6584   3.456   4.203   9.507 -0.1209 -0.1754 -1.0926
   56CHL1  H11A 6585   3.391   4.282   9.550  1.4908  0.2087  0.7693
   56CHL1  H11B 6586   3.403   4.105   9.513 -1.3220  0.5239  0.9062
   56CHL1    C9 6587   3.588   4.181   9.589  0.0623  0.6275 -0.5817
   56CHL1    H9 6588   3.627   4.083   9.553 -3.3357 -0.7425 -0.8716
   56CHL1   C10 6589   3.563   4.156   9.743  0.0698 -0.3344  0.3215
   56CHL1   C19 6590   3.469   4.271   9.798 -0.2984  0.3017 -0.1924
   56CHL1  H19A 6591   3.507   4.370   9.766 -1.4653  0.4664 -1.1384
   56CHL1  H19B 6592   3.364   4.265   9.760 -0.0104 -0.0355 -0.9562
   56CHL1  H19C 6593   3.466   4.277   9.909  0.3975  1.6472 -0.2238
   56CHL1    C1 6594   3.487   4.022   9.767 -0.0575  0.8480 -0.1134
   56CHL1   H1A 6595   3.387   4.021   9.719 -1.1752 -1.1263  2.1018
   56CHL1   H1B 6596   3.540   3.940   9.715 -0.8060  0.1937  0.1480
   56CHL1    C2 6597   3.469   3.956   9.909 -0.0471 -0.2900 -0.2884
   56CHL1   H2A 6598   3.431   3.852   9.893 -1.0994  0.0455 -0.0103
   56CHL1   H2B 6599   3.390   4.018   9.956 -1.2234 -0.6422 -1.7196
   56CHL1   C20 6600   3.558   4.468   9.110  0.1659  0.3958  0.3460
   56CHL1   H20 6601   3.553   4.573   9.145 -0.1587  1.1272 -1.7454
   56CHL1   C21 6602   3.421   4.403   9.080  0.0409  0.4753  0.0380
   56CHL1  H21A 6603   3.356   4.392   9.169 -1.3222 -2.0975 -1.1598
   56CHL1  H21B 6604   3.430   4.304   9.028  1.5893  0.7882 -0.3562
   56CHL1  H21C 6605   3.364   4.463   9.006 -0.5315  0.0719  0.1489
   56CHL1   C22 6606   3.621   4.485   8.964  0.3982 -0.4952  0.2163
   56CHL1  H22A 6607   3.727   4.515   8.976  0.1851  0.6135 -0.5715
   56CHL1  H22B 6608   3.618   4.392   8.903 -0.8981  1.1446 -2.3737
   56CHL1   C23 6609   3.554   4.608   8.887 -0.7637 -0.5852 -0.2932
   56CHL1  H23A 6610   3.450   4.583   8.857 -1.1358  1.0438 -0.4469
   56CHL1  H23B 6611   3.541   4.702   8.944  0.7754  0.0052 -0.8647
   56CHL1   C24 6612   3.649   4.650   8.770 -0.1206 -0.0934 -0.3556
   56CHL1  H24A 6613   3.753   4.677   8.796 -0.4061 -0.2739  1.0496
   56CHL1  H24B 6614   3.647   4.568   8.696 -0.5848  0.3301 -0.8286
   56CHL1   C25 6615   3.592   4.773   8.689  0.6042  0.6118  0.5225
   56CHL1   H25 6616   3.580   4.862   8.755  1.3992 -1.4347  3.6707
   56CHL1   C26 6617   3.680   4.811   8.573 -0.5617 -0.0506 -0.2579
   56CHL1  H26A 6618   3.653   4.911   8.534 -2.1247 -0.3482 -0.0089
   56CHL1  H26B 6619   3.785   4.811   8.608  0.6063 -0.5627 -3.3809
   56CHL1  H26C 6620   3.688   4.730   8.497 -0.7352 -2.4688  2.1591
   56CHL1   C27 6621   3.447   4.735   8.643 -0.5585 -0.1165 -0.4599
   56CHL1  H27A 6622   3.444   4.640   8.585  0.8233 -0.7053  0.3851
   56CHL1  H27B 6623   3.374   4.721   8.725  0.1710 -2.2751 -0.1168
   56CHL1  H27C 6624   3.411   4.815   8.575 -2.3987 -1.4412 -1.1085
   57CHL1    C3 6625   6.543   2.346  10.385 -0.5537  0.5157  0.3288
   57CHL1    H3 6626   6.653   2.346  10.404 -0.3639  0.4792 -0.7267
   57CHL1    O3 6627   6.476   2.359  10.508  0.9358 -0.1849  0.4195
   57CHL1   H3' 6628   6.549   2.395  10.558  2.4070 -1.3685 -0.7928
   57CHL1    C4 6629   6.519   2.474  10.303 -0.9919 -0.3176 -0.4382
   57CHL1   H4A 6630   6.409   2.490  10.304 -1.3160 -2.3310 -0.7278
   57CHL1   H4B 6631   6.560   2.560  10.361 -0.5393 -0.6213 -0.3022
   57CHL1    C5 6632   6.592   2.466  10.175 -0.0261  0.4954  0.5630
   57CHL1    C6 6633   6.686   2.552  10.131  1.3157  0.0875  0.4756
   57CHL1    H6 6634   6.709   2.644  10.186 -0.0442  0.2103  0.8559
   57CHL1    C7 6635   6.746   2.551  10.002  0.8080  0.4641  0.4543
   57CHL1   H7A 6636   6.754   2.656   9.968  0.3617  0.0431 -1.0316
   57CHL1   H7B 6637   6.849   2.509  10.009  1.1569  0.9715 -1.1720
   57CHL1    C8 6638   6.666   2.470   9.895 -0.1041  0.4213  0.1689
   57CHL1    H8 6639   6.580   2.534   9.866 -0.4165 -0.2556 -0.4371
   57CHL1   C14 6640   6.752   2.457   9.773  0.4689  0.3578  0.2646
   57CHL1   H14 6641   6.845   2.411   9.810  0.1871  0.7638  1.5127
   57CHL1   C15 6642   6.803   2.590   9.705  0.4409  0.2210  0.1957
   57CHL1  H15A 6643   6.710   2.652   9.706  0.8449  0.8308  1.4044
   57CHL1  H15B 6644   6.896   2.632   9.748  1.6634 -1.9123 -0.2153
   57CHL1   C16 6645   6.847   2.541   9.568  0.7942 -0.2648 -0.1169
   57CHL1  H16A 6646   6.797   2.608   9.496  1.3589 -0.3186 -0.5736
   57CHL1  H16B 6647   6.957   2.530   9.557  0.8191 -0.4347  0.2827
   57CHL1   C17 6648   6.785   2.403   9.556 -0.0026 -0.0674  0.3082
   57CHL1   H17 6649   6.862   2.330   9.587 -0.4458 -1.2358 -1.1919
   57CHL1   C13 6650   6.680   2.379   9.668 -0.4746 -0.5238 -0.4442
   57CHL1   C18 6651   6.551   2.442   9.618  0.2083 -0.0481 -0.6141
   57CHL1  H18A 6652   6.589   2.538   9.577 -0.1616 -0.1459 -1.1940
   57CHL1  H18B 6653   6.491   2.383   9.545  0.7782 -0.3447 -0.8511
   57CHL1  H18C 6654   6.483   2.462   9.704  1.3795 -0.2172  0.3794
   57CHL1   C12 6655   6.656   2.238   9.729 -0.0336  0.0460  0.9019
   57CHL1  H12A 6656   6.595   2.170   9.665 -1.4735  0.7209  1.4919
   57CHL1  H12B 6657   6.755   2.191   9.748  1.6077  1.1201 -3.7052
   57CHL1   C11 6658   6.558   2.240   9.846  0.4992 -0.1148 -0.1174
   57CHL1  H11A 6659   6.463   2.288   9.814  0.3946 -0.1698  0.1068
   57CHL1  H11B 6660   6.556   2.137   9.889  4.0474  0.4958  1.9232
   57CHL1    C9 6661   6.626   2.331   9.954  0.1577  0.4388 -0.4598
   57CHL1    H9 6662   6.721   2.277   9.974  0.5352  0.9986 -0.7408
   57CHL1   C10 6663   6.549   2.346  10.087 -0.4817  0.0799 -0.3053
   57CHL1   C19 6664   6.396   2.361  10.052 -1.0870  0.3086  0.2638
   57CHL1  H19A 6665   6.375   2.419   9.960  2.1884  1.3991  0.0612
   57CHL1  H19B 6666   6.371   2.254  10.039  0.1675 -0.1435  1.3544
   57CHL1  H19C 6667   6.336   2.390  10.141  1.1694 -1.8206  2.6640
   57CHL1    C1 6668   6.579   2.217  10.174  0.6547  0.6102 -0.8514
   57CHL1   H1A 6669   6.551   2.123  10.121  0.9175 -1.0664  1.7685
   57CHL1   H1B 6670   6.688   2.209  10.197  0.4831 -0.5938 -0.3452
   57CHL1    C2 6671   6.501   2.222  10.306 -0.0914 -0.8301 -0.4752
   57CHL1   H2A 6672   6.522   2.134  10.371  2.1107 -0.8143 -1.1042
   57CHL1   H2B 6673   6.390   2.223  10.298 -0.2414  3.0675  0.1542
   57CHL1   C20 6674   6.757   2.358   9.411  0.1005  0.1996 -0.9896
   57CHL1   H20 6675   6.684   2.426   9.361  1.4228  0.9332 -1.9890
   57CHL1   C21 6676   6.685   2.220   9.406 -0.7322 -0.0231  0.1756
   57CHL1  H21A 6677   6.745   2.147   9.465 -2.1992 -0.3285  1.3492
   57CHL1  H21B 6678   6.665   2.179   9.305 -4.8825  1.8685  0.0331
   57CHL1  H21C 6679   6.588   2.222   9.459  0.1757 -0.1400  1.9065
   57CHL1   C22 6680   6.882   2.360   9.330 -0.2615 -0.5430  0.5306
   57CHL1  H22A 6681   6.949   2.447   9.345 -2.4533  1.2414  0.4333
   57CHL1  H22B 6682   6.937   2.264   9.348 -1.2095 -1.2308 -0.1637
   57CHL1   C23 6683   6.838   2.380   9.178  0.3949 -0.6985  0.0848
   57CHL1  H23A 6684   6.735   2.340   9.172  0.0219  0.3859 -1.2067
   57CHL1  H23B 6685   6.829   2.489   9.159  1.4095 -0.3456  1.4409
   57CHL1   C24 6686   6.942   2.323   9.081 -0.0760  0.2003  0.5757
   57CHL1  H24A 6687   7.036   2.375   9.110  1.1458 -0.3515 -2.0928
   57CHL1  H24B 6688   6.976   2.218   9.098  1.1519  0.8403  2.2886
   57CHL1   C25 6689   6.914   2.355   8.934 -0.2579  0.1205  0.2509
   57CHL1   H25 6690   6.905   2.462   8.907 -0.9885 -0.6847 -3.2457
   57CHL1   C26 6691   7.028   2.298   8.844 -0.3822  0.4324  0.2184
   57CHL1  H26A 6692   7.012   2.331   8.740  1.7284  2.0116  0.3291
   57CHL1  H26B 6693   7.120   2.349   8.880  0.1421 -0.1018 -0.3326
   57CHL1  H26C 6694   7.036   2.188   8.858 -0.2484  0.4902  0.6143
   57CHL1   C27 6695   6.783   2.287   8.890  0.1402  0.2001 -0.0305
   57CHL1  H27A 6696   6.689   2.323   8.937 -1.0757 -0.5693 -1.7359
   57CHL1  H27B 6697   6.762   2.297   8.782  2.5776 -1.3557 -0.7404
   57CHL1  H27C 6698   6.788   2.176   8.899 -0.3148  0.0291 -1.5506
   58CHL1    C3 6699   2.574   4.694  10.081  0.4304  0.1184  0.8293
   58CHL1    H3 6700   2.640   4.605  10.085  0.5646 -0.1415 -3.0043
   58CHL1    O3 6701   2.539   4.738  10.211 -0.1329  0.4930 -0.3477
   58CHL1   H3' 6702   2.475   4.673  10.242 -0.6381  1.3661  0.4894
   58CHL1    C4 6703   2.642   4.812  10.002 -0.4842  0.6542  0.8504
   58CHL1   H4A 6704   2.577   4.901  10.011 -0.2378  1.0782 -1.1410
   58CHL1   H4B 6705   2.729   4.833  10.068  0.2959 -2.6885  1.0729
   58CHL1    C5 6706   2.662   4.765   9.858  0.0692 -0.2672  0.5625
   58CHL1    C6 6707   2.782   4.791   9.788  0.6849 -0.0491 -0.9024
   58CHL1    H6 6708   2.861   4.846   9.841  0.5440  1.1009 -1.8551
   58CHL1    C7 6709   2.800   4.765   9.645 -0.1127 -0.0015  0.9299
   58CHL1   H7A 6710   2.837   4.858   9.596 -1.2961  0.1251  0.2410
   58CHL1   H7B 6711   2.872   4.682   9.636 -2.1508 -1.9016  1.3301
   58CHL1    C8 6712   2.668   4.739   9.560 -0.4588 -1.1025 -0.1886
   58CHL1    H8 6713   2.626   4.842   9.550 -0.3396 -0.8723  1.3607
   58CHL1   C14 6714   2.698   4.693   9.417 -0.3092 -0.2707  0.1606
   58CHL1   H14 6715   2.748   4.594   9.428  2.6657  1.1343  0.0560
   58CHL1   C15 6716   2.792   4.779   9.320  0.0310 -0.9246 -1.1621
   58CHL1  H15A 6717   2.766   4.886   9.334  3.1876 -0.2379  0.3863
   58CHL1  H15B 6718   2.899   4.753   9.339 -0.2820 -0.9335  0.7941
   58CHL1   C16 6719   2.747   4.726   9.181  0.1812 -0.1141 -0.2482
   58CHL1  H16A 6720   2.713   4.815   9.124  1.8755  0.1036 -1.0059
   58CHL1  H16B 6721   2.841   4.683   9.138 -0.3496 -2.8302  1.1474
   58CHL1   C17 6722   2.631   4.626   9.203  0.7105 -0.1388 -0.1491
   58CHL1   H17 6723   2.688   4.531   9.194  2.0861  0.6685 -0.2712
   58CHL1   C13 6724   2.571   4.650   9.342  0.6914 -0.6169  0.6619
   58CHL1   C18 6725   2.467   4.772   9.335  0.1118 -0.2354  0.0217
   58CHL1  H18A 6726   2.500   4.838   9.252 -0.2835 -1.0315 -0.7940
   58CHL1  H18B 6727   2.368   4.735   9.301 -0.0613  0.3332 -0.0903
   58CHL1  H18C 6728   2.455   4.828   9.430 -1.0109  1.3962 -1.0404
   58CHL1   C12 6729   2.503   4.542   9.425 -0.1072 -0.1284 -0.4689
   58CHL1  H12A 6730   2.409   4.506   9.379 -1.0486 -0.1279  1.3716
   58CHL1  H12B 6731   2.568   4.452   9.426 -2.7256 -2.1203 -1.0787
   58CHL1   C11 6732   2.464   4.577   9.568 -0.1707 -0.6453 -0.1986
   58CHL1  H11A 6733   2.384   4.654   9.567 -1.6138 -1.9500  2.6209
   58CHL1  H11B 6734   2.440   4.479   9.615  0.8380 -0.7736  0.0600
   58CHL1    C9 6735   2.584   4.636   9.639 -0.0285 -0.3159  0.5229
   58CHL1    H9 6736   2.653   4.552   9.662 -0.7499 -1.4595 -1.2555
   58CHL1   C10 6737   2.547   4.699   9.784  0.5807 -0.0618 -0.7512
   58CHL1   C19 6738   2.442   4.807   9.769  0.5436 -0.6362  0.8504
   58CHL1  H19A 6739   2.480   4.863   9.681  1.6098 -1.8404  0.5048
   58CHL1  H19B 6740   2.342   4.767   9.740  0.8278 -0.8876  0.1877
   58CHL1  H19C 6741   2.421   4.870   9.858  0.8179 -0.9409  1.1330
   58CHL1    C1 6742   2.485   4.589   9.872 -0.0978  0.0024 -0.5384
   58CHL1   H1A 6743   2.391   4.566   9.818 -2.1488 -2.0346  3.4320
   58CHL1   H1B 6744   2.551   4.500   9.882 -1.7640 -1.2086  0.0108
   58CHL1    C2 6745   2.447   4.636  10.014 -0.0437 -0.2220  0.8493
   58CHL1   H2A 6746   2.411   4.547  10.071  3.1126 -2.0155  0.2978
   58CHL1   H2B 6747   2.364   4.710  10.008 -1.4173 -1.5925  1.9224
   58CHL1   C20 6748   2.538   4.627   9.078 -0.0741  0.5259  0.2972
   58CHL1   H20 6749   2.502   4.731   9.059 -1.6093 -0.4479 -2.7799
   58CHL1   C21 6750   2.418   4.531   9.107  0.6896  0.7295  0.7280
   58CHL1  H21A 6751   2.339   4.586   9.163  0.3025  3.2927 -2.1048
   58CHL1  H21B 6752   2.456   4.438   9.155 -0.3627 -0.8913 -1.4317
   58CHL1  H21C 6753   2.361   4.507   9.015  1.2802  0.4906  0.4222
   58CHL1   C22 6754   2.609   4.568   8.959 -0.1658 -0.0546  0.1079
   58CHL1  H22A 6755   2.702   4.626   8.942 -1.7286  2.6082  0.1529
   58CHL1  H22B 6756   2.637   4.463   8.984 -0.6859 -0.4774 -1.0060
   58CHL1   C23 6757   2.530   4.565   8.825 -1.0548 -0.2127  0.0473
   58CHL1  H23A 6758   2.435   4.508   8.835 -0.9133 -1.0997 -2.7864
   58CHL1  H23B 6759   2.491   4.669   8.817 -1.4175 -0.3420  0.1105
   58CHL1   C24 6760   2.607   4.496   8.708  0.0615  0.2921  0.1182
   58CHL1  H24A 6761   2.713   4.526   8.705 -0.2568  1.3913 -0.8208
   58CHL1  H24B 6762   2.618   4.387   8.726 -3.4700 -0.3981 -1.0902
   58CHL1   C25 6763   2.547   4.522   8.566 -0.7702  0.7708 -0.3330
   58CHL1   H25 6764   2.442   4.486   8.565 -0.5553  0.1458 -1.1925
   58CHL1   C26 6765   2.553   4.667   8.524  0.2134  0.3340 -0.4381
   58CHL1  H26A 6766   2.548   4.667   8.413 -1.7670  0.4600 -0.3878
   58CHL1  H26B 6767   2.472   4.731   8.565 -0.0257 -0.0487 -0.2992
   58CHL1  H26C 6768   2.650   4.719   8.536  1.1909 -1.2784 -0.9910
   58CHL1   C27 6769   2.630   4.442   8.470  0.7260 -0.2088  0.1626
   58CHL1  H27A 6770   2.737   4.460   8.492  1.5369 -2.1751 -1.7635
   58CHL1  H27B 6771   2.634   4.331   8.483  3.7048 -0.0170  1.5853
   58CHL1  H27C 6772   2.611   4.479   8.367 -0.5555 -0.1579  0.4004
   59CHL1    C3 6773   2.955   5.287  10.198 -0.6876 -0.7533 -0.2819
   59CHL1    H3 6774   3.062   5.304  10.172 -0.0301 -2.0425  1.3897
   59CHL1    O3 6775   2.943   5.303  10.338 -0.4878  0.5735  0.4044
   59CHL1   H3' 6776   2.856   5.276  10.368 -0.3829 -0.6120 -0.2896
   59CHL1    C4 6777   2.864   5.383  10.123 -0.3281 -0.8894  0.1060
   59CHL1   H4A 6778   2.761   5.359  10.158 -0.3813  1.3088  1.6207
   59CHL1   H4B 6779   2.895   5.481  10.164 -1.4150 -0.5164  0.0697
   59CHL1    C5 6780   2.878   5.363   9.975 -0.3271 -0.5634  0.2684
   59CHL1    C6 6781   2.902   5.475   9.903  0.6083 -0.0398  0.0176
   59CHL1    H6 6782   2.906   5.574   9.950  2.1304  1.7026 -3.3799
   59CHL1    C7 6783   2.918   5.482   9.755 -0.6344 -0.5232  0.1024
   59CHL1   H7A 6784   2.854   5.566   9.720 -0.2902 -1.1345 -2.1045
   59CHL1   H7B 6785   3.023   5.496   9.721 -1.5306  0.7439 -2.3800
   59CHL1    C8 6786   2.874   5.354   9.694  0.4161  0.4962  0.7573
   59CHL1    H8 6787   2.763   5.361   9.696  0.4849  1.5757  1.7358
   59CHL1   C14 6788   2.920   5.360   9.553 -0.2425 -0.2278 -0.0571
   59CHL1   H14 6789   3.031   5.355   9.549 -0.2727 -1.1920  0.0209
   59CHL1   C15 6790   2.898   5.484   9.467  0.0891 -0.3443 -0.3424
   59CHL1  H15A 6791   2.791   5.513   9.463 -0.6027 -2.6873 -4.3563
   59CHL1  H15B 6792   2.961   5.570   9.495  0.4145 -0.9971  1.0331
   59CHL1   C16 6793   2.914   5.439   9.320 -0.3439  0.8895  0.3813
   59CHL1  H16A 6794   2.834   5.484   9.256 -0.4235 -1.5515 -1.3948
   59CHL1  H16B 6795   3.012   5.472   9.278  1.1351 -2.2578  1.0791
   59CHL1   C17 6796   2.908   5.289   9.329  0.0034  0.8288  0.5645
   59CHL1   H17 6797   3.016   5.264   9.323 -0.2910 -0.2857 -0.6230
   59CHL1   C13 6798   2.870   5.241   9.472 -0.6112 -0.1571  0.7320
   59CHL1   C18 6799   2.718   5.242   9.469 -0.1544 -0.1677 -0.0143
   59CHL1  H18A 6800   2.686   5.150   9.416  1.5369 -0.3498 -0.7797
   59CHL1  H18B 6801   2.680   5.234   9.573 -0.8798 -1.0367 -0.3308
   59CHL1  H18C 6802   2.671   5.330   9.420 -2.9829 -1.1611  0.7283
   59CHL1   C12 6803   2.940   5.118   9.535 -0.0481 -0.4433  0.8645
   59CHL1  H12A 6804   2.915   5.032   9.469 -0.4223  0.7236 -0.5609
   59CHL1  H12B 6805   3.049   5.134   9.523  0.7217 -2.3198  4.0406
   59CHL1   C11 6806   2.902   5.100   9.679 -0.5473  0.3701  0.6742
   59CHL1  H11A 6807   2.794   5.076   9.670  0.1532 -3.4757  0.6908
   59CHL1  H11B 6808   2.951   5.016   9.733 -0.2834 -0.0352 -0.1795
   59CHL1    C9 6809   2.922   5.226   9.763 -0.5966 -0.0210  0.4631
   59CHL1    H9 6810   3.033   5.236   9.768 -0.5863 -0.6515  1.8349
   59CHL1   C10 6811   2.877   5.226   9.916 -0.3013  0.2697  0.0538
   59CHL1   C19 6812   2.730   5.173   9.908  0.6048 -0.8990 -0.8382
   59CHL1  H19A 6813   2.667   5.179   9.998 -1.7029 -0.9817 -2.3705
   59CHL1  H19B 6814   2.666   5.241   9.848 -2.8980 -2.1688  1.1875
   59CHL1  H19C 6815   2.732   5.069   9.868  0.5552 -1.2368  0.0218
   59CHL1    C1 6816   2.957   5.124  10.009  0.8773 -0.5615  1.1765
   59CHL1   H1A 6817   2.906   5.026   9.993 -2.5130  1.1582  0.4410
   59CHL1   H1B 6818   3.062   5.124   9.974  0.9450 -2.1636  1.3083
   59CHL1    C2 6819   2.936   5.145  10.158 -0.3408 -0.2804  0.3534
   59CHL1   H2A 6820   3.014   5.087  10.212 -0.2737 -0.4250  0.1047
   59CHL1   H2B 6821   2.837   5.112  10.195 -0.0574  0.9232  2.3328
   59CHL1   C20 6822   2.845   5.211   9.213  0.9797  0.0850  0.3581
   59CHL1   H20 6823   2.807   5.110   9.238  0.6887  0.0928 -0.0533
   59CHL1   C21 6824   2.953   5.188   9.112 -0.2697  0.1523 -0.3070
   59CHL1  H21A 6825   2.983   5.279   9.057 -0.6326 -0.3811 -1.4177
   59CHL1  H21B 6826   2.916   5.113   9.039 -0.5611 -2.8123  2.6416
   59CHL1  H21C 6827   3.035   5.125   9.152 -0.4181 -0.2542 -0.6341
   59CHL1   C22 6828   2.719   5.277   9.137 -0.2640  0.5509  0.0812
   59CHL1  H22A 6829   2.665   5.347   9.205  2.6643  2.3544  0.7281
   59CHL1  H22B 6830   2.765   5.336   9.055  0.6031  0.1358  0.2538
   59CHL1   C23 6831   2.630   5.164   9.084 -0.2566 -0.2971  0.2815
   59CHL1  H23A 6832   2.700   5.097   9.028 -0.8930 -0.1776 -0.6747
   59CHL1  H23B 6833   2.581   5.116   9.171 -0.8617 -0.1916  0.0018
   59CHL1   C24 6834   2.529   5.215   8.975  0.9443 -0.7694 -0.4483
   59CHL1  H24A 6835   2.470   5.298   9.020  3.1068 -0.2136  1.5799
   59CHL1  H24B 6836   2.589   5.260   8.893 -0.5757  1.8007 -0.2507
   59CHL1   C25 6837   2.431   5.108   8.921  0.6602 -0.2538  0.2871
   59CHL1   H25 6838   2.365   5.070   9.002  0.1292 -2.8417 -1.2132
   59CHL1   C26 6839   2.342   5.166   8.810 -0.1480  0.2891  0.0759
   59CHL1  H26A 6840   2.403   5.201   8.724  2.2215 -0.1205  1.4870
   59CHL1  H26B 6841   2.267   5.096   8.768  1.7546 -0.7709 -1.7890
   59CHL1  H26C 6842   2.288   5.251   8.857  1.9332  0.5297  2.2561
   59CHL1   C27 6843   2.508   4.995   8.858 -0.2560  0.2380 -0.3235
   59CHL1  H27A 6844   2.587   5.031   8.790 -0.8190  0.9855 -0.5988
   59CHL1  H27B 6845   2.548   4.931   8.940  0.8088  1.8552  0.4601
   59CHL1  H27C 6846   2.435   4.928   8.808 -1.1925  0.0634  1.2001
   60CHL1    C3 6847   0.888   4.378  10.250 -1.1256 -0.4159 -0.1365
   60CHL1    H3 6848   0.828   4.287  10.229 -1.3635  0.1293 -1.9944
   60CHL1    O3 6849   0.887   4.415  10.392 -0.2175 -0.5095  0.3680
   60CHL1   H3' 6850   0.932   4.499  10.386 -0.6365 -0.2495  0.8230
   60CHL1    C4 6851   1.036   4.359  10.203  0.8255 -0.4997 -0.6307
   60CHL1   H4A 6852   1.085   4.448  10.248 -0.5363 -0.8887  1.8197
   60CHL1   H4B 6853   1.077   4.268  10.252  2.0459  0.4317  0.1454
   60CHL1    C5 6854   1.063   4.368  10.059 -0.5984  0.4139  0.3696
   60CHL1    C6 6855   1.136   4.271   9.995  0.4054 -0.4498  0.3013
   60CHL1    H6 6856   1.180   4.188  10.052  0.3663 -1.0356 -0.5076
   60CHL1    C7 6857   1.175   4.286   9.852 -0.4475 -0.1636  0.9478
   60CHL1   H7A 6858   1.280   4.251   9.837 -1.2485 -2.3459  0.0607
   60CHL1   H7B 6859   1.121   4.208   9.796  1.9989  0.1557 -2.1206
   60CHL1    C8 6860   1.151   4.423   9.788  0.1501  0.3006  0.0093
   60CHL1    H8 6861   1.227   4.484   9.841  1.7686 -0.5340 -1.2499
   60CHL1   C14 6862   1.157   4.412   9.637 -0.0839 -0.6625  0.1115
   60CHL1   H14 6863   1.084   4.337   9.600 -0.3803  0.0951 -0.8754
   60CHL1   C15 6864   1.294   4.364   9.583 -0.5900  0.3056  0.3439
   60CHL1  H15A 6865   1.378   4.422   9.626 -1.2181  1.7067 -0.2627
   60CHL1  H15B 6866   1.324   4.258   9.596 -0.2800  0.3849  0.2651
   60CHL1   C16 6867   1.277   4.400   9.430 -0.3383  0.5081 -0.7143
   60CHL1  H16A 6868   1.372   4.432   9.382  0.1653  0.5950  0.3108
   60CHL1  H16B 6869   1.238   4.314   9.371 -2.3723 -1.4509  3.1177
   60CHL1   C17 6870   1.155   4.501   9.424 -0.7167 -0.5475 -0.3345
   60CHL1   H17 6871   1.067   4.444   9.388 -2.0668  0.9263  0.4868
   60CHL1   C13 6872   1.119   4.546   9.562  0.0442  0.9873  0.5979
   60CHL1   C18 6873   1.212   4.659   9.607  0.4412 -0.1357 -0.2111
   60CHL1  H18A 6874   1.175   4.753   9.562 -4.4729 -1.7723 -0.2766
   60CHL1  H18B 6875   1.211   4.685   9.715 -1.2831  0.3012 -0.3043
   60CHL1  H18C 6876   1.315   4.622   9.588  0.1889 -0.4495 -1.0204
   60CHL1   C12 6877   0.969   4.571   9.596  0.1324 -0.3494 -0.1369
   60CHL1  H12A 6878   0.924   4.657   9.542 -0.0275 -0.8026 -0.7357
   60CHL1  H12B 6879   0.912   4.485   9.555 -0.9310  0.9514 -1.4823
   60CHL1   C11 6880   0.943   4.580   9.745 -0.0570 -0.4678 -0.3195
   60CHL1  H11A 6881   0.990   4.674   9.780 -0.9035 -0.0135 -0.3867
   60CHL1  H11B 6882   0.834   4.595   9.758  0.1749  2.7577 -1.2228
   60CHL1    C9 6883   1.011   4.469   9.828 -0.3103  0.1645 -0.5677
   60CHL1    H9 6884   0.943   4.384   9.806 -2.5521  2.1196 -1.6800
   60CHL1   C10 6885   1.003   4.490   9.981  0.5105  0.6022 -0.2227
   60CHL1   C19 6886   1.078   4.618  10.017 -0.3537  0.4634  0.2408
   60CHL1  H19A 6887   1.177   4.618   9.966 -1.1112 -0.4956 -1.3022
   60CHL1  H19B 6888   1.032   4.702   9.961 -0.4073  0.6416  0.5511
   60CHL1  H19C 6889   1.086   4.626  10.128  2.8015 -1.3422  0.2754
   60CHL1    C1 6890   0.848   4.491  10.020 -0.7186  0.3687  0.8595
   60CHL1   H1A 6891   0.794   4.571   9.965 -1.0730  0.5355  1.4306
   60CHL1   H1B 6892   0.814   4.392   9.983  0.4904  0.3863 -0.3648
   60CHL1    C2 6893   0.825   4.503  10.176  0.4351 -0.1837  0.6861
   60CHL1   H2A 6894   0.716   4.499  10.192  0.1331  1.7319 -0.5563
   60CHL1   H2B 6895   0.875   4.595  10.213  1.8215 -1.3307  1.7786
   60CHL1   C20 6896   1.165   4.612   9.313 -0.2488 -0.0734  0.2881
   60CHL1   H20 6897   1.237   4.694   9.336  1.1631 -0.2590 -2.9616
   60CHL1   C21 6898   1.027   4.680   9.299 -0.2044  0.3295 -0.2273
   60CHL1  H21A 6899   0.941   4.610   9.294 -0.0519  0.2366 -2.0684
   60CHL1  H21B 6900   1.030   4.732   9.201  0.5000  0.5517 -0.0926
   60CHL1  H21C 6901   1.023   4.761   9.375 -0.5117 -0.4667  0.6214
   60CHL1   C22 6902   1.213   4.554   9.172  0.2848 -0.2121 -0.2534
   60CHL1  H22A 6903   1.232   4.638   9.102 -3.5167  0.3027 -0.8759
   60CHL1  H22B 6904   1.312   4.508   9.193  0.2627 -0.2149 -0.1575
   60CHL1   C23 6905   1.119   4.455   9.105 -0.0153 -0.4283  0.1642
   60CHL1  H23A 6906   1.102   4.374   9.179  1.0400 -0.1294  0.7390
   60CHL1  H23B 6907   1.019   4.503   9.093  0.0200 -0.7553 -1.8522
   60CHL1   C24 6908   1.183   4.395   8.980 -0.1489 -0.7191  0.2812
   60CHL1  H24A 6909   1.097   4.393   8.910 -0.8002  0.9431  0.9661
   60CHL1  H24B 6910   1.246   4.474   8.934 -1.2613  0.3160  0.4850
   60CHL1   C25 6911   1.255   4.257   8.996 -0.1723 -0.1148  0.0964
   60CHL1   H25 6912   1.187   4.186   9.047  1.8808 -2.7324 -0.5658
   60CHL1   C26 6913   1.279   4.187   8.858 -0.1453 -0.0572  0.9083
   60CHL1  H26A 6914   1.190   4.211   8.796  0.7819 -0.2598 -0.5728
   60CHL1  H26B 6915   1.364   4.245   8.814 -0.8171  1.5227  1.6066
   60CHL1  H26C 6916   1.320   4.085   8.872 -0.6499  0.0933  4.2752
   60CHL1   C27 6917   1.389   4.255   9.075  0.0365  0.0299 -0.3218
   60CHL1  H27A 6918   1.391   4.297   9.178  3.2069  2.0312 -1.0447
   60CHL1  H27B 6919   1.434   4.154   9.083  0.4941  0.3486  1.8999
   60CHL1  H27C 6920   1.458   4.315   9.011 -0.1862  1.8233  1.0345
   61CHL1    C3 6921   3.734   2.027   9.933  0.4687 -0.2733 -0.1779
   61CHL1    H3 6922   3.787   2.123   9.919  2.1369 -0.9643  1.0742
   61CHL1    O3 6923   3.707   2.010  10.068  0.3999 -0.0905  0.3126
   61CHL1   H3' 6924   3.655   1.929  10.073  0.3879 -0.1509 -0.5985
   61CHL1    C4 6925   3.610   2.021   9.849  0.6328 -0.5227  0.8058
   61CHL1   H4A 6926   3.555   1.924   9.848 -0.7044  0.1965 -0.6619
   61CHL1   H4B 6927   3.534   2.094   9.882 -1.9378 -2.9866  0.7897
   61CHL1    C5 6928   3.646   2.035   9.697 -0.1235 -0.0477  0.0790
   61CHL1    C6 6929   3.597   2.136   9.626  0.1254  0.3487  0.5134
   61CHL1    H6 6930   3.536   2.211   9.679  1.1353  1.0763  0.6740
   61CHL1    C7 6931   3.627   2.160   9.482 -0.0580 -0.6320 -0.4337
   61CHL1   H7A 6932   3.536   2.202   9.433 -1.7983 -0.6444  2.5516
   61CHL1   H7B 6933   3.719   2.221   9.466 -0.8823  0.6546 -0.4386
   61CHL1    C8 6934   3.669   2.026   9.416  0.0672 -0.0054 -0.0878
   61CHL1    H8 6935   3.582   1.958   9.417 -0.1172  0.1653  2.8994
   61CHL1   C14 6936   3.727   2.047   9.271 -0.4324 -0.6651  0.9196
   61CHL1   H14 6937   3.815   2.112   9.293  0.5126 -1.6469  0.1337
   61CHL1   C15 6938   3.638   2.124   9.177  0.2197  0.0010 -0.3605
   61CHL1  H15A 6939   3.529   2.107   9.194  0.5547 -0.8178  1.0702
   61CHL1  H15B 6940   3.656   2.231   9.203  0.3311  0.5918 -2.6546
   61CHL1   C16 6941   3.682   2.094   9.037 -0.4735 -0.0406 -0.1027
   61CHL1  H16A 6942   3.609   2.031   8.982  0.0400 -0.8329  0.0979
   61CHL1  H16B 6943   3.710   2.183   8.978 -1.2159  0.9388  0.9809
   61CHL1   C17 6944   3.800   1.986   9.054 -0.0059  0.1196  0.5138
   61CHL1   H17 6945   3.889   2.049   9.074  0.1284 -0.0350  0.4034
   61CHL1   C13 6946   3.779   1.927   9.193 -0.5272 -0.6354  0.0347
   61CHL1   C18 6947   3.669   1.818   9.171  0.4820  0.7388 -0.7910
   61CHL1  H18A 6948   3.588   1.865   9.111  0.6232  2.9188  0.6099
   61CHL1  H18B 6949   3.704   1.727   9.118  2.4049 -0.3111  2.0120
   61CHL1  H18C 6950   3.626   1.786   9.269 -1.2149  0.3912 -1.6156
   61CHL1   C12 6951   3.897   1.876   9.269  0.3546 -0.4667 -0.1943
   61CHL1  H12A 6952   3.932   1.777   9.231  2.3979  0.1184  0.0416
   61CHL1  H12B 6953   3.982   1.946   9.258 -0.5667  0.7913  0.5217
   61CHL1   C11 6954   3.872   1.860   9.424 -0.2700  0.3440  1.4472
   61CHL1  H11A 6955   3.816   1.764   9.436  0.5822 -0.2713  0.6458
   61CHL1  H11B 6956   3.972   1.858   9.471  0.5919  1.2360 -0.2920
   61CHL1    C9 6957   3.788   1.966   9.495 -0.2803 -0.0509 -0.2516
   61CHL1    H9 6958   3.855   2.054   9.501 -0.3072  0.2065 -2.6508
   61CHL1   C10 6959   3.745   1.935   9.647 -0.6783  0.7967  0.8006
   61CHL1   C19 6960   3.673   1.794   9.641 -0.2943 -0.2586 -0.8003
   61CHL1  H19A 6961   3.613   1.772   9.732  0.0314 -3.0921 -1.1885
   61CHL1  H19B 6962   3.598   1.792   9.559 -2.9649 -0.0215  1.4789
   61CHL1  H19C 6963   3.738   1.709   9.616 -2.8002 -2.5389 -0.0524
   61CHL1    C1 6964   3.864   1.917   9.739 -0.1046 -0.2860  0.3669
   61CHL1   H1A 6965   3.924   1.825   9.725  0.3373 -0.2695  1.9774
   61CHL1   H1B 6966   3.927   2.006   9.717 -0.9003 -0.2195 -1.9239
   61CHL1    C2 6967   3.828   1.914   9.889  0.9222 -0.1425  0.1864
   61CHL1   H2A 6968   3.924   1.919   9.945 -1.4273  0.5140  4.6387
   61CHL1   H2B 6969   3.778   1.817   9.909  1.5750 -0.8373 -1.3520
   61CHL1   C20 6970   3.826   1.902   8.924  0.2477 -0.4668 -0.2249
   61CHL1   H20 6971   3.740   1.833   8.909 -1.6605  1.8969 -0.6761
   61CHL1   C21 6972   3.958   1.814   8.945  0.6764 -0.4883 -0.2707
   61CHL1  H21A 6973   4.002   1.766   8.855  1.6550  0.8297 -0.5242
   61CHL1  H21B 6974   3.937   1.740   9.025  2.3377  0.9232  1.5521
   61CHL1  H21C 6975   4.034   1.883   8.988  0.6233  0.1046 -1.1089
   61CHL1   C22 6976   3.847   1.990   8.795  0.2912  0.6351 -0.2006
   61CHL1  H22A 6977   3.856   1.914   8.715  2.2104 -0.6353  1.1314
   61CHL1  H22B 6978   3.756   2.053   8.784 -0.2132  0.1999  1.2485
   61CHL1   C23 6979   3.975   2.071   8.799 -0.9032 -0.5142 -0.4170
   61CHL1  H23A 6980   3.980   2.145   8.882  0.6487 -0.4535 -0.5409
   61CHL1  H23B 6981   4.066   2.009   8.810 -1.1474 -0.9504 -0.8069
   61CHL1   C24 6982   4.000   2.152   8.670  0.0984  0.0420  0.7471
   61CHL1  H24A 6983   4.095   2.208   8.684 -0.8942  1.8530  0.5087
   61CHL1  H24B 6984   4.017   2.082   8.585 -1.5016 -2.2233  2.1763
   61CHL1   C25 6985   3.886   2.253   8.623 -0.4578 -1.2477 -0.7333
   61CHL1   H25 6986   3.782   2.216   8.633 -1.4386  1.4117 -0.2824
   61CHL1   C26 6987   3.891   2.372   8.716  0.0391  0.7850  0.7125
   61CHL1  H26A 6988   3.792   2.421   8.701 -0.5049 -0.4961 -0.1372
   61CHL1  H26B 6989   3.894   2.342   8.823 -1.1330  0.8538  0.7787
   61CHL1  H26C 6990   3.980   2.435   8.700  2.3301 -1.8500  2.2601
   61CHL1   C27 6991   3.916   2.293   8.474  0.0262 -1.1089  0.9944
   61CHL1  H27A 6992   3.850   2.381   8.458  0.8319  0.0855  3.6786
   61CHL1  H27B 6993   4.020   2.328   8.458 -0.9146  1.7272  0.4468
   61CHL1  H27C 6994   3.897   2.218   8.394 -0.9784  0.2758 -0.1263
   62CHL1    C3 6995   4.707   2.667  10.071  0.4626  1.0454  0.8754
   62CHL1    H3 6996   4.712   2.777  10.055  0.3688  1.1856  1.7842
   62CHL1    O3 6997   4.694   2.632  10.203  0.0263  0.2406  0.0630
   62CHL1   H3' 6998   4.669   2.540  10.211 -1.3572  0.5784 -0.1685
   62CHL1    C4 6999   4.575   2.621   9.998  0.0484 -0.1186  0.7174
   62CHL1   H4A 7000   4.556   2.513  10.014  2.8894 -0.5690  1.5972
   62CHL1   H4B 7001   4.498   2.681  10.052 -0.7600  0.5582 -1.1019
   62CHL1    C5 7002   4.578   2.650   9.854 -0.8097  0.0349  0.6988
   62CHL1    C6 7003   4.485   2.717   9.782  0.3359 -0.2276 -0.7029
   62CHL1    H6 7004   4.401   2.761   9.837  0.0313 -1.6707  0.0268
   62CHL1    C7 7005   4.487   2.728   9.631  0.0882 -0.4080 -0.1057
   62CHL1   H7A 7006   4.383   2.725   9.592  0.3601  1.2159 -1.0851
   62CHL1   H7B 7007   4.529   2.830   9.616  1.2373 -0.7528  0.5893
   62CHL1    C8 7008   4.588   2.644   9.556 -0.3694 -0.0093 -0.1326
   62CHL1    H8 7009   4.544   2.542   9.550 -0.7988 -0.0210  2.4467
   62CHL1   C14 7010   4.617   2.690   9.414 -0.2115 -0.3876 -0.2973
   62CHL1   H14 7011   4.661   2.791   9.426 -1.6845  0.2122  0.2172
   62CHL1   C15 7012   4.490   2.706   9.329  0.1010 -0.8625 -0.3127
   62CHL1  H15A 7013   4.434   2.610   9.338 -0.9934 -0.4120 -1.7721
   62CHL1  H15B 7014   4.426   2.790   9.364  0.0416 -2.1936  3.1074
   62CHL1   C16 7015   4.549   2.720   9.189  0.0267  0.2053  0.0286
   62CHL1  H16A 7016   4.490   2.643   9.134  0.0502  0.2986 -0.1276
   62CHL1  H16B 7017   4.536   2.820   9.142 -0.2394  0.5862  0.9076
   62CHL1   C17 7018   4.703   2.688   9.198 -0.5375  0.8487 -0.4130
   62CHL1   H17 7019   4.748   2.790   9.202  0.8961  0.2334 -0.3117
   62CHL1   C13 7020   4.724   2.617   9.335 -0.7439 -0.1849  0.2289
   62CHL1   C18 7021   4.687   2.466   9.322  0.6289  0.0763  0.0992
   62CHL1  H18A 7022   4.615   2.448   9.239 -0.8912 -0.2264  1.4226
   62CHL1  H18B 7023   4.776   2.404   9.300 -0.1880 -0.6995 -1.1354
   62CHL1  H18C 7024   4.633   2.436   9.414  0.2346  0.5933  0.0434
   62CHL1   C12 7025   4.857   2.631   9.414 -0.3130  0.7116 -0.4864
   62CHL1  H12A 7026   4.946   2.583   9.367  0.3604  0.5726  0.8668
   62CHL1  H12B 7027   4.877   2.740   9.405  1.0097  0.3980 -1.8507
   62CHL1   C11 7028   4.838   2.574   9.555 -0.2543 -0.2715  0.1371
   62CHL1  H11A 7029   4.834   2.463   9.567  0.5932 -0.0356  3.8566
   62CHL1  H11B 7030   4.931   2.595   9.612 -0.0860 -1.9568  0.5566
   62CHL1    C9 7031   4.724   2.640   9.636  0.7336  0.0678  0.8268
   62CHL1    H9 7032   4.750   2.748   9.632  0.9785 -0.0192 -0.4917
   62CHL1   C10 7033   4.711   2.603   9.786  0.3789  0.4203 -0.4678
   62CHL1   C19 7034   4.716   2.442   9.789 -0.2022 -0.2302  0.2722
   62CHL1  H19A 7035   4.824   2.421   9.774  0.3758  1.8530  1.2014
   62CHL1  H19B 7036   4.684   2.405   9.889  1.9553 -1.1454  0.6612
   62CHL1  H19C 7037   4.659   2.401   9.703  0.9608 -0.8123 -0.2440
   62CHL1    C1 7038   4.824   2.647   9.866 -0.9219 -1.1778 -0.4660
   62CHL1   H1A 7039   4.920   2.628   9.815 -0.7387  1.8838 -1.4405
   62CHL1   H1B 7040   4.830   2.757   9.881  1.1468 -1.3122  0.0225
   62CHL1    C2 7041   4.828   2.608  10.016  0.0303 -0.5815  0.7593
   62CHL1   H2A 7042   4.916   2.649  10.071  1.0570 -0.8087 -0.6578
   62CHL1   H2B 7043   4.832   2.499  10.036  2.0410 -0.4250  1.4778
   62CHL1   C20 7044   4.766   2.618   9.074  0.1788  0.2347  1.3387
   62CHL1   H20 7045   4.720   2.516   9.068  0.3937  0.1871  0.3420
   62CHL1   C21 7046   4.917   2.619   9.087 -0.4139 -0.2818  0.6364
   62CHL1  H21A 7047   4.956   2.543   9.158  1.3900 -1.7122 -1.7320
   62CHL1  H21B 7048   4.964   2.719   9.103 -0.0208 -0.2381 -0.6773
   62CHL1  H21C 7049   4.963   2.571   8.998  0.8068 -1.1095  1.6579
   62CHL1   C22 7050   4.726   2.683   8.938 -0.0773  0.0396 -0.6145
   62CHL1  H22A 7051   4.755   2.601   8.868 -0.1137 -2.1279  1.7512
   62CHL1  H22B 7052   4.615   2.687   8.943 -0.2489 -3.0935  0.0268
   62CHL1   C23 7053   4.795   2.818   8.907 -0.3356  0.2419 -0.2757
   62CHL1  H23A 7054   4.814   2.866   9.006  0.7951 -0.1037 -0.3197
   62CHL1  H23B 7055   4.893   2.817   8.856  0.7968  2.9096  1.5859
   62CHL1   C24 7056   4.692   2.896   8.824  1.0248  0.0231 -0.3283
   62CHL1  H24A 7057   4.593   2.901   8.874  1.3058 -0.6376  0.3238
   62CHL1  H24B 7058   4.733   2.999   8.818  0.7761  0.1680  0.3435
   62CHL1   C25 7059   4.675   2.851   8.678  0.3803 -0.0935 -0.1170
   62CHL1   H25 7060   4.687   2.741   8.680  2.4673  0.0849  0.1154
   62CHL1   C26 7061   4.534   2.897   8.637  0.3944  0.0690 -0.6080
   62CHL1  H26A 7062   4.459   2.832   8.686  0.5697 -0.9261 -1.6285
   62CHL1  H26B 7063   4.524   3.007   8.656  1.8732  0.2218 -0.5677
   62CHL1  H26C 7064   4.526   2.887   8.527 -4.2604  0.1897 -0.4773
   62CHL1   C27 7065   4.779   2.920   8.588 -0.1553 -0.9116 -0.1002
   62CHL1  H27A 7066   4.885   2.900   8.613 -0.6363 -0.0490  3.1514
   62CHL1  H27B 7067   4.763   2.882   8.485  0.9014 -1.0500 -0.2179
   62CHL1  H27C 7068   4.760   3.030   8.594  2.2992 -0.4063 -0.5235
   63CHL1    C3 7069   0.016   3.931  10.123 -0.0810  0.6004 -0.5333
   63CHL1    H3 7070   0.106   3.866  10.118  0.1776  1.0053 -1.2991
   63CHL1    O3 7071  -0.038   3.923  10.252  1.4156 -0.0034 -0.5838
   63CHL1   H3' 7072   0.035   3.940  10.312  2.4414 -1.4878 -1.3364
   63CHL1    C4 7073   0.053   4.076  10.091 -1.0247 -0.0320  0.1069
   63CHL1   H4A 7074  -0.038   4.137  10.112 -0.4194  0.1489  2.4275
   63CHL1   H4B 7075   0.126   4.106  10.168  0.3060 -1.1361 -0.6817
   63CHL1    C5 7076   0.109   4.091   9.948 -0.1035 -0.0736 -1.4176
   63CHL1    C6 7077   0.225   4.157   9.925 -0.0093  0.2654 -0.0283
   63CHL1    H6 7078   0.287   4.184  10.012 -1.0735  0.7422  0.5975
   63CHL1    C7 7079   0.278   4.186   9.788  0.2685  0.0180  0.9598
   63CHL1   H7A 7080   0.307   4.292   9.776 -0.0349 -0.0664 -0.6864
   63CHL1   H7B 7081   0.372   4.132   9.762  0.5421  0.9860 -0.1197
   63CHL1    C8 7082   0.169   4.158   9.678  0.0972 -0.4663  0.4879
   63CHL1    H8 7083   0.107   4.250   9.687 -2.2078 -1.7554 -1.2074
   63CHL1   C14 7084   0.236   4.147   9.546 -0.1270 -0.0427 -0.2763
   63CHL1   H14 7085   0.306   4.062   9.560 -0.9004 -0.9529 -1.7132
   63CHL1   C15 7086   0.321   4.260   9.495 -0.5379 -0.0231 -0.5862
   63CHL1  H15A 7087   0.284   4.360   9.524 -2.6928 -0.4289 -1.7271
   63CHL1  H15B 7088   0.418   4.246   9.546 -0.4555 -1.1146 -1.0041
   63CHL1   C16 7089   0.327   4.253   9.346 -0.1341  0.1614  0.6130
   63CHL1  H16A 7090   0.280   4.343   9.302  1.4114 -0.0222 -1.6213
   63CHL1  H16B 7091   0.434   4.258   9.315  0.4536  2.0449  2.6989
   63CHL1   C17 7092   0.243   4.130   9.306  0.3922  0.3720 -0.4641
   63CHL1   H17 7093   0.316   4.047   9.311 -1.3620 -1.1885  1.4501
   63CHL1   C13 7094   0.143   4.109   9.424 -0.7132  0.3294  0.1640
   63CHL1   C18 7095   0.027   4.220   9.420 -0.6161  0.0315  0.1679
   63CHL1  H18A 7096  -0.024   4.210   9.321  0.7705 -2.9136 -0.3629
   63CHL1  H18B 7097  -0.043   4.205   9.505  0.0256 -0.1474  0.6679
   63CHL1  H18C 7098   0.069   4.322   9.432 -0.8506  0.0657  0.7229
   63CHL1   C12 7099   0.090   3.971   9.454  0.7341  1.1306  0.1298
   63CHL1  H12A 7100   0.018   3.944   9.374 -0.6381 -1.3936  2.0669
   63CHL1  H12B 7101   0.169   3.893   9.454 -0.0424  0.2891 -1.7824
   63CHL1   C11 7102   0.017   3.964   9.594  0.4698  0.2224  0.6715
   63CHL1  H11A 7103  -0.076   4.018   9.567  1.7644  1.1805 -2.2776
   63CHL1  H11B 7104  -0.018   3.861   9.614  0.3163  0.1040 -0.1718
   63CHL1    C9 7105   0.098   4.025   9.708  0.3257  0.2912  0.2843
   63CHL1    H9 7106   0.182   3.955   9.731  0.4222  0.6328  0.9986
   63CHL1   C10 7107   0.017   4.024   9.838 -0.3064 -0.3681 -0.7686
   63CHL1   C19 7108  -0.113   4.110   9.817 -0.5686 -0.1167  0.1414
   63CHL1  H19A 7109  -0.185   4.066   9.744 -0.0287 -2.4680  0.9367
   63CHL1  H19B 7110  -0.173   4.110   9.910  0.4938  0.1675  0.8472
   63CHL1  H19C 7111  -0.099   4.213   9.778  2.4983 -2.0439 -4.8834
   63CHL1    C1 7112  -0.035   3.889   9.882 -0.1561 -0.3205  0.2046
   63CHL1   H1A 7113  -0.128   3.869   9.824  1.1219 -1.5441 -1.5461
   63CHL1   H1B 7114   0.047   3.819   9.857  0.1669 -0.5436  1.7472
   63CHL1    C2 7115  -0.082   3.870  10.025  0.7939 -0.3549  0.3078
   63CHL1   H2A 7116  -0.116   3.766  10.044 -1.6414  0.4661  0.7949
   63CHL1   H2B 7117  -0.174   3.930  10.041  2.6487  2.7492  0.2193
   63CHL1   C20 7118   0.190   4.137   9.163  0.3970  0.1289 -0.0551
   63CHL1   H20 7119   0.126   4.227   9.150 -2.5524 -2.1500 -2.6332
   63CHL1   C21 7120   0.109   4.006   9.130  0.1637  0.5462  0.0159
   63CHL1  H21A 7121   0.162   3.914   9.164 -2.5540 -1.1162  0.1183
   63CHL1  H21B 7122   0.093   4.002   9.021 -0.8280 -1.8700  0.1852
   63CHL1  H21C 7123   0.009   4.012   9.180  0.0428  0.4174 -0.2091
   63CHL1   C22 7124   0.295   4.161   9.055  0.1179  0.8253  0.6034
   63CHL1  H22A 7125   0.367   4.242   9.080 -0.1810  1.3131 -0.0810
   63CHL1  H22B 7126   0.355   4.068   9.046 -2.0640 -0.5403 -1.0468
   63CHL1   C23 7127   0.245   4.188   8.906  0.5465  0.2346  0.1474
   63CHL1  H23A 7128   0.185   4.106   8.861  0.5423  0.3224 -0.0095
   63CHL1  H23B 7129   0.187   4.283   8.911  1.1730  0.6396 -0.2382
   63CHL1   C24 7130   0.358   4.204   8.813  0.6492 -0.0566  0.5684
   63CHL1  H24A 7131   0.431   4.280   8.847  0.8377  0.0407 -0.0442
   63CHL1  H24B 7132   0.398   4.101   8.803 -0.4527 -0.3716 -1.1947
   63CHL1   C25 7133   0.310   4.241   8.667  0.4538  0.5157  0.3158
   63CHL1   H25 7134   0.226   4.313   8.667 -0.7688 -0.8548 -0.0852
   63CHL1   C26 7135   0.420   4.316   8.598 -0.4119  0.1114 -0.1736
   63CHL1  H26A 7136   0.504   4.243   8.593 -0.0533  0.6136 -2.2563
   63CHL1  H26B 7137   0.388   4.339   8.495  2.0367 -1.9952 -1.5199
   63CHL1  H26C 7138   0.455   4.405   8.655  1.1721  1.4366 -2.9940
   63CHL1   C27 7139   0.268   4.113   8.590  0.2334 -0.5447 -0.1628
   63CHL1  H27A 7140   0.174   4.073   8.633  0.5630  0.0997  1.1798
   63CHL1  H27B 7141   0.241   4.144   8.486  2.0405 -0.7793 -0.7509
   63CHL1  H27C 7142   0.356   4.045   8.591  0.1203 -0.6813  0.7180
   64CHL1    C3 7143   0.278   2.176  10.105  0.3784  0.1620 -0.1513
   64CHL1    H3 7144   0.228   2.077  10.111  4.2993 -1.9349  2.4761
   64CHL1    O3 7145   0.265   2.221  10.238  0.1258  0.2213 -0.1056
   64CHL1   H3' 7146   0.334   2.283  10.260 -0.5363  0.7883  0.4440
   64CHL1    C4 7147   0.426   2.171  10.079  0.5964  0.6229 -1.7961
   64CHL1   H4A 7148   0.460   2.274  10.103  0.8741 -0.1541  1.5951
   64CHL1   H4B 7149   0.488   2.107  10.144 -0.1632 -0.1087 -1.7837
   64CHL1    C5 7150   0.442   2.130   9.931 -0.1964  1.0415 -0.1292
   64CHL1    C6 7151   0.522   2.022   9.899  0.2917  0.3268 -0.2370
   64CHL1    H6 7152   0.556   1.948   9.973 -1.0243 -0.9919 -0.8968
   64CHL1    C7 7153   0.562   1.985   9.760 -0.6922  0.3744  0.0592
   64CHL1   H7A 7154   0.666   1.948   9.749 -0.6113  1.1211 -2.5229
   64CHL1   H7B 7155   0.504   1.893   9.740  1.3437 -1.1360  0.7383
   64CHL1    C8 7156   0.529   2.108   9.664  0.2005  0.4341  0.1721
   64CHL1    H8 7157   0.601   2.190   9.685 -0.1029  0.3614  1.6106
   64CHL1   C14 7158   0.560   2.061   9.519 -0.2818  0.0254  0.2523
   64CHL1   H14 7159   0.498   1.971   9.502  1.1700 -0.9826  0.0995
   64CHL1   C15 7160   0.706   2.039   9.477 -0.1377  0.1355 -0.2361
   64CHL1  H15A 7161   0.760   2.127   9.519  0.1440 -1.2218  2.4343
   64CHL1  H15B 7162   0.749   1.943   9.513  1.4214  0.8704 -0.0444
   64CHL1   C16 7163   0.705   2.040   9.323  0.3043  0.5039  0.0494
   64CHL1  H16A 7164   0.792   2.098   9.287  0.6670 -0.7696 -1.2059
   64CHL1  H16B 7165   0.717   1.938   9.281  2.5021  1.1098 -0.9469
   64CHL1   C17 7166   0.573   2.101   9.285  0.5575 -0.4493  0.3450
   64CHL1   H17 7167   0.501   2.019   9.265 -1.0320  0.9386  0.1285
   64CHL1   C13 7168   0.515   2.166   9.420  0.0504  0.3463 -0.0598
   64CHL1   C18 7169   0.588   2.303   9.426  0.1312 -0.1860  0.2326
   64CHL1  H18A 7170   0.552   2.370   9.345  3.0145  2.8336  1.2181
   64CHL1  H18B 7171   0.568   2.348   9.526  0.1305  0.7404 -0.1748
   64CHL1  H18C 7172   0.698   2.295   9.413 -0.1194  0.0266 -2.6209
   64CHL1   C12 7173   0.363   2.193   9.435  0.6837 -0.7933 -0.1339
   64CHL1  H12A 7174   0.326   2.275   9.370  0.6686  0.9242  1.9423
   64CHL1  H12B 7175   0.302   2.102   9.416  0.0187 -0.1172 -1.4023
   64CHL1   C11 7176   0.327   2.234   9.570  0.6604 -0.1141  0.0266
   64CHL1  H11A 7177   0.350   2.342   9.579 -0.9684  0.3125 -0.5319
   64CHL1  H11B 7178   0.216   2.232   9.581  0.7099 -0.6372  0.4818
   64CHL1    C9 7179   0.388   2.154   9.688 -1.1484  0.2158  0.4137
   64CHL1    H9 7180   0.345   2.051   9.684  2.5652 -1.6108  2.0655
   64CHL1   C10 7181   0.374   2.215   9.827  0.4936  0.1329 -0.2305
   64CHL1   C19 7182   0.436   2.358   9.836  0.7810  0.2577  0.3202
   64CHL1  H19A 7183   0.377   2.426   9.771 -0.8274 -3.9957 -3.2089
   64CHL1  H19B 7184   0.442   2.390   9.942 -0.6638 -0.7457  0.7294
   64CHL1  H19C 7185   0.542   2.352   9.802  0.7017 -0.1087  0.1399
   64CHL1    C1 7186   0.226   2.230   9.867  0.5149  0.6800  0.2589
   64CHL1   H1A 7187   0.191   2.306   9.795  0.0172 -0.3583 -0.6172
   64CHL1   H1B 7188   0.181   2.129   9.855  0.8760  0.3008  1.7943
   64CHL1    C2 7189   0.207   2.275  10.013 -0.0166  0.1613  0.7241
   64CHL1   H2A 7190   0.100   2.269  10.042 -0.5307 -0.7292 -1.2239
   64CHL1   H2B 7191   0.242   2.380  10.025  0.7565 -0.0148  0.0705
   64CHL1   C20 7192   0.591   2.191   9.153 -0.0010 -0.3011 -0.3520
   64CHL1   H20 7193   0.643   2.285   9.179 -2.5918  1.4885 -1.2062
   64CHL1   C21 7194   0.452   2.228   9.099  0.1451 -0.0024 -0.3603
   64CHL1  H21A 7195   0.470   2.301   9.017 -0.1989 -1.0193 -1.3568
   64CHL1  H21B 7196   0.388   2.280   9.174 -0.7524 -0.8036 -0.5485
   64CHL1  H21C 7197   0.386   2.156   9.047  0.6184 -1.9008  1.5248
   64CHL1   C22 7198   0.674   2.112   9.043 -0.1401 -0.5503 -0.1149
   64CHL1  H22A 7199   0.777   2.095   9.081 -0.2005 -1.2258 -0.2401
   64CHL1  H22B 7200   0.614   2.022   9.021 -1.2996  0.4140 -1.0005
   64CHL1   C23 7201   0.673   2.177   8.906 -0.9021 -0.2721 -0.0160
   64CHL1  H23A 7202   0.569   2.205   8.879 -1.2843  0.3034  1.8695
   64CHL1  H23B 7203   0.733   2.270   8.917 -0.1726 -0.9185  1.7456
   64CHL1   C24 7204   0.729   2.085   8.795  0.7248  0.6208 -0.3341
   64CHL1  H24A 7205   0.813   2.025   8.835 -0.5529 -1.2436 -0.3049
   64CHL1  H24B 7206   0.652   2.011   8.765 -0.1041  1.5454 -0.5600
   64CHL1   C25 7207   0.771   2.166   8.665  0.4159  0.4165  0.0889
   64CHL1   H25 7208   0.834   2.256   8.683 -2.1828  3.3228 -3.7708
   64CHL1   C26 7209   0.837   2.072   8.564 -0.5050  0.0130 -0.2690
   64CHL1  H26A 7210   0.771   2.003   8.508  1.4990 -3.2980  1.1065
   64CHL1  H26B 7211   0.891   2.138   8.493 -0.7089  0.4166 -0.0547
   64CHL1  H26C 7212   0.913   2.003   8.607 -0.2411 -1.1145 -2.4416
   64CHL1   C27 7213   0.645   2.219   8.598 -1.0212 -0.6392  0.2883
   64CHL1  H27A 7214   0.598   2.292   8.666  1.3410  0.8682  0.4386
   64CHL1  H27B 7215   0.673   2.279   8.509 -1.1378  0.1438  0.7749
   64CHL1  H27C 7216   0.574   2.140   8.565 -0.2714 -1.6737  1.0865
   65CHL1    C3 7217   2.360   5.357  10.302 -0.6438  0.8149  0.4205
   65CHL1    H3 7218   2.411   5.444  10.255 -1.0311  0.1730 -1.2656
   65CHL1    O3 7219   2.394   5.345  10.439  0.0840  0.2804  0.2147
   65CHL1   H3' 7220   2.331   5.277  10.465  2.4694 -1.2643  2.4512
   65CHL1    C4 7221   2.209   5.370  10.277 -0.2039  0.0761  0.3154
   65CHL1   H4A 7222   2.159   5.282  10.323  0.4540 -0.9066 -0.7833
   65CHL1   H4B 7223   2.178   5.463  10.329 -1.7091 -0.5437  0.5981
   65CHL1    C5 7224   2.184   5.372  10.129 -0.6380  0.1185 -1.1223
   65CHL1    C6 7225   2.116   5.474  10.074  0.1124  0.0186 -0.2160
   65CHL1    H6 7226   2.071   5.554  10.135 -0.0370  0.2575 -0.6351
   65CHL1    C7 7227   2.065   5.472   9.934  0.5032 -0.9205 -0.2150
   65CHL1   H7A 7228   1.958   5.500   9.931  0.3586 -0.8408  2.7828
   65CHL1   H7B 7229   2.122   5.547   9.874  1.9521 -1.0138  0.9742
   65CHL1    C8 7230   2.080   5.340   9.852 -0.5425  0.2281 -0.1592
   65CHL1    H8 7231   1.998   5.278   9.894 -0.4590  1.1623  1.4864
   65CHL1   C14 7232   2.075   5.360   9.697  1.0527  0.2686  0.0747
   65CHL1   H14 7233   2.153   5.439   9.691  1.2861 -0.0529 -2.9321
   65CHL1   C15 7234   1.949   5.406   9.642  0.6195 -0.4364  0.0917
   65CHL1  H15A 7235   1.865   5.343   9.677  1.2148 -0.8248  0.8410
   65CHL1  H15B 7236   1.932   5.507   9.685 -1.4153 -0.8087  0.2861
   65CHL1   C16 7237   1.960   5.388   9.492  0.2021 -0.4843  0.7139
   65CHL1  H16A 7238   1.872   5.327   9.462  0.8748 -1.2990  0.3492
   65CHL1  H16B 7239   1.971   5.487   9.443 -0.9020 -0.6680  0.0483
   65CHL1   C17 7240   2.095   5.306   9.465 -0.0102 -0.1872 -0.2643
   65CHL1   H17 7241   2.185   5.370   9.447  0.9305 -1.6725 -1.0665
   65CHL1   C13 7242   2.129   5.250   9.607  0.1506  0.3793  0.1901
   65CHL1   C18 7243   2.051   5.122   9.623  0.6557 -0.3576 -0.1595
   65CHL1  H18A 7244   1.946   5.126   9.585 -0.7722 -0.0159  3.4453
   65CHL1  H18B 7245   2.104   5.031   9.588  0.2439 -0.3356 -0.8685
   65CHL1  H18C 7246   2.039   5.098   9.731 -1.1359 -1.7845 -0.6279
   65CHL1   C12 7247   2.279   5.228   9.648  0.3602  0.2268  0.2780
   65CHL1  H12A 7248   2.316   5.136   9.598  1.4833  0.2728  0.9858
   65CHL1  H12B 7249   2.328   5.323   9.618 -1.0432  1.2076  0.9823
   65CHL1   C11 7250   2.286   5.192   9.796 -0.2340 -0.1606 -0.1319
   65CHL1  H11A 7251   2.239   5.093   9.812  0.6266 -0.5225  0.2662
   65CHL1  H11B 7252   2.394   5.174   9.816  0.0706  0.6695 -0.9643
   65CHL1    C9 7253   2.228   5.295   9.892  0.3263  0.8102  0.4956
   65CHL1    H9 7254   2.291   5.385   9.876  2.5936  0.1274  4.2016
   65CHL1   C10 7255   2.245   5.265  10.041  0.4694  0.8792 -0.0913
   65CHL1   C19 7256   2.179   5.126  10.075 -0.1171 -0.2065  0.2522
   65CHL1  H19A 7257   2.169   5.111  10.184 -0.2442 -2.0070  0.0233
   65CHL1  H19B 7258   2.079   5.122  10.027 -0.2341 -0.6019  0.5291
   65CHL1  H19C 7259   2.243   5.049  10.027 -2.0297 -1.3901 -0.5516
   65CHL1    C1 7260   2.400   5.256  10.075  0.4760 -0.4257 -0.4194
   65CHL1   H1A 7261   2.439   5.176  10.008  0.0432 -0.4475 -0.6464
   65CHL1   H1B 7262   2.450   5.351  10.046 -0.0569 -0.5565 -1.7942
   65CHL1    C2 7263   2.426   5.231  10.229  0.0304  0.2866 -0.9576
   65CHL1   H2A 7264   2.533   5.220  10.254 -0.3924  1.5904  1.8727
   65CHL1   H2B 7265   2.377   5.139  10.267 -1.8264  1.5056 -0.2270
   65CHL1   C20 7266   2.083   5.207   9.352 -0.2465 -0.4552  0.2710
   65CHL1   H20 7267   2.002   5.138   9.383 -3.4406  2.5360 -0.7902
   65CHL1   C21 7268   2.225   5.141   9.335 -0.1662  0.6124 -0.4226
   65CHL1  H21A 7269   2.304   5.219   9.336 -0.1066  0.5799 -1.4604
   65CHL1  H21B 7270   2.232   5.078   9.244  0.2076 -1.0749  0.7158
   65CHL1  H21C 7271   2.254   5.068   9.414 -0.6450  0.5778 -0.2785
   65CHL1   C22 7272   2.035   5.278   9.225 -0.5710  0.3318  0.1498
   65CHL1  H22A 7273   1.937   5.326   9.248  0.5578  2.5600  0.5007
   65CHL1  H22B 7274   2.108   5.360   9.209 -0.8376  0.6219  0.4051
   65CHL1   C23 7275   2.026   5.184   9.106 -0.0212 -0.2545 -0.2051
   65CHL1  H23A 7276   2.125   5.143   9.077 -0.0425 -0.2515 -0.2796
   65CHL1  H23B 7277   1.960   5.099   9.133 -0.8093  0.7355  1.1124
   65CHL1   C24 7278   1.976   5.265   8.984  0.3563  0.2604  0.0209
   65CHL1  H24A 7279   1.874   5.306   9.005  0.2365 -0.4067  0.7836
   65CHL1  H24B 7280   2.044   5.352   8.975 -0.2443  0.9805  1.9520
   65CHL1   C25 7281   1.979   5.185   8.849 -0.3683 -0.7665  0.6194
   65CHL1   H25 7282   2.058   5.108   8.854  0.2885 -0.2798 -1.2747
   65CHL1   C26 7283   1.853   5.108   8.829 -0.0479 -0.0710  0.7055
   65CHL1  H26A 7284   1.850   5.038   8.915  0.5847  0.4165  1.1333
   65CHL1  H26B 7285   1.765   5.174   8.845 -0.0920 -0.4081  2.0362
   65CHL1  H26C 7286   1.843   5.059   8.730  1.0210 -0.1340  0.6205
   65CHL1   C27 7287   2.002   5.285   8.738 -0.0598 -0.4652  0.4847
   65CHL1  H27A 7288   1.998   5.245   8.634  1.1434  0.3124  0.1105
   65CHL1  H27B 7289   1.924   5.363   8.734  0.0444 -0.3908 -0.1887
   65CHL1  H27C 7290   2.102   5.331   8.754 -0.3794  0.3455  0.1989
   66CHL1    C3 7291   6.180   5.196  10.396  0.3162 -0.3980  0.0085
   66CHL1    H3 7292   6.102   5.260  10.444 -0.0367 -1.9802  1.6314
   66CHL1    O3 7293   6.267   5.134  10.488  0.5027  0.8373 -0.4221
   66CHL1   H3' 7294   6.345   5.190  10.483  1.8962 -0.9063  0.4971
   66CHL1    C4 7295   6.097   5.086  10.317  0.1671 -1.6426  0.4330
   66CHL1   H4A 7296   6.162   5.000  10.292  1.2656 -1.2557  1.7797
   66CHL1   H4B 7297   6.032   5.039  10.394 -0.6139 -0.3169  0.6178
   66CHL1    C5 7298   6.022   5.128  10.190 -0.6137 -0.3062 -0.2417
   66CHL1    C6 7299   5.895   5.091  10.184  0.5661 -0.6913  0.7858
   66CHL1    H6 7300   5.851   5.027  10.262 -2.0235  0.6718  0.5387
   66CHL1    C7 7301   5.812   5.121  10.057 -0.0024 -0.6980  0.0187
   66CHL1   H7A 7302   5.771   5.029  10.010 -2.7175  0.9875 -1.0790
   66CHL1   H7B 7303   5.728   5.182  10.096  1.8925  0.6780  2.2099
   66CHL1    C8 7304   5.888   5.204   9.943 -0.5078  0.3145  0.1234
   66CHL1    H8 7305   5.954   5.132   9.890  0.4775  1.2834  0.0011
   66CHL1   C14 7306   5.796   5.273   9.847  0.2572 -0.5230 -0.2123
   66CHL1   H14 7307   5.751   5.349   9.914 -0.8408 -0.0485 -1.4613
   66CHL1   C15 7308   5.675   5.200   9.789 -0.7158  0.0603 -0.2342
   66CHL1  H15A 7309   5.709   5.121   9.719  0.0605 -0.2366  0.4633
   66CHL1  H15B 7310   5.603   5.153   9.860  0.8986  0.6837  1.9161
   66CHL1   C16 7311   5.631   5.305   9.684  0.5163 -0.1091  0.5613
   66CHL1  H16A 7312   5.624   5.254   9.585 -0.1971  0.3172  0.3759
   66CHL1  H16B 7313   5.533   5.351   9.711  0.1870 -0.5174  0.0906
   66CHL1   C17 7314   5.738   5.423   9.674  0.0820 -0.3974  0.5675
   66CHL1   H17 7315   5.708   5.499   9.750 -0.6810 -1.0434  0.9198
   66CHL1   C13 7316   5.861   5.354   9.739  0.1660 -0.1799 -0.4227
   66CHL1   C18 7317   5.939   5.254   9.645  0.3804 -0.4345 -0.1706
   66CHL1  H18A 7318   5.878   5.194   9.573 -0.0576  0.6007 -0.6856
   66CHL1  H18B 7319   6.007   5.308   9.576 -1.1175  1.5866 -0.1299
   66CHL1  H18C 7320   6.004   5.184   9.701 -1.7195 -1.0908  1.5680
   66CHL1   C12 7321   5.945   5.463   9.807  0.1177  0.4278  0.3160
   66CHL1  H12A 7322   6.008   5.524   9.739 -0.7443  1.9095  0.8168
   66CHL1  H12B 7323   5.882   5.531   9.867  0.0360 -1.3308  2.3311
   66CHL1   C11 7324   6.048   5.396   9.902 -0.1808 -0.2566  0.3697
   66CHL1  H11A 7325   6.121   5.350   9.832 -1.8913  1.1336 -2.5455
   66CHL1  H11B 7326   6.090   5.484   9.954 -0.8348  0.7609 -0.7586
   66CHL1    C9 7327   5.984   5.305  10.008  0.1240  0.2738  0.5450
   66CHL1    H9 7328   5.924   5.374  10.070  2.2852  1.2307  1.7088
   66CHL1   C10 7329   6.086   5.230  10.095 -0.8266 -0.4866  0.4684
   66CHL1   C19 7330   6.185   5.158  10.008 -0.3259 -0.0896  0.5149
   66CHL1  H19A 7331   6.133   5.091   9.936 -1.2679 -0.8793  1.8871
   66CHL1  H19B 7332   6.254   5.230   9.959  0.2013 -0.7873  0.2175
   66CHL1  H19C 7333   6.249   5.104  10.080  1.4767 -0.0252 -0.9457
   66CHL1    C1 7334   6.155   5.339  10.191 -0.4063 -0.4931 -0.7733
   66CHL1   H1A 7335   6.209   5.406  10.120 -0.6371 -0.9966 -1.4367
   66CHL1   H1B 7336   6.080   5.400  10.246  0.8106  1.2749 -0.9798
   66CHL1    C2 7337   6.258   5.289  10.295 -0.7937  0.1594 -0.2374
   66CHL1   H2A 7338   6.300   5.374  10.354  0.8473 -0.9974  0.3316
   66CHL1   H2B 7339   6.346   5.242  10.246 -0.7051  0.1272 -0.0512
   66CHL1   C20 7340   5.766   5.496   9.540  0.0279 -0.3058 -0.0485
   66CHL1   H20 7341   5.862   5.551   9.529 -0.8713  1.2808 -0.3525
   66CHL1   C21 7342   5.662   5.611   9.529 -0.9187 -0.0949 -0.7085
   66CHL1  H21A 7343   5.657   5.675   9.620 -1.5304 -1.2351  0.0805
   66CHL1  H21B 7344   5.561   5.566   9.519 -0.9726  0.1470 -1.3242
   66CHL1  H21C 7345   5.674   5.671   9.436  0.7346  1.6622  0.5538
   66CHL1   C22 7346   5.765   5.404   9.411  0.2421 -0.5582  0.0836
   66CHL1  H22A 7347   5.837   5.320   9.423 -0.7331 -1.5230 -0.6486
   66CHL1  H22B 7348   5.665   5.356   9.400 -0.7444  1.2196  0.8987
   66CHL1   C23 7349   5.802   5.477   9.279 -0.0121  0.3043  0.5002
   66CHL1  H23A 7350   5.737   5.565   9.260 -0.6764 -0.1466  0.6663
   66CHL1  H23B 7351   5.909   5.503   9.296  0.7616 -1.2262 -1.4886
   66CHL1   C24 7352   5.781   5.377   9.160 -0.2805  0.8469  0.3808
   66CHL1  H24A 7353   5.815   5.429   9.068 -1.6973  3.1600  1.0953
   66CHL1  H24B 7354   5.868   5.309   9.173  1.3890  3.2685  2.7721
   66CHL1   C25 7355   5.652   5.302   9.131 -0.5416 -0.1778 -0.0701
   66CHL1   H25 7356   5.625   5.252   9.227  2.2114  1.8558  1.9161
   66CHL1   C26 7357   5.551   5.412   9.088  0.0065  0.1266 -0.6775
   66CHL1  H26A 7358   5.588   5.453   8.992 -2.5044 -0.7743 -2.1359
   66CHL1  H26B 7359   5.448   5.377   9.063 -0.1178  0.8349 -1.1883
   66CHL1  H26C 7360   5.533   5.493   9.162 -0.3237 -1.4525  1.0582
   66CHL1   C27 7361   5.670   5.191   9.019 -0.2568 -0.2750 -0.6815
   66CHL1  H27A 7362   5.704   5.236   8.922  0.0278  2.9485  0.7696
   66CHL1  H27B 7363   5.742   5.115   9.052 -0.1703  0.8921  2.0544
   66CHL1  H27C 7364   5.566   5.154   9.002 -0.3473 -1.3128  1.8283
   67CHL1    C3 7365   5.108   2.933  10.258  0.1566 -0.0368  0.4502
   67CHL1    H3 7366   5.217   2.916  10.255  0.2913  0.5329  1.6030
   67CHL1    O3 7367   5.059   2.900  10.387 -0.2025 -0.5387  0.0522
   67CHL1   H3' 7368   4.966   2.924  10.379 -0.5728 -0.7515  2.6154
   67CHL1    C4 7369   5.088   3.085  10.241  0.9779  0.3005  0.0280
   67CHL1   H4A 7370   4.981   3.105  10.266  0.6486  0.2055 -1.2227
   67CHL1   H4B 7371   5.146   3.140  10.318  2.5962  0.0860 -0.9867
   67CHL1    C5 7372   5.113   3.139  10.099  0.5533 -0.3545  0.6039
   67CHL1    C6 7373   5.193   3.245  10.072  0.4332 -0.7507 -0.3194
   67CHL1    H6 7374   5.227   3.307  10.157  1.6372  0.2170 -1.4770
   67CHL1    C7 7375   5.227   3.294   9.932  0.5155  0.6255 -0.0169
   67CHL1   H7A 7376   5.217   3.404   9.925 -2.8188  0.5593  1.7551
   67CHL1   H7B 7377   5.327   3.255   9.904 -0.5500 -1.5671 -0.9709
   67CHL1    C8 7378   5.131   3.232   9.827  0.6691 -0.0500  0.7008
   67CHL1    H8 7379   5.040   3.292   9.849  0.1947 -0.1522 -0.8763
   67CHL1   C14 7380   5.175   3.256   9.682 -0.0169  0.7282  1.1652
   67CHL1   H14 7381   5.267   3.194   9.670 -0.7210 -0.3486  1.2228
   67CHL1   C15 7382   5.217   3.399   9.648 -0.0697 -0.1270  0.9606
   67CHL1  H15A 7383   5.135   3.473   9.661 -0.3242  0.1729 -1.7554
   67CHL1  H15B 7384   5.309   3.439   9.696  0.1661 -0.8175  1.0995
   67CHL1   C16 7385   5.223   3.388   9.493  0.2016 -0.5073  0.3966
   67CHL1  H16A 7386   5.158   3.465   9.446 -2.3673 -1.9411  1.4160
   67CHL1  H16B 7387   5.329   3.393   9.458 -0.0641 -1.1953 -0.5729
   67CHL1   C17 7388   5.162   3.251   9.445  0.0505  0.4649 -0.3552
   67CHL1   H17 7389   5.250   3.184   9.444  1.2046  1.8727  1.2103
   67CHL1   C13 7390   5.087   3.198   9.570  0.2259 -0.7677  0.4410
   67CHL1   C18 7391   4.941   3.266   9.580 -0.2784 -0.0497 -0.4507
   67CHL1  H18A 7392   4.953   3.366   9.533  3.3765  0.2621  0.7977
   67CHL1  H18B 7393   4.862   3.216   9.520 -0.9179 -0.7210  0.9041
   67CHL1  H18C 7394   4.918   3.259   9.688  1.8164 -0.5742  0.0054
   67CHL1   C12 7395   5.085   3.049   9.592 -0.3060  0.5370  0.4752
   67CHL1  H12A 7396   5.036   2.992   9.511 -1.0381  1.9681 -0.1295
   67CHL1  H12B 7397   5.191   3.018   9.582 -0.5539 -0.0162 -0.5711
   67CHL1   C11 7398   5.031   3.016   9.732  0.7860  0.1214  0.6082
   67CHL1  H11A 7399   4.923   3.042   9.737  0.8004  0.3710 -0.2345
   67CHL1  H11B 7400   5.019   2.907   9.746  2.2848 -0.0510  0.7051
   67CHL1    C9 7401   5.110   3.083   9.844 -0.2555 -0.1427  0.6364
   67CHL1    H9 7402   5.213   3.043   9.844  1.2113  3.2680  0.5364
   67CHL1   C10 7403   5.047   3.052   9.981 -0.8865 -1.0950 -0.4997
   67CHL1   C19 7404   4.891   3.079   9.976  0.4139  0.0664 -0.1488
   67CHL1  H19A 7405   4.833   3.014   9.908 -3.0869 -1.3702  3.7512
   67CHL1  H19B 7406   4.845   3.068  10.077  0.2414  0.4545 -0.1862
   67CHL1  H19C 7407   4.885   3.188   9.956  0.7539  0.0961 -0.0979
   67CHL1    C1 7408   5.078   2.899  10.008 -0.1258 -0.3620  0.0908
   67CHL1   H1A 7409   5.026   2.843   9.927 -0.1822  0.9023 -0.7773
   67CHL1   H1B 7410   5.187   2.881  10.004  0.0738  0.4327  1.2734
   67CHL1    C2 7411   5.037   2.854  10.151 -0.2250  0.2143 -0.0956
   67CHL1   H2A 7412   5.066   2.747  10.161 -0.0166  0.2955  0.1664
   67CHL1   H2B 7413   4.927   2.855  10.169 -0.1680 -1.1302  0.4520
   67CHL1   C20 7414   5.086   3.260   9.309  0.7193 -0.9197  0.3734
   67CHL1   H20 7415   5.002   3.331   9.318  0.6085 -0.7953 -1.3210
   67CHL1   C21 7416   5.033   3.115   9.268  0.3227 -0.5199 -0.3896
   67CHL1  H21A 7417   4.975   3.113   9.174 -2.8959 -0.1894  1.4342
   67CHL1  H21B 7418   4.961   3.077   9.344  0.5061 -1.4341 -0.6642
   67CHL1  H21C 7419   5.118   3.044   9.261  2.0002  1.1395  1.5922
   67CHL1   C22 7420   5.181   3.327   9.194  0.5136  0.0068 -0.6076
   67CHL1  H22A 7421   5.271   3.368   9.244 -1.1667  0.4842  2.2962
   67CHL1  H22B 7422   5.209   3.262   9.109  2.8356  2.1612 -1.6321
   67CHL1   C23 7423   5.104   3.435   9.113  0.4485 -0.0823 -0.1374
   67CHL1  H23A 7424   5.023   3.385   9.055  1.7717 -0.5870 -1.6259
   67CHL1  H23B 7425   5.051   3.503   9.183 -0.0885 -0.7491  0.1059
   67CHL1   C24 7426   5.189   3.510   9.011 -0.2059 -0.1824  0.3210
   67CHL1  H24A 7427   5.273   3.569   9.056 -0.8278 -0.8479  2.4807
   67CHL1  H24B 7428   5.246   3.437   8.951 -1.2157 -0.7528  0.0408
   67CHL1   C25 7429   5.115   3.608   8.912 -0.6712 -0.2621  0.5672
   67CHL1   H25 7430   5.045   3.547   8.852 -0.1788 -3.2887  2.8265
   67CHL1   C26 7431   5.051   3.721   8.985 -1.2217  0.1793 -0.6893
   67CHL1  H26A 7432   5.023   3.792   8.905 -2.4663 -0.1520 -0.5764
   67CHL1  H26B 7433   4.953   3.694   9.030 -1.5107  2.1146 -0.0634
   67CHL1  H26C 7434   5.115   3.765   9.064 -1.8274  0.2727 -0.2434
   67CHL1   C27 7435   5.216   3.664   8.807  0.1531 -0.0398 -0.2403
   67CHL1  H27A 7436   5.294   3.722   8.860 -0.4974 -0.8623  1.7155
   67CHL1  H27B 7437   5.260   3.579   8.752 -0.1528 -0.1166 -0.3691
   67CHL1  H27C 7438   5.157   3.733   8.744 -1.2745 -1.3648 -0.4408
   68CHL1    C3 7439   2.510   3.562  10.161 -0.5688  0.2371 -1.0131
   68CHL1    H3 7440   2.419   3.622  10.140  0.3008  2.3191  0.7371
   68CHL1    O3 7441   2.526   3.539  10.302 -0.2668  0.0996  0.2596
   68CHL1   H3' 7442   2.464   3.469  10.324  0.5973 -0.1944  1.8909
   68CHL1    C4 7443   2.523   3.432  10.084 -0.6732 -0.8626 -0.0225
   68CHL1   H4A 7444   2.628   3.400  10.101  0.1862  2.1301  0.7815
   68CHL1   H4B 7445   2.447   3.361  10.124  1.0222 -1.2977  2.6371
   68CHL1    C5 7446   2.504   3.448   9.933 -0.4436 -0.4372 -0.5237
   68CHL1    C6 7447   2.406   3.391   9.863  0.5102 -0.1558  0.3074
   68CHL1    H6 7448   2.345   3.320   9.921  1.7851  0.0788  2.0201
   68CHL1    C7 7449   2.396   3.401   9.714  0.4898  0.6198 -0.0278
   68CHL1   H7A 7450   2.380   3.300   9.671  0.1236 -0.3683  2.2394
   68CHL1   H7B 7451   2.317   3.472   9.682  0.4371  0.0945 -1.0999
   68CHL1    C8 7452   2.525   3.459   9.650  0.6602  1.0248  0.6650
   68CHL1    H8 7453   2.595   3.373   9.661 -1.1604 -0.4374  1.1944
   68CHL1   C14 7454   2.514   3.481   9.501  0.1235  1.1067  0.2478
   68CHL1   H14 7455   2.427   3.548   9.484 -1.4482 -0.8976  0.0077
   68CHL1   C15 7456   2.472   3.363   9.415 -0.4501 -0.0703 -0.0545
   68CHL1  H15A 7457   2.524   3.275   9.459  1.8533  2.2559  2.2088
   68CHL1  H15B 7458   2.362   3.355   9.431 -0.5994 -0.6140 -1.2397
   68CHL1   C16 7459   2.501   3.416   9.274 -0.2465 -0.2954 -0.1473
   68CHL1  H16A 7460   2.557   3.336   9.221 -0.2023  0.0198 -0.5758
   68CHL1  H16B 7461   2.410   3.441   9.216 -1.6474  0.3244  2.2044
   68CHL1   C17 7462   2.594   3.539   9.295 -0.1955 -0.0601 -0.2627
   68CHL1   H17 7463   2.536   3.632   9.279 -0.2704 -0.1640 -0.6022
   68CHL1   C13 7464   2.643   3.543   9.436  1.2585  0.3634  0.0957
   68CHL1   C18 7465   2.767   3.460   9.457  0.3984 -0.2312  0.3113
   68CHL1  H18A 7466   2.771   3.370   9.391  0.5290 -0.5450  0.7432
   68CHL1  H18B 7467   2.851   3.527   9.431 -0.5728  1.1432  0.5895
   68CHL1  H18C 7468   2.769   3.433   9.564  0.7357 -1.1606  0.0756
   68CHL1   C12 7469   2.657   3.679   9.500  0.3476 -0.2093  0.0564
   68CHL1  H12A 7470   2.748   3.729   9.463 -1.6935  2.6181 -1.5259
   68CHL1  H12B 7471   2.572   3.748   9.482  1.7365  2.0207  1.6739
   68CHL1   C11 7472   2.675   3.668   9.653  0.1495  0.0304 -0.3769
   68CHL1  H11A 7473   2.780   3.633   9.662 -0.3968 -1.4215  0.7091
   68CHL1  H11B 7474   2.660   3.775   9.681 -0.8439  0.7283 -3.1662
   68CHL1    C9 7475   2.572   3.585   9.723 -0.0076  0.2183  0.0790
   68CHL1    H9 7476   2.480   3.646   9.732  0.6969  1.0309  2.3522
   68CHL1   C10 7477   2.604   3.549   9.875 -0.4737  0.1311 -0.1840
   68CHL1   C19 7478   2.750   3.495   9.873  0.3742  0.3815  0.2049
   68CHL1  H19A 7479   2.769   3.449   9.972  1.5442 -0.4537 -0.3888
   68CHL1  H19B 7480   2.771   3.414   9.800  0.2369 -1.4410  2.1045
   68CHL1  H19C 7481   2.824   3.575   9.854  1.3328 -0.9234 -1.8537
   68CHL1    C1 7482   2.605   3.681   9.962 -0.0327  0.7659 -1.0064
   68CHL1   H1A 7483   2.685   3.746   9.923 -0.0700 -0.2115 -2.8059
   68CHL1   H1B 7484   2.518   3.743   9.932  1.5937  2.5194 -2.3387
   68CHL1    C2 7485   2.619   3.659  10.114 -0.2426 -0.6397  0.1273
   68CHL1   H2A 7486   2.618   3.758  10.165  0.7843 -1.2613  1.3947
   68CHL1   H2B 7487   2.716   3.613  10.142 -0.5848 -2.7029 -1.8242
   68CHL1   C20 7488   2.698   3.562   9.182  0.2697 -0.0756  0.2928
   68CHL1   H20 7489   2.775   3.482   9.181  0.0793 -0.2562 -0.8236
   68CHL1   C21 7490   2.771   3.696   9.191  0.2135  0.3120 -0.4418
   68CHL1  H21A 7491   2.702   3.782   9.180 -2.0508 -1.4954 -1.0453
   68CHL1  H21B 7492   2.842   3.691   9.106  0.4529 -2.2122 -0.1570
   68CHL1  H21C 7493   2.832   3.704   9.284 -0.7002 -0.1409  0.2100
   68CHL1   C22 7494   2.623   3.563   9.040 -0.6955  1.0065 -0.9280
   68CHL1  H22A 7495   2.532   3.500   9.038  2.8378 -4.7357 -1.2166
   68CHL1  H22B 7496   2.585   3.668   9.040  1.4276  1.8259 -2.2249
   68CHL1   C23 7497   2.715   3.541   8.924  0.2723 -0.4900  0.1086
   68CHL1  H23A 7498   2.790   3.623   8.917 -0.7573  0.5183  0.7012
   68CHL1  H23B 7499   2.767   3.444   8.939 -0.4415 -1.0043 -0.6906
   68CHL1   C24 7500   2.643   3.534   8.789 -0.1138 -0.5591  0.0448
   68CHL1  H24A 7501   2.586   3.439   8.784  1.2512 -1.3423 -1.7041
   68CHL1  H24B 7502   2.584   3.628   8.780 -1.4799 -1.5154 -1.7200
   68CHL1   C25 7503   2.732   3.525   8.662 -0.2814 -0.5541 -0.4464
   68CHL1   H25 7504   2.778   3.624   8.641  1.3061 -1.1643  0.0157
   68CHL1   C26 7505   2.845   3.419   8.665 -0.3004 -0.4033  0.4089
   68CHL1  H26A 7506   2.805   3.317   8.644 -0.3924  0.0590 -1.8241
   68CHL1  H26B 7507   2.910   3.423   8.575 -0.6759 -1.5880  0.0623
   68CHL1  H26C 7508   2.904   3.418   8.759 -1.2935  1.2799  1.0870
   68CHL1   C27 7509   2.636   3.493   8.539 -0.1870 -0.2760  1.2927
   68CHL1  H27A 7510   2.694   3.494   8.444 -2.5095  0.9327 -0.2316
   68CHL1  H27B 7511   2.598   3.392   8.567 -1.5655 -0.9574 -2.4902
   68CHL1  H27C 7512   2.556   3.570   8.527  0.6435  0.1533 -3.0610
   69CHL1    C3 7513   1.959   3.022   6.679 -0.9085  0.3275 -0.1071
   69CHL1    H3 7514   1.858   3.067   6.697 -1.5573 -1.0340 -0.2155
   69CHL1    O3 7515   1.994   3.029   6.543 -0.2724 -0.5545  0.4539
   69CHL1   H3' 7516   2.000   3.119   6.512  0.0974  0.9329  4.3276
   69CHL1    C4 7517   2.071   3.106   6.753  0.5870  0.5864 -0.8038
   69CHL1   H4A 7518   2.170   3.062   6.727  0.8832  0.4029  0.5712
   69CHL1   H4B 7519   2.066   3.210   6.715  3.6379  1.8095  1.7117
   69CHL1    C5 7520   2.047   3.105   6.899 -1.0358 -0.2906 -0.1374
   69CHL1    C6 7521   2.019   3.220   6.954  0.4112 -0.0097 -0.3259
   69CHL1    H6 7522   2.034   3.316   6.901  0.4948  0.5659  0.7096
   69CHL1    C7 7523   1.998   3.225   7.103 -0.1202  0.2836 -0.6805
   69CHL1   H7A 7524   2.061   3.298   7.159  0.3330 -1.5448  1.3806
   69CHL1   H7B 7525   1.896   3.257   7.132 -0.1541 -0.5753  0.2434
   69CHL1    C8 7526   2.016   3.094   7.177 -0.8903  0.2148  0.0512
   69CHL1    H8 7527   2.125   3.084   7.195 -0.9023 -1.2818 -0.5911
   69CHL1   C14 7528   1.941   3.095   7.310  0.6656 -0.1950 -0.8289
   69CHL1   H14 7529   1.833   3.086   7.284  0.3342 -0.2747  0.5310
   69CHL1   C15 7530   1.951   3.222   7.394  0.1666  0.6302  0.0268
   69CHL1  H15A 7531   2.050   3.271   7.386 -0.5488  2.1013 -0.0248
   69CHL1  H15B 7532   1.876   3.292   7.352  1.5984  0.7546 -2.5116
   69CHL1   C16 7533   1.927   3.173   7.538 -0.0447 -0.2002  0.0796
   69CHL1  H16A 7534   2.014   3.187   7.605 -3.4596  0.1052  4.9985
   69CHL1  H16B 7535   1.839   3.229   7.578  0.4259 -0.8114  2.0578
   69CHL1   C17 7536   1.890   3.018   7.524 -0.3337 -0.8041 -0.2438
   69CHL1   H17 7537   1.785   3.026   7.489  0.3507  2.9101 -1.9088
   69CHL1   C13 7538   1.966   2.975   7.400 -0.4373 -0.5278  0.0611
   69CHL1   C18 7539   2.116   2.961   7.437 -0.1971 -0.3522 -0.2735
   69CHL1  H18A 7540   2.127   2.871   7.501 -0.7815  0.2229  0.6774
   69CHL1  H18B 7541   2.184   2.953   7.350  0.0158 -2.0648  0.0243
   69CHL1  H18C 7542   2.152   3.049   7.495 -2.4361  0.7291 -0.4240
   69CHL1   C12 7543   1.906   2.858   7.325  0.1339  0.7781  0.3911
   69CHL1  H12A 7544   1.937   2.762   7.373 -1.4402  0.2489  0.3849
   69CHL1  H12B 7545   1.797   2.876   7.324  0.0679  0.6350 -2.3829
   69CHL1   C11 7546   1.957   2.844   7.181  0.3890  0.0821 -0.2009
   69CHL1  H11A 7547   2.056   2.795   7.199  0.4753  1.4341  4.1274
   69CHL1  H11B 7548   1.883   2.774   7.137 -1.1242 -1.0519  3.7274
   69CHL1    C9 7549   1.960   2.977   7.097 -0.7129  0.3398 -0.0096
   69CHL1    H9 7550   1.853   2.999   7.077 -1.0205  1.7248  2.7424
   69CHL1   C10 7551   2.027   2.963   6.955 -0.3196  0.2244  0.1804
   69CHL1   C19 7552   2.166   2.900   6.968  0.6491 -0.4194 -0.2402
   69CHL1  H19A 7553   2.226   2.916   6.876 -1.3417  0.1705 -1.5204
   69CHL1  H19B 7554   2.231   2.944   7.046 -1.4070  0.8058  0.8919
   69CHL1  H19C 7555   2.149   2.791   6.982 -1.5974 -0.0041  0.7692
   69CHL1    C1 7556   1.931   2.869   6.874  0.4364 -0.2529  0.0462
   69CHL1   H1A 7557   1.930   2.765   6.914 -0.6366 -0.3575 -0.2225
   69CHL1   H1B 7558   1.825   2.901   6.879  0.2793 -0.3437 -1.8955
   69CHL1    C2 7559   1.953   2.874   6.726  0.0599 -0.2703  0.4022
   69CHL1   H2A 7560   1.873   2.821   6.670  0.9598  0.6793 -1.8891
   69CHL1   H2B 7561   2.052   2.825   6.709  0.3153 -0.0274  1.1525
   69CHL1   C20 7562   1.895   2.944   7.656 -0.1654  0.2978 -0.6840
   69CHL1   H20 7563   2.000   2.923   7.685 -0.2161  1.8032  0.7441
   69CHL1   C21 7564   1.843   2.805   7.652 -0.0195 -0.3459 -0.2457
   69CHL1  H21A 7565   1.898   2.745   7.576  0.9118 -1.2203  1.0648
   69CHL1  H21B 7566   1.737   2.813   7.621  0.8892  1.5104 -3.2162
   69CHL1  H21C 7567   1.845   2.767   7.757 -2.0680  2.7200  1.0548
   69CHL1   C22 7568   1.838   3.024   7.775  0.6312  0.6842 -0.7448
   69CHL1  H22A 7569   1.777   3.109   7.738 -1.6934 -0.5045  0.1872
   69CHL1  H22B 7570   1.771   2.952   7.827 -2.3200  1.3158 -3.3400
   69CHL1   C23 7571   1.947   3.075   7.869 -0.2001  0.1949 -0.1371
   69CHL1  H23A 7572   2.018   2.991   7.884  0.8020  0.9021 -0.7859
   69CHL1  H23B 7573   2.008   3.159   7.829  1.3824 -1.0783 -0.4991
   69CHL1   C24 7574   1.885   3.129   7.996 -0.8864  0.1033 -0.1008
   69CHL1  H24A 7575   1.808   3.203   7.967  1.0895  2.6038  0.6758
   69CHL1  H24B 7576   1.833   3.054   8.059  0.0116 -0.6248 -0.1996
   69CHL1   C25 7577   1.980   3.212   8.088  0.4899  0.2511 -0.1507
   69CHL1   H25 7578   2.030   3.284   8.020 -0.8645  0.6779 -0.7398
   69CHL1   C26 7579   1.902   3.291   8.191 -0.1362  0.1471 -0.2161
   69CHL1  H26A 7580   1.832   3.360   8.138 -0.9561 -0.7278 -0.2986
   69CHL1  H26B 7581   1.848   3.211   8.247  2.3915 -1.9054 -0.5331
   69CHL1  H26C 7582   1.955   3.344   8.273 -1.3311 -0.3684  0.9432
   69CHL1   C27 7583   2.085   3.121   8.159  0.0198  0.7161 -0.6586
   69CHL1  H27A 7584   2.144   3.063   8.084  1.2344  0.2715  0.5919
   69CHL1  H27B 7585   2.146   3.182   8.229 -0.8202 -0.6838  1.3615
   69CHL1  H27C 7586   2.035   3.044   8.221  2.3930 -0.1760  0.2586
   70CHL1    C3 7587   4.772   0.611   6.998  0.4358 -0.5600 -0.3570
   70CHL1    H3 7588   4.758   0.501   6.999 -2.7244 -0.3341 -2.7690
   70CHL1    O3 7589   4.768   0.638   6.856 -0.0709 -0.6889 -0.1297
   70CHL1   H3' 7590   4.770   0.733   6.839 -1.4302 -0.3837  1.1169
   70CHL1    C4 7591   4.654   0.685   7.070  0.5945  0.1888  0.7920
   70CHL1   H4A 7592   4.652   0.792   7.042  1.5821  0.2467  0.9093
   70CHL1   H4B 7593   4.560   0.651   7.023  0.6351  1.6797 -0.4379
   70CHL1    C5 7594   4.660   0.664   7.218 -0.1174  0.3266 -0.2572
   70CHL1    C6 7595   4.554   0.617   7.291 -0.5307  0.5449 -0.1349
   70CHL1    H6 7596   4.461   0.592   7.239 -0.3696  1.1757 -0.7282
   70CHL1    C7 7597   4.557   0.602   7.442 -0.2239  0.0797 -0.6392
   70CHL1   H7A 7598   4.457   0.629   7.483 -0.3746 -1.9740  0.5097
   70CHL1   H7B 7599   4.562   0.492   7.462  1.1295  0.0487 -1.0832
   70CHL1    C8 7600   4.673   0.677   7.513  0.8212  0.6018  0.9130
   70CHL1    H8 7601   4.660   0.787   7.502  1.6687  0.4035 -3.9986
   70CHL1   C14 7602   4.695   0.620   7.652  0.2436 -0.2526 -0.2672
   70CHL1   H14 7603   4.723   0.513   7.641 -1.3199 -0.5161 -2.4560
   70CHL1   C15 7604   4.573   0.611   7.749  0.0318  0.4729  1.0203
   70CHL1  H15A 7605   4.499   0.691   7.725 -0.7584 -0.9945 -1.9925
   70CHL1  H15B 7606   4.526   0.512   7.733  0.6312  0.6301 -2.6779
   70CHL1   C16 7607   4.635   0.624   7.889  0.0365 -0.1062 -0.0540
   70CHL1  H16A 7608   4.603   0.722   7.931  3.6960  1.4788 -0.5996
   70CHL1  H16B 7609   4.608   0.536   7.951  0.0310  0.9514  1.5042
   70CHL1   C17 7610   4.791   0.629   7.871  0.0924  0.3596 -0.4359
   70CHL1   H17 7611   4.828   0.525   7.857 -0.7673 -0.4583  2.6269
   70CHL1   C13 7612   4.812   0.692   7.734  0.2923 -0.5284  0.2947
   70CHL1   C18 7613   4.791   0.847   7.724  0.0099  0.0872  0.3647
   70CHL1  H18A 7614   4.808   0.896   7.626 -1.6413  0.6327  0.3163
   70CHL1  H18B 7615   4.695   0.871   7.774  0.7073  1.8502  0.9384
   70CHL1  H18C 7616   4.869   0.902   7.781  3.4213 -1.4659 -2.3883
   70CHL1   C12 7617   4.940   0.652   7.659 -0.0802  0.5323 -0.0491
   70CHL1  H12A 7618   5.027   0.706   7.704  0.2322  0.8754 -1.0363
   70CHL1  H12B 7619   4.959   0.545   7.679 -0.1119  0.9870  2.7270
   70CHL1   C11 7620   4.929   0.690   7.507  0.1423  0.3453  0.0563
   70CHL1  H11A 7621   4.950   0.799   7.500  4.7995 -0.3561 -0.2764
   70CHL1  H11B 7622   5.012   0.639   7.454 -0.9093 -1.0797 -0.3096
   70CHL1    C9 7623   4.803   0.644   7.431  0.5018  0.1170  0.3329
   70CHL1    H9 7624   4.819   0.535   7.417 -0.5651  0.0521 -0.4861
   70CHL1   C10 7625   4.801   0.697   7.282 -0.4158 -0.0904  0.2204
   70CHL1   C19 7626   4.827   0.849   7.281  0.3351 -0.1863 -0.1952
   70CHL1  H19A 7627   4.933   0.867   7.309  0.1062  0.2301  0.4199
   70CHL1  H19B 7628   4.802   0.896   7.184 -0.8413 -3.0300 -1.3953
   70CHL1  H19C 7629   4.758   0.899   7.353  0.6212  0.5528 -0.4289
   70CHL1    C1 7630   4.915   0.637   7.200 -0.3893 -0.2927 -0.7229
   70CHL1   H1A 7631   5.018   0.669   7.227  0.1838 -0.6670 -2.3477
   70CHL1   H1B 7632   4.915   0.530   7.229  0.0929  0.4071  2.1721
   70CHL1    C2 7633   4.904   0.661   7.054  0.3594 -0.6129 -0.1208
   70CHL1   H2A 7634   4.982   0.613   6.991  0.5003  0.6490 -0.9528
   70CHL1   H2B 7635   4.917   0.764   7.015  0.0304 -1.0793 -1.5255
   70CHL1   C20 7636   4.870   0.678   7.987  0.1216  0.0943 -0.7357
   70CHL1   H20 7637   4.960   0.730   7.950  0.5940  0.7119  1.1447
   70CHL1   C21 7638   4.931   0.554   8.064  0.0571 -0.2388  0.0470
   70CHL1  H21A 7639   4.848   0.491   8.104 -0.8415 -0.5022 -2.0971
   70CHL1  H21B 7640   4.999   0.588   8.144  1.9288 -0.6343 -1.3170
   70CHL1  H21C 7641   4.995   0.498   7.993  0.7116  0.7378 -0.1573
   70CHL1   C22 7642   4.800   0.774   8.085 -0.0727  0.9749  0.7139
   70CHL1  H22A 7643   4.764   0.858   8.023 -2.7489 -0.2596  0.4199
   70CHL1  H22B 7644   4.703   0.733   8.122  0.5938 -1.5044 -0.0669
   70CHL1   C23 7645   4.893   0.817   8.199 -0.4930 -0.4341  0.0853
   70CHL1  H23A 7646   4.919   0.730   8.263 -0.8634  0.0217  0.8629
   70CHL1  H23B 7647   4.980   0.864   8.148  1.0600 -1.7052  1.4456
   70CHL1   C24 7648   4.830   0.930   8.288  0.3027  0.2390 -0.4932
   70CHL1  H24A 7649   4.790   1.009   8.220 -0.3453  0.5097  0.1914
   70CHL1  H24B 7650   4.744   0.892   8.346  1.4139 -0.1938  0.9065
   70CHL1   C25 7651   4.932   0.992   8.374 -0.3527 -0.6660 -1.2890
   70CHL1   H25 7652   5.020   1.023   8.315  0.2590 -0.6374 -0.3815
   70CHL1   C26 7653   4.874   1.117   8.447  0.5797 -0.0595  0.0288
   70CHL1  H26A 7654   4.956   1.171   8.499  0.1674  1.9537 -1.2906
   70CHL1  H26B 7655   4.827   1.185   8.372 -0.5753 -0.2360  0.5611
   70CHL1  H26C 7656   4.789   1.096   8.516 -0.7013 -1.0219 -1.7492
   70CHL1   C27 7657   4.979   0.899   8.490 -0.3443  0.3446 -0.3223
   70CHL1  H27A 7658   4.889   0.857   8.540  0.6029  0.3742  1.4999
   70CHL1  H27B 7659   5.039   0.814   8.451  1.1590  1.0086  0.4529
   70CHL1  H27C 7660   5.041   0.951   8.566 -0.7517 -0.2463  0.4286
   71CHL1    C3 7661   0.558   2.401   6.889  0.0961  0.2389  0.1501
   71CHL1    H3 7662   0.544   2.292   6.870 -1.7388  0.6747 -1.1959
   71CHL1    O3 7663   0.591   2.459   6.766 -0.1302 -0.2262 -0.2296
   71CHL1   H3' 7664   0.652   2.532   6.780  0.9475 -1.4045  1.5517
   71CHL1    C4 7665   0.427   2.461   6.932 -0.0288  0.1468  0.5493
   71CHL1   H4A 7666   0.428   2.572   6.930 -0.7102  0.1815  1.3254
   71CHL1   H4B 7667   0.355   2.420   6.858  0.6036 -0.4485  0.2446
   71CHL1    C5 7668   0.388   2.429   7.072  0.4680  0.4608  0.2429
   71CHL1    C6 7669   0.267   2.386   7.104  0.1287  0.4031  0.4650
   71CHL1    H6 7670   0.189   2.370   7.027  1.8892 -0.6549 -1.1913
   71CHL1    C7 7671   0.221   2.358   7.243  0.2919  0.5846  0.3706
   71CHL1   H7A 7672   0.117   2.396   7.241 -0.5599 -1.6416 -0.1532
   71CHL1   H7B 7673   0.221   2.249   7.259  0.1778  0.8428  2.3674
   71CHL1    C8 7674   0.311   2.422   7.353  0.0406 -0.2421  0.7164
   71CHL1    H8 7675   0.281   2.530   7.352  0.1008 -0.2027 -1.8610
   71CHL1   C14 7676   0.280   2.363   7.493 -0.0113 -0.0064  0.1337
   71CHL1   H14 7677   0.313   2.258   7.479  2.8796  0.8548 -0.2286
   71CHL1   C15 7678   0.139   2.371   7.539 -0.6603  0.6380  0.1232
   71CHL1  H15A 7679   0.080   2.461   7.514  0.8455  1.4347 -0.6751
   71CHL1  H15B 7680   0.078   2.284   7.506 -2.1497  0.6230  2.6163
   71CHL1   C16 7681   0.157   2.357   7.696  0.7855  0.2151  0.3381
   71CHL1  H16A 7682   0.113   2.447   7.744  3.5862  0.1365  3.4208
   71CHL1  H16B 7683   0.107   2.264   7.731 -0.6566  0.8612  0.0776
   71CHL1   C17 7684   0.305   2.360   7.727  0.1294 -0.5536 -0.9188
   71CHL1   H17 7685   0.324   2.250   7.736 -0.8867 -0.6189  1.1498
   71CHL1   C13 7686   0.368   2.425   7.606 -0.2948  0.4200 -0.2599
   71CHL1   C18 7687   0.359   2.575   7.611 -0.1262 -0.5932 -0.0172
   71CHL1  H18A 7688   0.365   2.627   7.513  2.4371  0.5550  0.6579
   71CHL1  H18B 7689   0.260   2.595   7.658 -0.8299  0.7813 -1.9713
   71CHL1  H18C 7690   0.439   2.617   7.676 -0.3858  0.9777 -0.6517
   71CHL1   C12 7691   0.510   2.387   7.573  1.3956 -0.6809 -0.0006
   71CHL1  H12A 7692   0.577   2.427   7.652 -2.4596  4.3021  1.2870
   71CHL1  H12B 7693   0.506   2.276   7.565 -0.8356 -0.5775 -1.0719
   71CHL1   C11 7694   0.558   2.441   7.432  0.0894  0.2302 -0.8438
   71CHL1  H11A 7695   0.560   2.551   7.446 -0.8910  0.3096 -1.2946
   71CHL1  H11B 7696   0.665   2.414   7.420  0.0835 -0.2822  0.1351
   71CHL1    C9 7697   0.460   2.395   7.320  0.2871  0.3523 -0.0570
   71CHL1    H9 7698   0.474   2.285   7.319  0.1121  0.3296 -0.2037
   71CHL1   C10 7699   0.502   2.451   7.178  0.6008 -0.2623 -0.6903
   71CHL1   C19 7700   0.541   2.601   7.194 -0.0128  0.0701  1.1424
   71CHL1  H19A 7701   0.461   2.660   7.245 -2.0836 -0.3035 -1.4200
   71CHL1  H19B 7702   0.631   2.599   7.260 -1.3623  1.4304  3.1585
   71CHL1  H19C 7703   0.569   2.650   7.099 -1.8051 -0.3337  0.3649
   71CHL1    C1 7704   0.630   2.380   7.130 -0.7483  0.7472  0.0896
   71CHL1   H1A 7705   0.717   2.398   7.195  0.0953  1.9219 -1.2925
   71CHL1   H1B 7706   0.613   2.271   7.143  1.0770  0.5491  1.1002
   71CHL1    C2 7707   0.675   2.428   6.991 -0.0557  0.3100  1.0054
   71CHL1   H2A 7708   0.766   2.375   6.956  0.1527  1.1352  0.2583
   71CHL1   H2B 7709   0.712   2.533   6.981  2.6282 -0.6362  0.0260
   71CHL1   C20 7710   0.338   2.415   7.868 -1.3466 -0.1921  0.4531
   71CHL1   H20 7711   0.301   2.519   7.882  2.8550  1.7976 -1.6575
   71CHL1   C21 7712   0.490   2.428   7.886 -0.3347 -0.8834 -0.4959
   71CHL1  H21A 7713   0.538   2.506   7.824  0.6622  0.2767  1.6257
   71CHL1  H21B 7714   0.539   2.329   7.875  1.1354 -0.5364  2.0781
   71CHL1  H21C 7715   0.515   2.465   7.988  2.1455  0.8911 -1.6389
   71CHL1   C22 7716   0.270   2.338   7.984 -0.6511 -0.1140  0.3435
   71CHL1  H22A 7717   0.165   2.320   7.954 -0.4811 -0.8491  0.1645
   71CHL1  H22B 7718   0.320   2.240   7.970  1.5463  1.0075 -0.2297
   71CHL1   C23 7719   0.273   2.399   8.125 -0.3715 -0.5200  0.5394
   71CHL1  H23A 7720   0.377   2.430   8.148 -0.2070 -1.6674  1.4242
   71CHL1  H23B 7721   0.211   2.490   8.141  2.6373  1.8319 -0.2392
   71CHL1   C24 7722   0.247   2.290   8.228 -0.0144 -0.0929 -0.0517
   71CHL1  H24A 7723   0.145   2.249   8.207  0.2795 -0.4088 -0.8841
   71CHL1  H24B 7724   0.315   2.204   8.212 -0.4639 -0.8316  1.7744
   71CHL1   C25 7725   0.251   2.325   8.377  0.2593 -1.0664  0.4612
   71CHL1   H25 7726   0.361   2.325   8.391  0.2993 -0.8514  0.1463
   71CHL1   C26 7727   0.192   2.463   8.417 -0.1975  0.3389  0.3281
   71CHL1  H26A 7728   0.238   2.548   8.363  2.2926 -0.7182  0.6092
   71CHL1  H26B 7729   0.082   2.462   8.403 -0.1607  0.5907  0.0125
   71CHL1  H26C 7730   0.212   2.478   8.526  2.5329  2.1944 -0.3217
   71CHL1   C27 7731   0.179   2.206   8.453 -0.1112  0.4502 -0.5163
   71CHL1  H27A 7732   0.229   2.110   8.426  1.0696  1.5191 -2.4108
   71CHL1  H27B 7733   0.187   2.218   8.563  0.2333 -0.7647 -0.3938
   71CHL1  H27C 7734   0.073   2.198   8.421 -0.7143 -0.1447  1.4850
   72CHL1    C3 7735   6.529   6.430   7.298  0.2510 -0.7121 -0.3556
   72CHL1    H3 7736   6.632   6.395   7.319  0.0165 -1.0449  0.3063
   72CHL1    O3 7737   6.532   6.499   7.179  0.1879 -0.1943  0.1828
   72CHL1   H3' 7738   6.440   6.525   7.179  0.4186  0.6781  0.5476
   72CHL1    C4 7739   6.426   6.316   7.294 -0.3271 -0.2332  0.1038
   72CHL1   H4A 7740   6.326   6.350   7.257  0.3381  2.8327  0.9011
   72CHL1   H4B 7741   6.467   6.239   7.225  1.0655  1.5516 -1.1528
   72CHL1    C5 7742   6.413   6.261   7.434 -0.1540 -0.2016 -0.1354
   72CHL1    C6 7743   6.438   6.125   7.450 -0.1022 -0.1113  0.4426
   72CHL1    H6 7744   6.473   6.067   7.364 -0.3529  0.2427  0.0951
   72CHL1    C7 7745   6.417   6.056   7.583 -0.5845  0.6828 -0.3005
   72CHL1   H7A 7746   6.377   5.954   7.566 -1.3755  0.9258  0.0669
   72CHL1   H7B 7747   6.519   6.041   7.624 -0.7719 -2.9206 -0.7804
   72CHL1    C8 7748   6.326   6.135   7.678  0.2883 -0.5428 -0.0908
   72CHL1    H8 7749   6.222   6.131   7.639 -0.3939  5.6360  0.1214
   72CHL1   C14 7750   6.333   6.066   7.815  0.1461 -0.3316  0.2559
   72CHL1   H14 7751   6.440   6.079   7.843 -0.1775  0.8553  1.0106
   72CHL1   C15 7752   6.312   5.916   7.822  0.3013  0.7043  0.7604
   72CHL1  H15A 7753   6.226   5.900   7.753  0.1269  1.8554  0.6837
   72CHL1  H15B 7754   6.398   5.856   7.787 -1.2473 -0.6477 -0.9815
   72CHL1   C16 7755   6.261   5.898   7.965  0.3220  0.3315  0.2497
   72CHL1  H16A 7756   6.161   5.849   7.966 -0.5910  2.0720 -0.3000
   72CHL1  H16B 7757   6.330   5.829   8.017  2.4260  0.7373 -1.8095
   72CHL1   C17 7758   6.262   6.040   8.037  0.5413  0.1999  0.0233
   72CHL1   H17 7759   6.362   6.058   8.080  0.0397  0.0596  1.2853
   72CHL1   C13 7760   6.249   6.138   7.923  0.0196  0.3954  1.2210
   72CHL1   C18 7761   6.098   6.133   7.890  0.1610  0.3585  0.7386
   72CHL1  H18A 7762   6.024   6.171   7.964  1.0163  0.4458  1.5611
   72CHL1  H18B 7763   6.080   6.172   7.787  0.1654  0.4563  0.7744
   72CHL1  H18C 7764   6.061   6.031   7.864 -3.3332  1.8178 -0.6568
   72CHL1   C12 7765   6.295   6.282   7.939  0.5989  0.2753  0.0977
   72CHL1  H12A 7766   6.229   6.343   8.006 -1.8825 -3.0066  0.8859
   72CHL1  H12B 7767   6.396   6.283   7.984  0.8929 -1.1960 -0.4702
   72CHL1   C11 7768   6.289   6.357   7.801 -1.1898 -0.4584  0.4873
   72CHL1  H11A 7769   6.183   6.363   7.768 -1.2209  0.8777  0.7814
   72CHL1  H11B 7770   6.320   6.463   7.811  0.8677 -1.1719  2.4809
   72CHL1    C9 7771   6.370   6.284   7.689  0.6671  0.3531 -0.0795
   72CHL1    H9 7772   6.475   6.300   7.723  2.1175  1.5905 -4.5538
   72CHL1   C10 7773   6.373   6.359   7.550  0.6671 -0.0521  0.6875
   72CHL1   C19 7774   6.223   6.404   7.526  0.4108 -0.1358  0.8225
   72CHL1  H19A 7775   6.215   6.420   7.416 -0.9824  0.1437  0.9502
   72CHL1  H19B 7776   6.157   6.321   7.557 -3.3676  2.1139 -0.4953
   72CHL1  H19C 7777   6.206   6.492   7.592  1.6209 -0.3290  1.4245
   72CHL1    C1 7778   6.480   6.461   7.543 -0.7856 -0.7966  0.3678
   72CHL1   H1A 7779   6.450   6.528   7.625 -1.8303 -0.2651 -0.4197
   72CHL1   H1B 7780   6.579   6.415   7.565 -0.0933  0.3989 -0.1337
   72CHL1    C2 7781   6.489   6.532   7.407 -1.0694  0.0111  0.8095
   72CHL1   H2A 7782   6.566   6.613   7.409 -0.5030 -0.4584 -0.7333
   72CHL1   H2B 7783   6.396   6.582   7.374 -0.6380 -0.0903 -0.6114
   72CHL1   C20 7784   6.160   6.046   8.158 -0.9617 -0.0129  0.4716
   72CHL1   H20 7785   6.062   6.027   8.108 -0.2013  1.6248 -1.7980
   72CHL1   C21 7786   6.152   6.178   8.242  0.5986  0.4464 -0.0644
   72CHL1  H21A 7787   6.129   6.266   8.178 -0.2549  2.2598  2.5380
   72CHL1  H21B 7788   6.246   6.205   8.295  1.1178  0.4478 -0.9665
   72CHL1  H21C 7789   6.069   6.173   8.316  1.4670  1.5048  1.0293
   72CHL1   C22 7790   6.184   5.919   8.253 -0.0480 -0.5957  0.7126
   72CHL1  H22A 7791   6.238   5.833   8.207 -1.7826 -1.3638 -0.0017
   72CHL1  H22B 7792   6.244   5.963   8.335  1.0796 -0.5638 -0.1097
   72CHL1   C23 7793   6.049   5.871   8.320 -0.1437 -0.4552 -0.8171
   72CHL1  H23A 7794   5.978   5.949   8.354 -0.6789 -1.0513 -0.5474
   72CHL1  H23B 7795   5.985   5.818   8.246 -2.2833  0.0070  0.6043
   72CHL1   C24 7796   6.086   5.783   8.438  0.2878  0.3701  0.4275
   72CHL1  H24A 7797   6.165   5.711   8.410 -0.0491 -1.3518  3.4884
   72CHL1  H24B 7798   6.131   5.851   8.513 -0.7890  1.3655  0.2059
   72CHL1   C25 7799   5.968   5.695   8.494 -0.1836  0.2911 -0.1658
   72CHL1   H25 7800   5.921   5.634   8.413  1.0389  0.6631 -1.1888
   72CHL1   C26 7801   6.030   5.603   8.601 -0.2568  0.8284 -0.7220
   72CHL1  H26A 7802   5.955   5.564   8.673  1.9572 -4.5800 -0.8813
   72CHL1  H26B 7803   6.066   5.511   8.550 -0.6437  1.0190 -1.3444
   72CHL1  H26C 7804   6.106   5.651   8.666 -1.2171 -1.6742  2.5244
   72CHL1   C27 7805   5.878   5.793   8.569 -0.6576 -0.1269  0.2674
   72CHL1  H27A 7806   5.937   5.856   8.639  2.5466 -0.4146 -1.9332
   72CHL1  H27B 7807   5.818   5.851   8.495 -1.3562 -2.8231 -1.4273
   72CHL1  H27C 7808   5.792   5.743   8.617 -0.2033 -1.4508 -0.2702
   73CHL1    C3 7809   4.982   4.475   6.903  0.3375  0.7304 -0.1662
   73CHL1    H3 7810   5.017   4.383   6.955 -0.1876 -0.8876 -2.5325
   73CHL1    O3 7811   4.977   4.451   6.763 -0.0952 -0.1157  0.3958
   73CHL1   H3' 7812   4.948   4.536   6.728  1.6015 -0.0725 -1.0801
   73CHL1    C4 7813   4.839   4.509   6.950 -0.3355  0.2051  0.4410
   73CHL1   H4A 7814   4.806   4.592   6.883 -1.4228 -1.9773 -1.9186
   73CHL1   H4B 7815   4.774   4.422   6.926 -0.3655 -0.0616  1.4439
   73CHL1    C5 7816   4.835   4.540   7.099 -0.1610 -0.2252  0.4579
   73CHL1    C6 7817   4.748   4.470   7.176  0.2286 -0.9073  0.4119
   73CHL1    H6 7818   4.672   4.401   7.136 -0.6066 -0.3572  1.0196
   73CHL1    C7 7819   4.742   4.487   7.326 -0.2287 -0.2144 -0.0907
   73CHL1   H7A 7820   4.638   4.504   7.361 -0.3894  1.7855 -1.3572
   73CHL1   H7B 7821   4.789   4.401   7.379 -0.6255 -0.7951 -0.6700
   73CHL1    C8 7822   4.816   4.613   7.378  0.0639  0.3896 -0.5154
   73CHL1    H8 7823   4.754   4.703   7.359  1.1466  1.3900  0.5712
   73CHL1   C14 7824   4.830   4.601   7.527  0.3368 -0.0402  0.2944
   73CHL1   H14 7825   4.874   4.501   7.545 -0.8404 -0.3830  1.3899
   73CHL1   C15 7826   4.692   4.591   7.600 -0.7051 -0.1948  0.8297
   73CHL1  H15A 7827   4.621   4.657   7.546  0.1228  0.2704  0.2843
   73CHL1  H15B 7828   4.657   4.486   7.598 -0.4909 -0.2931 -2.3520
   73CHL1   C16 7829   4.729   4.629   7.740 -0.4275  0.8364  0.1699
   73CHL1  H16A 7830   4.664   4.715   7.768 -2.0928  0.2203 -1.5877
   73CHL1  H16B 7831   4.707   4.544   7.807  0.2628 -1.3166 -2.1919
   73CHL1   C17 7832   4.881   4.662   7.740 -0.1380 -0.0067  0.4318
   73CHL1   H17 7833   4.940   4.569   7.759 -3.2794 -2.0845  0.7452
   73CHL1   C13 7834   4.914   4.708   7.589 -0.4506  0.8396 -0.6143
   73CHL1   C18 7835   4.854   4.851   7.586 -0.1942 -0.1639  0.4207
   73CHL1  H18A 7836   4.825   4.874   7.481 -0.4482  0.2053  0.5730
   73CHL1  H18B 7837   4.763   4.853   7.650 -2.1938 -1.4678 -2.1708
   73CHL1  H18C 7838   4.918   4.939   7.605 -2.1957  1.6508 -0.8393
   73CHL1   C12 7839   5.061   4.695   7.534  0.7426 -0.3396 -0.2544
   73CHL1  H12A 7840   5.127   4.774   7.575  1.5662 -0.4777 -1.2706
   73CHL1  H12B 7841   5.091   4.592   7.561 -1.0323 -0.8175  0.0402
   73CHL1   C11 7842   5.052   4.716   7.380 -0.4923  0.3029 -0.0243
   73CHL1  H11A 7843   5.034   4.819   7.344  2.5791  0.4772 -1.4451
   73CHL1  H11B 7844   5.152   4.694   7.336 -1.2109  1.7493 -2.5702
   73CHL1    C9 7845   4.953   4.618   7.311 -0.0863 -0.6996 -0.2552
   73CHL1    H9 7846   4.988   4.514   7.330 -1.1758 -1.2166 -0.9433
   73CHL1   C10 7847   4.940   4.638   7.165 -0.0961  0.1051 -0.8552
   73CHL1   C19 7848   4.891   4.778   7.131  0.6643 -0.1421 -0.0029
   73CHL1  H19A 7849   4.813   4.779   7.052 -0.1827 -2.8056  0.6982
   73CHL1  H19B 7850   4.842   4.819   7.222 -2.1366 -2.2690 -0.3939
   73CHL1  H19C 7851   4.972   4.845   7.095  1.7980 -2.2964 -1.7133
   73CHL1    C1 7852   5.077   4.597   7.099 -0.3516 -0.0085  0.2256
   73CHL1   H1A 7853   5.161   4.665   7.123  0.8831 -0.6517 -1.9833
   73CHL1   H1B 7854   5.102   4.501   7.147 -0.7140  0.1738  0.7900
   73CHL1    C2 7855   5.080   4.582   6.943 -0.0000  0.0405  0.2546
   73CHL1   H2A 7856   5.181   4.545   6.919 -0.0964 -1.0525  1.3898
   73CHL1   H2B 7857   5.046   4.675   6.892 -0.6067 -1.7630 -2.8477
   73CHL1   C20 7858   4.918   4.743   7.858  0.1845  0.2260  0.4956
   73CHL1   H20 7859   4.860   4.837   7.866 -0.3958 -0.1859  1.3637
   73CHL1   C21 7860   5.073   4.778   7.843  0.2710 -0.4741  0.2923
   73CHL1  H21A 7861   5.098   4.842   7.756 -2.1202  2.0330  1.2583
   73CHL1  H21B 7862   5.134   4.686   7.837  1.2833  0.2362 -0.8167
   73CHL1  H21C 7863   5.104   4.835   7.933  1.6607  0.0573 -0.5019
   73CHL1   C22 7864   4.902   4.664   7.993  0.2485 -0.0833  1.1480
   73CHL1  H22A 7865   4.795   4.636   8.005 -0.2770  0.3864 -1.7529
   73CHL1  H22B 7866   4.964   4.572   7.985 -0.1080 -0.2088 -0.5015
   73CHL1   C23 7867   4.943   4.726   8.123 -0.6839 -0.0914  0.0595
   73CHL1  H23A 7868   5.054   4.718   8.121 -0.5919  0.7697 -2.6057
   73CHL1  H23B 7869   4.920   4.834   8.116  0.7752  0.2107 -0.5273
   73CHL1   C24 7870   4.875   4.662   8.244 -0.1484 -0.1400  0.1151
   73CHL1  H24A 7871   4.770   4.639   8.216 -0.3416  1.8493 -0.9758
   73CHL1  H24B 7872   4.933   4.568   8.259  2.9797  1.5857 -0.3792
   73CHL1   C25 7873   4.882   4.759   8.358  0.3081  0.7797  0.1029
   73CHL1   H25 7874   4.850   4.855   8.313  2.2914  0.6773 -1.6618
   73CHL1   C26 7875   4.789   4.698   8.471  0.3144  0.1393  0.2387
   73CHL1  H26A 7876   4.799   4.765   8.559  2.8587  1.2803 -0.7987
   73CHL1  H26B 7877   4.682   4.694   8.441  0.8536 -0.1466 -1.8244
   73CHL1  H26C 7878   4.818   4.596   8.503 -0.9572 -0.1829  0.4055
   73CHL1   C27 7879   5.021   4.773   8.413 -0.8377 -0.4498  0.4008
   73CHL1  H27A 7880   5.051   4.683   8.471 -0.5465 -0.2340  0.5877
   73CHL1  H27B 7881   5.091   4.788   8.327 -0.4112 -0.7443  0.6933
   73CHL1  H27C 7882   5.026   4.858   8.484 -0.8342 -0.7180  0.7208
   74CHL1    C3 7883   5.045   2.808   6.767  0.8048 -0.3689  0.0832
   74CHL1    H3 7884   5.155   2.818   6.755  0.5635  0.1513 -2.1553
   74CHL1    O3 7885   4.996   2.828   6.633 -0.1287  0.0395  0.4711
   74CHL1   H3' 7886   4.906   2.861   6.640 -1.1066 -1.5949 -2.6548
   74CHL1    C4 7887   5.004   2.671   6.819 -0.2042 -0.1001 -0.0731
   74CHL1   H4A 7888   4.893   2.660   6.814 -0.2498  0.4908 -0.6473
   74CHL1   H4B 7889   5.033   2.594   6.745 -3.7321 -0.6261 -1.0919
   74CHL1    C5 7890   5.054   2.639   6.960  0.1241  0.1619  0.0614
   74CHL1    C6 7891   5.128   2.534   6.992 -0.3953 -0.5836 -0.1286
   74CHL1    H6 7892   5.160   2.465   6.913 -0.0022 -0.2485 -0.2618
   74CHL1    C7 7893   5.168   2.508   7.132 -0.2564 -0.1538 -0.9407
   74CHL1   H7A 7894   5.167   2.399   7.151  3.8205 -0.3407 -0.9644
   74CHL1   H7B 7895   5.274   2.540   7.141 -0.4648 -0.1186  2.8403
   74CHL1    C8 7896   5.101   2.582   7.246 -0.0293 -0.2253  0.1585
   74CHL1    H8 7897   5.004   2.536   7.271 -1.7214  3.2564  0.6709
   74CHL1   C14 7898   5.192   2.591   7.367  0.2261  0.1158  0.6321
   74CHL1   H14 7899   5.275   2.658   7.337 -1.0591  0.2446 -3.2630
   74CHL1   C15 7900   5.251   2.458   7.421 -0.8036  0.0062 -0.2308
   74CHL1  H15A 7901   5.162   2.392   7.427 -0.6060 -0.6294 -3.0357
   74CHL1  H15B 7902   5.327   2.432   7.345  1.0747  6.3063 -1.0211
   74CHL1   C16 7903   5.310   2.496   7.558 -0.6354  0.1273  0.2236
   74CHL1  H16A 7904   5.278   2.426   7.638  2.9084 -0.4530  1.3120
   74CHL1  H16B 7905   5.420   2.512   7.558 -0.6081  0.0620  1.2864
   74CHL1   C17 7906   5.246   2.634   7.595 -0.0918  0.1846  0.3829
   74CHL1   H17 7907   5.314   2.717   7.571 -1.9133  1.6423  0.0269
   74CHL1   C13 7908   5.128   2.659   7.489  0.4759  0.3994 -0.6063
   74CHL1   C18 7909   5.003   2.587   7.543  0.6124  0.0265  0.1129
   74CHL1  H18A 7910   4.961   2.651   7.624  1.5401  1.6004 -0.5980
   74CHL1  H18B 7911   4.927   2.578   7.462  0.8840  0.7472 -0.2341
   74CHL1  H18C 7912   5.038   2.489   7.582  2.5231 -0.1823 -1.9077
   74CHL1   C12 7913   5.103   2.802   7.455  0.2364 -0.3565  0.5263
   74CHL1  H12A 7914   5.033   2.847   7.529 -1.2733 -2.0949  0.2237
   74CHL1  H12B 7915   5.198   2.854   7.429  1.1595 -2.5394 -0.6978
   74CHL1   C11 7916   5.028   2.818   7.322 -0.4631 -0.1070  0.9191
   74CHL1  H11A 7917   4.920   2.795   7.336 -0.5465 -2.1369 -2.1535
   74CHL1  H11B 7918   5.031   2.922   7.283 -0.6385 -0.5890 -0.4264
   74CHL1    C9 7919   5.087   2.732   7.198  0.7652 -0.1333  0.3907
   74CHL1    H9 7920   5.188   2.778   7.190  0.3382  0.5897 -1.1058
   74CHL1   C10 7921   5.011   2.751   7.056  0.2241 -0.2799  0.1241
   74CHL1   C19 7922   4.857   2.744   7.082  0.0316  0.5731  0.1906
   74CHL1  H19A 7923   4.838   2.643   7.125 -2.4858 -1.0878 -4.1843
   74CHL1  H19B 7924   4.828   2.826   7.151  2.4414  0.6548  1.2072
   74CHL1  H19C 7925   4.784   2.752   6.999 -1.1390  2.7268  1.3489
   74CHL1    C1 7926   5.047   2.894   7.000 -0.4849  0.3035  1.0030
   74CHL1   H1A 7927   5.010   2.979   7.061 -1.9927 -2.2309  3.8864
   74CHL1   H1B 7928   5.158   2.900   6.995 -0.4476 -0.7576  0.0890
   74CHL1    C2 7929   5.002   2.924   6.861 -0.4094  0.2392 -0.8177
   74CHL1   H2A 7930   5.053   3.020   6.840 -2.5809  1.8504  0.7043
   74CHL1   H2B 7931   4.890   2.928   6.860 -0.4564  1.4055  1.3226
   74CHL1   C20 7932   5.215   2.647   7.746 -0.1541  1.0126  1.3200
   74CHL1   H20 7933   5.137   2.572   7.769  1.0109 -0.4251  0.7488
   74CHL1   C21 7934   5.160   2.789   7.782 -0.3848  0.5333 -0.4995
   74CHL1  H21A 7935   5.162   2.795   7.893  0.9621 -1.8821 -0.3119
   74CHL1  H21B 7936   5.056   2.794   7.744 -0.3339  0.5009 -0.6434
   74CHL1  H21C 7937   5.220   2.873   7.741 -1.4937  0.2004 -2.9358
   74CHL1   C22 7938   5.337   2.613   7.838 -0.5686 -0.4110 -0.9157
   74CHL1  H22A 7939   5.375   2.514   7.806  0.8525  0.2735 -1.4871
   74CHL1  H22B 7940   5.414   2.693   7.827  0.0297 -0.8626 -0.1078
   74CHL1   C23 7941   5.313   2.607   7.995  0.3496 -0.1283  0.1964
   74CHL1  H23A 7942   5.287   2.707   8.038  0.4083  0.3649 -0.8729
   74CHL1  H23B 7943   5.226   2.540   8.006  0.9308 -0.8415  0.5137
   74CHL1   C24 7944   5.447   2.558   8.055 -0.2043  0.5767 -0.1284
   74CHL1  H24A 7945   5.462   2.453   8.023 -1.6188 -0.3879  2.0970
   74CHL1  H24B 7946   5.525   2.629   8.022  0.9355 -0.6965 -0.2647
   74CHL1   C25 7947   5.447   2.546   8.211 -0.5392  0.0175  0.4161
   74CHL1   H25 7948   5.418   2.647   8.248 -2.7566 -0.1426 -0.6892
   74CHL1   C26 7949   5.338   2.455   8.270  0.5105 -0.7066  0.3236
   74CHL1  H26A 7950   5.335   2.480   8.378 -1.1448 -1.3165  0.4532
   74CHL1  H26B 7951   5.245   2.471   8.212  0.1216  1.5851  1.4432
   74CHL1  H26C 7952   5.372   2.349   8.266 -0.4619 -1.0905  1.5938
   74CHL1   C27 7953   5.585   2.511   8.255 -0.3498  0.0286  0.4196
   74CHL1  H27A 7954   5.588   2.498   8.365  2.9320 -1.3047  0.2926
   74CHL1  H27B 7955   5.618   2.420   8.201 -3.3282 -0.2386 -1.1600
   74CHL1  H27C 7956   5.655   2.594   8.230 -0.3848 -0.2210 -0.5393
   75CHL1    C3 7957   3.021   2.959   6.768 -0.4274 -0.0911 -0.5573
   75CHL1    H3 7958   2.968   2.864   6.790 -3.4670  1.7053  0.6165
   75CHL1    O3 7959   3.009   3.005   6.633  0.1789  0.0903  0.3118
   75CHL1   H3' 7960   2.995   2.929   6.576  1.1818  0.4701 -0.4570
   75CHL1    C4 7961   2.969   3.057   6.874 -0.4575 -0.6294 -0.0348
   75CHL1   H4A 7962   3.000   3.158   6.840 -2.6256  0.1175  0.0793
   75CHL1   H4B 7963   2.859   3.067   6.865 -0.3256  3.0806  1.0705
   75CHL1    C5 7964   3.003   3.015   7.017 -0.2958 -0.1401  0.0638
   75CHL1    C6 7965   2.904   3.000   7.106 -0.4542 -0.2112 -0.8008
   75CHL1    H6 7966   2.798   3.012   7.081 -0.8119 -1.4260  0.0560
   75CHL1    C7 7967   2.919   2.967   7.252  0.4188  0.5890  0.8336
   75CHL1   H7A 7968   2.829   3.013   7.299 -0.1113  0.7527 -0.3047
   75CHL1   H7B 7969   2.903   2.857   7.265 -2.0036  0.9571  1.5404
   75CHL1    C8 7970   3.068   2.983   7.295  0.3196  0.2434 -0.4159
   75CHL1    H8 7971   3.094   3.091   7.302 -0.4971  0.3504  5.6342
   75CHL1   C14 7972   3.093   2.927   7.434  0.1593  0.4023  0.1540
   75CHL1   H14 7973   3.057   2.823   7.418  1.6134  0.0532 -1.0592
   75CHL1   C15 7974   2.997   2.966   7.554  0.2598  0.2951  1.2937
   75CHL1  H15A 7975   3.008   3.076   7.544 -0.9347  0.3986  0.8796
   75CHL1  H15B 7976   2.898   2.921   7.533  0.5467  1.3470 -3.4213
   75CHL1   C16 7977   3.075   2.917   7.672 -0.4215  0.2822 -0.1485
   75CHL1  H16A 7978   3.105   3.009   7.727  2.6892  0.6143 -2.1413
   75CHL1  H16B 7979   3.025   2.854   7.749  2.7968 -0.4936  1.5060
   75CHL1   C17 7980   3.204   2.840   7.619 -0.7019  0.2884 -0.5725
   75CHL1   H17 7981   3.165   2.739   7.594 -2.1911  0.6016  0.3447
   75CHL1   C13 7982   3.234   2.915   7.490 -0.5900 -0.2694  0.5690
   75CHL1   C18 7983   3.288   3.055   7.506  0.0453 -0.1044 -0.0470
   75CHL1  H18A 7984   3.397   3.048   7.525  0.1373 -1.2886 -0.8666
   75CHL1  H18B 7985   3.272   3.128   7.423 -2.2464 -1.9208 -1.3091
   75CHL1  H18C 7986   3.250   3.109   7.595  0.5300 -0.4578  0.3756
   75CHL1   C12 7987   3.313   2.831   7.381  0.0477 -0.4698  0.0006
   75CHL1  H12A 7988   3.417   2.814   7.418  0.3812  0.3246 -0.5317
   75CHL1  H12B 7989   3.265   2.731   7.374 -0.7171 -0.0093 -2.0408
   75CHL1   C11 7990   3.303   2.904   7.249  0.2297  0.0470  0.1442
   75CHL1  H11A 7991   3.351   3.004   7.258 -0.4763  0.3502  0.5757
   75CHL1  H11B 7992   3.371   2.841   7.187  0.8018  0.5140  0.2852
   75CHL1    C9 7993   3.158   2.915   7.193  0.0791 -0.5201  0.1064
   75CHL1    H9 7994   3.115   2.813   7.185 -0.1783 -0.5140  1.2570
   75CHL1   C10 7995   3.155   2.985   7.047  0.4811 -0.2976 -0.2152
   75CHL1   C19 7996   3.226   3.117   7.054 -0.5557  0.6039  0.0237
   75CHL1  H19A 7997   3.334   3.092   7.068 -1.3150 -2.4963  1.1111
   75CHL1  H19B 7998   3.223   3.163   6.953 -2.9569 -1.0187 -0.7150
   75CHL1  H19C 7999   3.200   3.194   7.130 -0.6078  0.9813 -0.3698
   75CHL1    C1 8000   3.202   2.896   6.937 -0.0287  0.3284  1.1633
   75CHL1   H1A 8001   3.309   2.880   6.963  0.0864 -0.7146  0.1283
   75CHL1   H1B 8002   3.158   2.795   6.939 -1.2214  0.6771 -1.9635
   75CHL1    C2 8003   3.176   2.946   6.793  0.0542  0.6003 -0.1760
   75CHL1   H2A 8004   3.204   2.870   6.716  0.8592  1.1730 -0.4645
   75CHL1   H2B 8005   3.227   3.041   6.768  2.5303  0.0536  2.2987
   75CHL1   C20 8006   3.318   2.813   7.726 -0.5068  0.1235  0.6093
   75CHL1   H20 8007   3.408   2.790   7.665  0.1384  0.0677  1.5517
   75CHL1   C21 8008   3.275   2.696   7.815  0.3418 -0.7073 -0.1402
   75CHL1  H21A 8009   3.358   2.655   7.877 -0.9135 -1.5269  1.0621
   75CHL1  H21B 8010   3.237   2.611   7.754 -1.1258  0.2983 -0.6611
   75CHL1  H21C 8011   3.195   2.740   7.878 -0.0612  1.0297 -1.7716
   75CHL1   C22 8012   3.352   2.930   7.813  0.0396  0.0605 -0.3135
   75CHL1  H22A 8013   3.374   3.019   7.750  1.4649 -1.0528 -1.4684
   75CHL1  H22B 8014   3.265   2.954   7.878 -0.3487  0.2385 -0.8911
   75CHL1   C23 8015   3.483   2.914   7.907 -0.0934  0.1921  0.7144
   75CHL1  H23A 8016   3.486   2.989   7.989  1.2005 -0.7989  1.6121
   75CHL1  H23B 8017   3.481   2.814   7.955  0.2547 -0.1982 -0.0612
   75CHL1   C24 8018   3.622   2.925   7.832 -0.1593 -0.0750 -0.5052
   75CHL1  H24A 8019   3.630   2.839   7.763  1.2120 -1.3840  1.1881
   75CHL1  H24B 8020   3.624   3.026   7.785  1.6524  1.8055  3.0682
   75CHL1   C25 8021   3.751   2.922   7.931 -0.0503  1.0691  0.6675
   75CHL1   H25 8022   3.744   2.827   7.987  0.3715 -0.8296 -2.2626
   75CHL1   C26 8023   3.883   2.927   7.848 -0.1669 -0.3379  0.3043
   75CHL1  H26A 8024   3.883   3.014   7.779  0.1596  0.0573  0.8022
   75CHL1  H26B 8025   3.966   2.936   7.922 -1.0242 -1.4777  1.4511
   75CHL1  H26C 8026   3.888   2.838   7.781 -3.0270 -0.4624  0.1556
   75CHL1   C27 8027   3.754   3.040   8.028  0.1488  0.6280 -0.2158
   75CHL1  H27A 8028   3.765   3.133   7.968  0.6532  0.0412 -1.0369
   75CHL1  H27B 8029   3.664   3.060   8.091  0.9662  4.5302 -0.0308
   75CHL1  H27C 8030   3.837   3.038   8.102 -1.3145 -2.7666  1.5387
   76CHL1    C3 8031   4.677   0.151   7.024  0.2795 -0.4262  0.1535
   76CHL1    H3 8032   4.776   0.200   7.015  0.0644 -0.2380 -1.3695
   76CHL1    O3 8033   4.625   0.147   6.890 -0.0849 -0.0989 -0.2711
   76CHL1   H3' 8034   4.540   0.189   6.904 -1.2636 -2.8377  1.4264
   76CHL1    C4 8035   4.685   0.015   7.093 -0.7324 -0.1283 -0.4068
   76CHL1   H4A 8036   4.594  -0.048   7.081 -0.3169 -0.5502 -1.4051
   76CHL1   H4B 8037   4.766  -0.031   7.034  0.5825  1.1676  0.3225
   76CHL1    C5 8038   4.727   0.012   7.241 -0.0389  0.7285  0.1004
   76CHL1    C6 8039   4.833  -0.060   7.278  0.2047 -0.3160  0.4898
   76CHL1    H6 8040   4.888  -0.120   7.204 -1.4290 -0.4696 -0.6594
   76CHL1    C7 8041   4.890  -0.062   7.411 -0.8585  0.7547 -0.7287
   76CHL1   H7A 8042   4.922  -0.162   7.447  0.8587  1.7742  0.7649
   76CHL1   H7B 8043   4.978   0.005   7.400  0.0583 -0.4750 -1.0329
   76CHL1    C8 8044   4.785  -0.003   7.510 -0.6522 -0.0296 -0.1591
   76CHL1    H8 8045   4.699  -0.073   7.508  0.1438 -1.0317 -1.3928
   76CHL1   C14 8046   4.845   0.024   7.645 -0.1956  0.1719 -0.2275
   76CHL1   H14 8047   4.922   0.104   7.643  1.1818 -1.1279 -1.4259
   76CHL1   C15 8048   4.919  -0.091   7.713 -0.1144 -0.4526  0.2545
   76CHL1  H15A 8049   4.862  -0.186   7.707 -0.2426 -0.4129  0.8065
   76CHL1  H15B 8050   5.014  -0.113   7.659 -0.2414 -0.0361 -0.1469
   76CHL1   C16 8051   4.935  -0.037   7.859  0.6764 -0.3420 -0.0583
   76CHL1  H16A 8052   4.899  -0.123   7.919  0.9122 -1.7980 -1.8818
   76CHL1  H16B 8053   5.035  -0.007   7.896  0.0021  0.4777  1.1591
   76CHL1   C17 8054   4.848   0.089   7.874  0.2883 -0.0375  0.4022
   76CHL1   H17 8055   4.912   0.178   7.856  2.3336 -1.2924  1.0469
   76CHL1   C13 8056   4.753   0.085   7.753 -0.3891  0.1829  0.3095
   76CHL1   C18 8057   4.634  -0.014   7.776  0.4243  0.1277  0.2683
   76CHL1  H18A 8058   4.578  -0.043   7.684  0.5472 -0.7954  0.4679
   76CHL1  H18B 8059   4.679  -0.104   7.824 -0.4121 -0.7178 -0.4763
   76CHL1  H18C 8060   4.553   0.037   7.831  1.5803 -0.2428  2.4182
   76CHL1   C12 8061   4.690   0.214   7.697  0.2001 -0.0647  0.2711
   76CHL1  H12A 8062   4.629   0.262   7.776  1.1578  1.2507  0.2557
   76CHL1  H12B 8063   4.771   0.288   7.681  1.4022 -1.4951 -0.4282
   76CHL1   C11 8064   4.619   0.194   7.561 -0.3088 -0.4603 -0.2889
   76CHL1  H11A 8065   4.522   0.141   7.579  0.5169 -1.8217  0.3366
   76CHL1  H11B 8066   4.597   0.290   7.510 -0.5494 -2.0902 -3.5215
   76CHL1    C9 8067   4.720   0.130   7.464 -0.5470  0.1694 -0.3829
   76CHL1    H9 8068   4.814   0.187   7.444 -1.0674  1.1942  0.0124
   76CHL1   C10 8069   4.650   0.112   7.327 -0.4104  0.2432  0.7631
   76CHL1   C19 8070   4.510   0.048   7.337  0.2712 -0.6969 -0.7103
   76CHL1  H19A 8071   4.462   0.037   7.237 -4.2232  0.8008  1.0422
   76CHL1  H19B 8072   4.510  -0.052   7.386  0.5625 -1.2292 -1.7645
   76CHL1  H19C 8073   4.449   0.122   7.392 -0.1663 -1.3745 -0.2574
   76CHL1    C1 8074   4.648   0.247   7.251 -0.1485  0.0058  0.4118
   76CHL1   H1A 8075   4.605   0.321   7.321 -0.5961 -0.4289  0.6058
   76CHL1   H1B 8076   4.749   0.291   7.240 -0.0999  0.1708  1.4277
   76CHL1    C2 8077   4.593   0.251   7.106 -0.0260 -0.5408 -0.1807
   76CHL1   H2A 8078   4.594   0.355   7.067  0.5305 -1.1280 -1.8131
   76CHL1   H2B 8079   4.486   0.221   7.116 -1.1290  3.2796  1.3027
   76CHL1   C20 8080   4.793   0.108   8.015 -0.3345  0.6584 -0.3215
   76CHL1   H20 8081   4.733   0.019   8.046  0.8768  0.2046  0.7959
   76CHL1   C21 8082   4.691   0.216   8.038  0.1324 -0.2543 -0.1815
   76CHL1  H21A 8083   4.656   0.221   8.143 -0.4506 -1.1659 -0.3200
   76CHL1  H21B 8084   4.599   0.208   7.977 -0.0427 -1.4119  0.2037
   76CHL1  H21C 8085   4.727   0.311   7.993 -1.6347  0.5025 -0.0560
   76CHL1   C22 8086   4.910   0.115   8.119  0.1166 -0.2148  0.0663
   76CHL1  H22A 8087   4.990   0.038   8.110  0.1192 -0.1552 -0.4738
   76CHL1  H22B 8088   4.970   0.208   8.120 -1.0719  0.5972  2.2613
   76CHL1   C23 8089   4.856   0.100   8.268  0.4926  0.0654 -0.6300
   76CHL1  H23A 8090   4.779   0.173   8.301  1.7096  0.4480  1.6210
   76CHL1  H23B 8091   4.834  -0.005   8.293  2.2502  0.3329  2.6253
   76CHL1   C24 8092   4.971   0.148   8.361 -0.8620 -0.6990 -0.0859
   76CHL1  H24A 8093   5.062   0.087   8.340 -1.8292 -2.1564 -0.2033
   76CHL1  H24B 8094   4.997   0.255   8.347 -1.1356 -0.5304  0.6393
   76CHL1   C25 8095   4.953   0.143   8.513  0.3513  0.3898  0.3590
   76CHL1   H25 8096   4.885   0.224   8.549 -3.6990 -2.8121  0.7154
   76CHL1   C26 8097   4.891   0.016   8.565  0.6591  0.1344  0.2973
   76CHL1  H26A 8098   4.950  -0.075   8.537 -1.2138 -1.7564  2.1391
   76CHL1  H26B 8099   4.889   0.021   8.676 -1.4634 -0.4556  0.3248
   76CHL1  H26C 8100   4.785  -0.000   8.538 -0.0258  0.9429  2.3062
   76CHL1   C27 8101   5.093   0.164   8.583  0.4887 -0.2432  0.1883
   76CHL1  H27A 8102   5.074   0.174   8.692 -0.8304  0.9569 -0.1188
   76CHL1  H27B 8103   5.166   0.088   8.547  0.5287 -0.0921 -0.0573
   76CHL1  H27C 8104   5.135   0.264   8.560  1.0504 -0.3336  0.7849
   77CHL1    C3 8105   5.965   2.666   6.814 -0.5549 -0.7437  0.6805
   77CHL1    H3 8106   5.878   2.685   6.880 -1.1064 -0.5067 -0.1020
   77CHL1    O3 8107   5.920   2.696   6.678  0.3919 -0.6266  0.0138
   77CHL1   H3' 8108   5.908   2.791   6.665 -0.3577 -0.7560 -0.3051
   77CHL1    C4 8109   6.087   2.767   6.842 -0.1512 -0.3972  0.3166
   77CHL1   H4A 8110   6.166   2.745   6.767 -0.1465 -0.7120  0.4113
   77CHL1   H4B 8111   6.043   2.868   6.829 -0.8447 -0.3774  2.4097
   77CHL1    C5 8112   6.141   2.750   6.984  0.1219 -0.0183 -0.1799
   77CHL1    C6 8113   6.132   2.845   7.081 -0.0217  0.9551 -0.3402
   77CHL1    H6 8114   6.087   2.941   7.052 -0.5546  0.8353  0.0787
   77CHL1    C7 8115   6.184   2.825   7.224 -0.1826 -0.5465 -0.4393
   77CHL1   H7A 8116   6.237   2.917   7.256  2.1218 -2.2207  0.8104
   77CHL1   H7B 8117   6.097   2.814   7.292 -0.8234 -1.3009 -1.3400
   77CHL1    C8 8118   6.279   2.707   7.240 -0.0019 -0.0690 -0.3392
   77CHL1    H8 8119   6.376   2.729   7.191  0.9446 -3.4435 -0.2119
   77CHL1   C14 8120   6.305   2.677   7.390 -0.1195 -0.3836  0.4114
   77CHL1   H14 8121   6.212   2.636   7.436  0.2212 -0.9680  0.5989
   77CHL1   C15 8122   6.344   2.785   7.497  0.2408 -0.1809  0.2683
   77CHL1  H15A 8123   6.421   2.848   7.448  0.1527 -0.9170 -0.8622
   77CHL1  H15B 8124   6.261   2.851   7.530 -0.1943 -0.9097  0.6670
   77CHL1   C16 8125   6.391   2.699   7.616 -0.0934 -0.2161 -0.1053
   77CHL1  H16A 8126   6.488   2.735   7.654  0.3209 -2.2022  0.8591
   77CHL1  H16B 8127   6.311   2.698   7.693 -0.3012 -1.3450 -0.3122
   77CHL1   C17 8128   6.411   2.558   7.568 -0.4539  0.7459 -0.2671
   77CHL1   H17 8129   6.321   2.497   7.592 -0.2939 -0.2459 -1.9755
   77CHL1   C13 8130   6.409   2.562   7.412 -0.2151 -0.2390  0.3895
   77CHL1   C18 8131   6.554   2.591   7.362 -0.2738 -0.2559  0.3845
   77CHL1  H18A 8132   6.617   2.499   7.365 -2.2285 -1.8174 -2.0513
   77CHL1  H18B 8133   6.569   2.633   7.260  0.3838 -0.7320  0.2797
   77CHL1  H18C 8134   6.596   2.661   7.437 -0.5008 -1.6278  1.8532
   77CHL1   C12 8135   6.344   2.434   7.342  0.1468 -0.0148  0.2054
   77CHL1  H12A 8136   6.393   2.337   7.361 -0.6356 -0.6239 -0.8103
   77CHL1  H12B 8137   6.241   2.425   7.384  0.4760 -1.0769  0.8186
   77CHL1   C11 8138   6.314   2.462   7.196 -0.3234  0.8132 -0.0307
   77CHL1  H11A 8139   6.414   2.485   7.154 -0.5248 -1.1123 -1.6906
   77CHL1  H11B 8140   6.269   2.370   7.154 -0.3548  0.5836  0.4958
   77CHL1    C9 8141   6.224   2.582   7.164 -0.0062 -0.6605 -0.1001
   77CHL1    H9 8142   6.127   2.571   7.217  0.7130  0.9396  1.6582
   77CHL1   C10 8143   6.191   2.607   7.015  0.0430 -0.4092  0.0712
   77CHL1   C19 8144   6.317   2.560   6.931  0.2526  0.6377  0.1378
   77CHL1  H19A 8145   6.414   2.610   6.955  0.3541  1.2591 -1.4354
   77CHL1  H19B 8146   6.326   2.451   6.947  1.6527  0.7943  0.5927
   77CHL1  H19C 8147   6.308   2.579   6.822 -2.5569 -1.3335 -0.0523
   77CHL1    C1 8148   6.074   2.510   6.979  0.8103  0.4467 -0.2471
   77CHL1   H1A 8149   6.106   2.404   6.984  1.1645  0.4341 -2.1370
   77CHL1   H1B 8150   5.988   2.526   7.047  2.0403 -1.2613  1.8120
   77CHL1    C2 8151   6.023   2.521   6.835  0.4107 -0.1006  0.2506
   77CHL1   H2A 8152   5.934   2.456   6.823 -0.0444  0.7182 -1.0179
   77CHL1   H2B 8153   6.102   2.504   6.759 -2.8382  0.4394 -3.5741
   77CHL1   C20 8154   6.530   2.496   7.641  0.2804  0.1617  0.0407
   77CHL1   H20 8155   6.620   2.557   7.615 -1.3439  3.9281  2.3055
   77CHL1   C21 8156   6.555   2.351   7.595 -0.1722  0.8064  0.5553
   77CHL1  H21A 8157   6.647   2.318   7.648  0.5323  2.2698  0.3100
   77CHL1  H21B 8158   6.574   2.339   7.486 -1.2368 -2.5348  0.6420
   77CHL1  H21C 8159   6.466   2.288   7.615  1.1102 -1.7112 -1.1321
   77CHL1   C22 8160   6.516   2.504   7.797  0.0031 -0.3781  0.4888
   77CHL1  H22A 8161   6.478   2.606   7.820  3.8208  1.4525 -0.4818
   77CHL1  H22B 8162   6.448   2.426   7.839 -1.0977 -0.2121 -0.9016
   77CHL1   C23 8163   6.647   2.477   7.866 -0.1223  0.3511 -0.6995
   77CHL1  H23A 8164   6.684   2.380   7.827 -0.5911 -0.4114  0.6900
   77CHL1  H23B 8165   6.727   2.544   7.827 -0.3542  1.8019  1.1315
   77CHL1   C24 8166   6.646   2.511   8.014  0.1248 -0.1827 -0.0223
   77CHL1  H24A 8167   6.748   2.532   8.052 -0.5436  0.9870  1.2179
   77CHL1  H24B 8168   6.582   2.598   8.036 -1.8883 -1.2334 -1.3670
   77CHL1   C25 8169   6.583   2.395   8.108  0.0998 -0.8949  0.8879
   77CHL1   H25 8170   6.478   2.390   8.074  1.1688 -0.0285 -3.0167
   77CHL1   C26 8171   6.646   2.251   8.085 -0.0755 -0.5471 -0.2800
   77CHL1  H26A 8172   6.753   2.255   8.115  0.0038  0.3796 -0.6395
   77CHL1  H26B 8173   6.584   2.195   8.157  0.9539 -1.6891 -0.2544
   77CHL1  H26C 8174   6.631   2.205   7.985 -0.1259 -4.1120  1.2354
   77CHL1   C27 8175   6.593   2.422   8.265 -0.1558 -0.3007  0.2826
   77CHL1  H27A 8176   6.558   2.525   8.283  3.2046  0.9755  0.2020
   77CHL1  H27B 8177   6.531   2.349   8.322  2.8543 -3.7581 -0.4730
   77CHL1  H27C 8178   6.695   2.398   8.301 -0.6749 -1.0608  1.3043
   78CHL1    C3 8179   2.474   4.936   6.899 -0.3059  0.2036 -0.4188
   78CHL1    H3 8180   2.380   4.878   6.893 -0.8065  1.1167 -2.9245
   78CHL1    O3 8181   2.531   4.964   6.771 -0.2117 -0.2407  0.0405
   78CHL1   H3' 8182   2.458   4.999   6.719  0.5945  1.8162  0.2098
   78CHL1    C4 8183   2.439   5.073   6.961 -0.1162 -0.2894  0.1219
   78CHL1   H4A 8184   2.525   5.143   6.952  1.6645 -2.3888  0.1212
   78CHL1   H4B 8185   2.356   5.115   6.900 -1.7078  0.0271  2.3592
   78CHL1    C5 8186   2.386   5.055   7.106 -0.3292 -0.0191 -1.1928
   78CHL1    C6 8187   2.262   5.093   7.144  0.6227 -0.6260  0.3010
   78CHL1    H6 8188   2.193   5.148   7.078 -1.7786 -1.5531  1.9115
   78CHL1    C7 8189   2.207   5.071   7.282 -0.4107 -0.3964 -0.3010
   78CHL1   H7A 8190   2.158   5.164   7.317  1.5303  0.6544 -0.2259
   78CHL1   H7B 8191   2.129   4.991   7.278 -0.2619 -0.6450  1.1327
   78CHL1    C8 8192   2.311   5.032   7.389 -0.2055  0.5268 -0.3910
   78CHL1    H8 8193   2.366   5.124   7.419 -1.6173  1.4894 -0.6608
   78CHL1   C14 8194   2.245   4.967   7.509  0.3173 -0.8981 -0.5564
   78CHL1   H14 8195   2.179   4.888   7.467 -1.5233  0.0307  0.4589
   78CHL1   C15 8196   2.144   5.056   7.586 -0.0384  0.3668 -0.2905
   78CHL1  H15A 8197   2.197   5.153   7.601 -1.0510  1.0219 -0.8445
   78CHL1  H15B 8198   2.048   5.076   7.534 -1.1743  1.6028  2.0862
   78CHL1   C16 8199   2.124   4.986   7.717 -0.3539 -0.1568 -0.1487
   78CHL1  H16A 8200   2.131   5.053   7.805 -5.3720  0.2645  0.2537
   78CHL1  H16B 8201   2.019   4.949   7.717 -2.4170  4.9062 -0.1239
   78CHL1   C17 8202   2.239   4.875   7.719  0.2010 -0.7143 -0.6421
   78CHL1   H17 8203   2.191   4.786   7.672  0.9389 -1.5480  0.1572
   78CHL1   C13 8204   2.341   4.915   7.613  0.2159  0.3123 -0.8315
   78CHL1   C18 8205   2.441   5.017   7.678 -0.8928  0.2386 -0.2172
   78CHL1  H18A 8206   2.387   5.110   7.707 -0.8696  0.5494 -1.1365
   78CHL1  H18B 8207   2.494   4.973   7.766  0.4869  1.2072 -0.5367
   78CHL1  H18C 8208   2.511   5.054   7.600 -1.1787  1.0804 -0.0866
   78CHL1   C12 8209   2.427   4.800   7.558 -0.4207  0.4546 -1.0844
   78CHL1  H12A 8210   2.508   4.767   7.626 -0.1008 -0.7377 -2.0298
   78CHL1  H12B 8211   2.364   4.711   7.539 -2.0823  1.4109 -0.3900
   78CHL1   C11 8212   2.497   4.850   7.425  0.4527 -0.8989 -0.1683
   78CHL1  H11A 8213   2.571   4.925   7.460 -1.2916  0.9271 -0.1765
   78CHL1  H11B 8214   2.548   4.766   7.374  0.2413 -0.9004 -0.3796
   78CHL1    C9 8215   2.397   4.919   7.327 -0.3781 -0.6420 -0.3571
   78CHL1    H9 8216   2.321   4.845   7.295 -1.1622  0.0541 -0.1378
   78CHL1   C10 8217   2.478   4.964   7.203  0.8437 -0.2688 -0.0506
   78CHL1   C19 8218   2.595   5.064   7.228 -0.2571  0.3970  0.2838
   78CHL1  H19A 8219   2.566   5.152   7.289  1.5432  0.3441  1.2856
   78CHL1  H19B 8220   2.675   5.009   7.284 -0.4381 -0.9712 -0.7628
   78CHL1  H19C 8221   2.634   5.099   7.130 -0.2437 -1.7365 -0.5446
   78CHL1    C1 8222   2.525   4.841   7.136  0.6050 -0.2320 -0.5003
   78CHL1   H1A 8223   2.607   4.788   7.188  0.3192 -0.6403 -0.4656
   78CHL1   H1B 8224   2.446   4.765   7.120 -0.0466  0.3443 -0.1102
   78CHL1    C2 8225   2.575   4.868   6.989 -0.1817 -1.0740 -0.5573
   78CHL1   H2A 8226   2.590   4.774   6.932  0.7648 -2.0026  1.1395
   78CHL1   H2B 8227   2.670   4.925   6.993 -0.2957 -0.7785 -1.8260
   78CHL1   C20 8228   2.290   4.816   7.855  0.2493 -0.2193 -0.5979
   78CHL1   H20 8229   2.390   4.771   7.841  2.0397  2.8659  1.1728
   78CHL1   C21 8230   2.188   4.709   7.908  0.1679 -0.8241  0.6032
   78CHL1  H21A 8231   2.210   4.663   8.007 -1.5274 -0.2035  1.3033
   78CHL1  H21B 8232   2.183   4.626   7.835 -0.3438 -0.4050  0.1566
   78CHL1  H21C 8233   2.088   4.756   7.917 -0.0165 -0.4930 -2.3736
   78CHL1   C22 8234   2.300   4.925   7.970  0.0439  1.6302  0.4362
   78CHL1  H22A 8235   2.337   5.026   7.943  0.7066  0.9487 -1.3543
   78CHL1  H22B 8236   2.200   4.952   8.008  0.4135  0.3890  2.4334
   78CHL1   C23 8237   2.389   4.878   8.084 -0.4857 -0.2616 -1.0274
   78CHL1  H23A 8238   2.336   4.807   8.151 -0.5834  1.4961  0.8378
   78CHL1  H23B 8239   2.475   4.818   8.046 -2.3412 -2.2687 -2.3118
   78CHL1   C24 8240   2.429   4.997   8.176  0.6433  0.6690 -0.1924
   78CHL1  H24A 8241   2.473   5.078   8.113 -2.5248  1.9844 -0.9549
   78CHL1  H24B 8242   2.336   5.031   8.227  0.5031  0.2527 -0.1666
   78CHL1   C25 8243   2.518   4.965   8.292  0.1562 -0.2697  0.7551
   78CHL1   H25 8244   2.466   4.881   8.343 -1.6027  0.7611  0.7124
   78CHL1   C26 8245   2.660   4.919   8.253 -0.3028 -0.9608  0.3345
   78CHL1  H26A 8246   2.718   5.013   8.239  0.5239 -1.1837  2.0214
   78CHL1  H26B 8247   2.712   4.859   8.331  0.8304 -0.6921 -0.1965
   78CHL1  H26C 8248   2.652   4.855   8.163  1.3493 -0.7772  0.0384
   78CHL1   C27 8249   2.505   5.083   8.395 -1.2054  0.2839 -0.1694
   78CHL1  H27A 8250   2.560   5.173   8.362 -0.7818 -0.3644 -1.2873
   78CHL1  H27B 8251   2.397   5.108   8.400 -1.5200 -0.8238 -1.0766
   78CHL1  H27C 8252   2.541   5.044   8.493 -1.2822  0.0117 -0.2486
   79CHL1    C3 8253   4.212   5.972   7.254  0.1634 -0.2176  0.3255
   79CHL1    H3 8254   4.119   5.927   7.297  0.0202 -1.1188 -0.8644
   79CHL1    O3 8255   4.203   5.996   7.114  0.3242 -0.7840 -0.3756
   79CHL1   H3' 8256   4.292   6.026   7.094 -0.1979  0.5978 -0.7270
   79CHL1    C4 8257   4.252   6.102   7.319  0.1044 -0.4748 -0.2476
   79CHL1   H4A 8258   4.354   6.132   7.287  0.6941 -0.9262  1.1421
   79CHL1   H4B 8259   4.178   6.180   7.292 -0.0019 -0.2656  0.6197
   79CHL1    C5 8260   4.259   6.082   7.470 -0.0699 -0.4384 -0.0040
   79CHL1    C6 8261   4.184   6.155   7.560  0.0309  0.8211  0.4783
   79CHL1    H6 8262   4.114   6.231   7.524 -0.7789 -0.8171 -1.6290
   79CHL1    C7 8263   4.195   6.136   7.708  0.7263 -0.3282  0.0618
   79CHL1   H7A 8264   4.174   6.227   7.767  0.0880 -1.6445  1.9640
   79CHL1   H7B 8265   4.107   6.072   7.732  1.3079 -1.6201 -1.0769
   79CHL1    C8 8266   4.326   6.064   7.752 -0.2285 -0.7055  0.1380
   79CHL1    H8 8267   4.407   6.136   7.725 -0.5315  0.3671  1.9556
   79CHL1   C14 8268   4.309   6.023   7.895  0.0940 -0.4708 -0.3496
   79CHL1   H14 8269   4.229   5.946   7.889  1.1281 -1.7974  1.8331
   79CHL1   C15 8270   4.271   6.131   7.995  0.7690 -0.1582 -0.1411
   79CHL1  H15A 8271   4.329   6.225   7.981 -0.8922  0.5839 -2.8589
   79CHL1  H15B 8272   4.169   6.170   7.973  1.0189  0.3953 -0.3376
   79CHL1   C16 8273   4.289   6.060   8.128  0.5172 -0.6234  0.0898
   79CHL1  H16A 8274   4.362   6.116   8.190  0.0938 -0.5073  0.4872
   79CHL1  H16B 8275   4.195   6.032   8.180  0.9322 -0.0045  1.2193
   79CHL1   C17 8276   4.369   5.933   8.102  0.6350 -0.1841  0.2166
   79CHL1   H17 8277   4.297   5.848   8.101  1.9688 -1.3424  0.1189
   79CHL1   C13 8278   4.421   5.940   7.955  0.0001 -0.2237 -0.7521
   79CHL1   C18 8279   4.546   6.025   7.962  0.0945 -0.1823  0.6082
   79CHL1  H18A 8280   4.635   5.978   8.009  1.3635 -0.1805 -1.6126
   79CHL1  H18B 8281   4.576   6.051   7.858 -2.7012  0.2097 -0.1697
   79CHL1  H18C 8282   4.531   6.120   8.016  1.7604  0.5732 -0.1674
   79CHL1   C12 8283   4.427   5.811   7.872  0.2893  0.8434 -0.7716
   79CHL1  H12A 8284   4.512   5.744   7.895  1.2962  2.5725  0.7947
   79CHL1  H12B 8285   4.333   5.754   7.891 -0.1745  2.0904  0.9464
   79CHL1   C11 8286   4.439   5.827   7.724  0.3340  0.1994  0.1735
   79CHL1  H11A 8287   4.543   5.859   7.705  1.0683 -0.9327  1.9552
   79CHL1  H11B 8288   4.422   5.726   7.681 -0.9425  0.6409 -0.4128
   79CHL1    C9 8289   4.338   5.937   7.668  0.2215 -0.2692 -0.2751
   79CHL1    H9 8290   4.235   5.898   7.676 -0.0542  0.4744 -0.0733
   79CHL1   C10 8291   4.356   5.968   7.514 -0.3892 -0.2301 -0.3450
   79CHL1   C19 8292   4.497   6.020   7.494 -0.2828  1.1185  1.0369
   79CHL1  H19A 8293   4.573   5.939   7.502  0.0152  1.5678  3.5818
   79CHL1  H19B 8294   4.509   6.057   7.390  0.0401 -0.7623  0.3612
   79CHL1  H19C 8295   4.524   6.107   7.557  1.4111  1.3190  0.1076
   79CHL1    C1 8296   4.330   5.840   7.438 -0.3285 -0.0943 -0.2003
   79CHL1   H1A 8297   4.404   5.759   7.454 -0.0724  0.5003  1.9842
   79CHL1   H1B 8298   4.227   5.810   7.466  0.5664 -0.3294  3.2733
   79CHL1    C2 8299   4.318   5.862   7.283  0.0306 -0.0602 -0.1996
   79CHL1   H2A 8300   4.266   5.777   7.234 -1.4716 -0.1528  1.4533
   79CHL1   H2B 8301   4.413   5.880   7.228  0.8999 -2.8191  0.2744
   79CHL1   C20 8302   4.473   5.902   8.211 -0.6196  0.4514  0.4767
   79CHL1   H20 8303   4.550   5.983   8.211 -0.3841  0.3599 -3.0136
   79CHL1   C21 8304   4.558   5.773   8.186  0.8850  0.3840  0.0495
   79CHL1  H21A 8305   4.621   5.780   8.094  0.1178  1.3074 -0.4256
   79CHL1  H21B 8306   4.485   5.694   8.161 -0.3892  1.5027  0.1209
   79CHL1  H21C 8307   4.620   5.747   8.274  0.6461  0.4855  0.2494
   79CHL1   C22 8308   4.415   5.899   8.351 -0.0442  0.5830 -0.3352
   79CHL1  H22A 8309   4.499   5.882   8.423 -0.2856 -1.4543 -0.4672
   79CHL1  H22B 8310   4.370   5.998   8.374  1.1447  1.2563 -0.7861
   79CHL1   C23 8311   4.299   5.800   8.395 -0.0357  0.2781 -0.2903
   79CHL1  H23A 8312   4.218   5.828   8.325 -0.3938 -0.7668 -0.3178
   79CHL1  H23B 8313   4.313   5.692   8.376  0.6606  0.3277 -0.1002
   79CHL1   C24 8314   4.247   5.826   8.533 -0.3792  0.2708 -0.6146
   79CHL1  H24A 8315   4.237   5.936   8.547  0.6161  0.2765  0.1491
   79CHL1  H24B 8316   4.158   5.763   8.555  0.7007 -0.7592  1.0039
   79CHL1   C25 8317   4.345   5.782   8.651  0.1191 -0.1341 -1.1163
   79CHL1   H25 8318   4.453   5.805   8.639  0.2837  0.2686  0.7587
   79CHL1   C26 8319   4.313   5.869   8.769  0.5485  0.2811 -0.8229
   79CHL1  H26A 8320   4.393   5.862   8.847  2.0782 -0.6318 -2.3918
   79CHL1  H26B 8321   4.295   5.976   8.748 -0.9602  0.4015  0.9239
   79CHL1  H26C 8322   4.215   5.837   8.810 -0.5229  2.6952 -1.3291
   79CHL1   C27 8323   4.321   5.627   8.677 -0.2702 -0.9305 -0.7615
   79CHL1  H27A 8324   4.368   5.572   8.594  0.8810 -0.5520 -0.3783
   79CHL1  H27B 8325   4.370   5.591   8.770  1.5219 -1.8879 -2.0168
   79CHL1  H27C 8326   4.214   5.600   8.685 -0.1844 -0.6868  2.4007
   80CHL1    C3 8327   5.377   2.055   6.987  0.3659  0.1721 -0.4312
   80CHL1    H3 8328   5.473   2.110   6.971  1.6523 -1.7083  0.5899
   80CHL1    O3 8329   5.317   2.034   6.860 -0.8928 -0.2678 -0.4811
   80CHL1   H3' 8330   5.253   2.105   6.853 -1.0515 -0.5069 -1.6244
   80CHL1    C4 8331   5.399   1.920   7.054  0.5445  0.4682 -0.6006
   80CHL1   H4A 8332   5.309   1.856   7.050  0.8365 -0.0751  0.8231
   80CHL1   H4B 8333   5.468   1.863   6.988 -0.0318  2.2018 -2.8196
   80CHL1    C5 8334   5.448   1.919   7.196  0.7672 -0.3464  0.2148
   80CHL1    C6 8335   5.560   1.849   7.226 -0.0765 -0.8709 -0.9545
   80CHL1    H6 8336   5.610   1.789   7.149  0.3706 -1.6005 -0.1169
   80CHL1    C7 8337   5.616   1.830   7.370  0.0398  0.2145 -0.4223
   80CHL1   H7A 8338   5.641   1.725   7.398 -0.9444 -0.6464 -2.5379
   80CHL1   H7B 8339   5.706   1.896   7.366 -1.4629  2.3196 -2.1688
   80CHL1    C8 8340   5.520   1.888   7.474  0.0670 -0.6029 -0.3018
   80CHL1    H8 8341   5.436   1.817   7.487  0.0056 -0.7683 -1.4609
   80CHL1   C14 8342   5.591   1.913   7.606 -0.1751  0.4190 -0.8738
   80CHL1   H14 8343   5.655   2.003   7.589 -0.0126  0.1829 -1.5467
   80CHL1   C15 8344   5.687   1.802   7.668  0.9960  0.0793  0.3335
   80CHL1  H15A 8345   5.636   1.703   7.658 -0.9392  1.0669 -0.1751
   80CHL1  H15B 8346   5.783   1.805   7.614 -0.9309  3.6153 -3.4451
   80CHL1   C16 8347   5.706   1.855   7.807 -0.1936  0.5203 -0.3791
   80CHL1  H16A 8348   5.666   1.774   7.872 -0.5187 -0.2714 -1.5386
   80CHL1  H16B 8349   5.814   1.875   7.824  0.0084  1.6747 -2.5777
   80CHL1   C17 8350   5.622   1.981   7.825 -0.4543  0.1327 -0.2970
   80CHL1   H17 8351   5.693   2.063   7.803  1.4790 -0.9417  1.5486
   80CHL1   C13 8352   5.508   1.969   7.722  0.6532 -0.2847  0.2718
   80CHL1   C18 8353   5.411   1.864   7.778  0.0235 -0.3801  0.3234
   80CHL1  H18A 8354   5.462   1.783   7.833  1.1992  0.3195  0.3098
   80CHL1  H18B 8355   5.352   1.904   7.863  1.1094 -0.6007  1.2025
   80CHL1  H18C 8356   5.341   1.813   7.708  0.7793 -0.2973 -0.5180
   80CHL1   C12 8357   5.428   2.098   7.677  0.1524  0.3747  0.3368
   80CHL1  H12A 8358   5.350   2.134   7.746 -2.0014  0.4827 -1.9988
   80CHL1  H12B 8359   5.494   2.187   7.668 -1.6848  1.7017 -0.7573
   80CHL1   C11 8360   5.358   2.075   7.544  0.1493  0.1325  0.7172
   80CHL1  H11A 8361   5.285   1.998   7.577 -0.0783  0.5958  1.3056
   80CHL1  H11B 8362   5.307   2.168   7.510 -0.3811 -0.7754 -1.1543
   80CHL1    C9 8363   5.444   2.017   7.433  0.5774  0.3330  0.0997
   80CHL1    H9 8364   5.530   2.085   7.417  1.4303 -0.2476  1.9751
   80CHL1   C10 8365   5.363   2.004   7.295 -0.6668 -0.2590  0.5598
   80CHL1   C19 8366   5.230   1.935   7.322 -0.0535 -0.0599 -0.8159
   80CHL1  H19A 8367   5.168   1.922   7.231  1.2005 -0.4797 -1.6483
   80CHL1  H19B 8368   5.232   1.847   7.390  1.5291  0.5408 -0.0389
   80CHL1  H19C 8369   5.172   2.011   7.378  2.2404  0.4760  1.0206
   80CHL1    C1 8370   5.336   2.144   7.224  0.0186  1.0322 -0.6310
   80CHL1   H1A 8371   5.285   2.217   7.291 -1.0974 -0.3115  0.0223
   80CHL1   H1B 8372   5.437   2.189   7.218  0.8252 -0.6564 -0.3962
   80CHL1    C2 8373   5.289   2.144   7.084  0.5920 -0.1292  0.1653
   80CHL1   H2A 8374   5.295   2.248   7.045 -1.0923 -0.4822 -1.1954
   80CHL1   H2B 8375   5.182   2.116   7.076  0.6773 -0.6399  0.8258
   80CHL1   C20 8376   5.586   2.004   7.980 -0.1725  0.3024 -0.3227
   80CHL1   H20 8377   5.534   1.910   8.007  0.3654  0.1760  0.3212
   80CHL1   C21 8378   5.493   2.125   7.978 -0.7103  0.1878  0.1283
   80CHL1  H21A 8379   5.467   2.159   8.081 -1.2336 -0.1673  0.1236
   80CHL1  H21B 8380   5.388   2.103   7.947 -0.5877 -0.5313  0.1878
   80CHL1  H21C 8381   5.524   2.211   7.916  1.8387 -0.3864  0.4916
   80CHL1   C22 8382   5.708   2.008   8.073 -0.0405  0.0089 -0.1087
   80CHL1  H22A 8383   5.757   1.909   8.076 -3.9207 -2.0892  0.5878
   80CHL1  H22B 8384   5.787   2.078   8.040  1.9344 -0.9176  2.3453
   80CHL1   C23 8385   5.682   2.047   8.218 -0.5070  0.3220  0.0982
   80CHL1  H23A 8386   5.654   2.153   8.203  0.3066  0.2955 -1.8747
   80CHL1  H23B 8387   5.594   1.994   8.261 -0.7355  0.7631  0.1734
   80CHL1   C24 8388   5.817   2.029   8.291 -0.0613 -0.3550  0.1789
   80CHL1  H24A 8389   5.829   1.918   8.293  0.3620 -0.4026  4.7141
   80CHL1  H24B 8390   5.901   2.070   8.230 -0.6372 -0.3246 -0.6058
   80CHL1   C25 8391   5.803   2.071   8.440  0.4707 -0.0061 -0.8082
   80CHL1   H25 8392   5.906   2.089   8.477 -0.2666 -0.9800  1.9439
   80CHL1   C26 8393   5.724   2.194   8.464 -0.1934 -0.2039 -0.0791
   80CHL1  H26A 8394   5.763   2.286   8.417  1.3896 -0.8331 -0.0691
   80CHL1  H26B 8395   5.619   2.179   8.433 -0.4071 -1.2432  1.0583
   80CHL1  H26C 8396   5.725   2.210   8.574  0.0676 -0.6260 -0.0186
   80CHL1   C27 8397   5.761   1.944   8.536  0.3844 -0.1196  0.7255
   80CHL1  H27A 8398   5.727   1.973   8.637 -1.1340 -1.8315  0.7429
   80CHL1  H27B 8399   5.673   1.900   8.485  1.0819  0.4335 -1.0499
   80CHL1  H27C 8400   5.844   1.871   8.530 -1.4020 -2.2060  0.2115
   81CHL1    C3 8401   3.413   3.936   6.895 -0.3161  0.7482  0.0268
   81CHL1    H3 8402   3.499   3.867   6.894  0.3507  1.5740 -0.8311
   81CHL1    O3 8403   3.402   3.998   6.770  1.0991  0.4308 -0.6528
   81CHL1   H3' 8404   3.360   4.081   6.793  1.4881 -0.1341  2.6983
   81CHL1    C4 8405   3.286   3.848   6.918  0.9390 -0.3393 -0.5318
   81CHL1   H4A 8406   3.193   3.906   6.937  2.2551  0.8508  2.9739
   81CHL1   H4B 8407   3.275   3.779   6.831  0.0161  0.0835 -0.7623
   81CHL1    C5 8408   3.306   3.774   7.053 -0.3680 -0.5193  0.5240
   81CHL1    C6 8409   3.329   3.644   7.053 -0.0184 -0.1893  0.4330
   81CHL1    H6 8410   3.317   3.587   6.960  0.5341  0.9014 -0.3210
   81CHL1    C7 8411   3.342   3.563   7.182  0.2498  0.1462 -0.2077
   81CHL1   H7A 8412   3.288   3.465   7.179  0.1069  0.2104  0.1900
   81CHL1   H7B 8413   3.451   3.550   7.193  0.4477  0.5676 -1.5495
   81CHL1    C8 8414   3.309   3.642   7.312 -0.1893 -0.2293  0.7065
   81CHL1    H8 8415   3.199   3.656   7.321 -0.3090  0.0420 -0.9486
   81CHL1   C14 8416   3.359   3.574   7.436 -0.3145  0.3999 -0.1226
   81CHL1   H14 8417   3.469   3.557   7.433 -0.6178 -2.0062  0.4874
   81CHL1   C15 8418   3.307   3.431   7.467 -0.0077 -0.0909  0.1879
   81CHL1  H15A 8419   3.199   3.446   7.448  0.3146  2.2749 -0.0994
   81CHL1  H15B 8420   3.352   3.351   7.405 -1.6156 -1.9170  1.2653
   81CHL1   C16 8421   3.322   3.408   7.618 -0.2065 -0.1655  0.5529
   81CHL1  H16A 8422   3.226   3.368   7.657 -0.4441 -1.9265 -1.6315
   81CHL1  H16B 8423   3.402   3.332   7.632  1.8201  1.4943 -1.2180
   81CHL1   C17 8424   3.381   3.536   7.670  0.6260  0.0842 -0.8538
   81CHL1   H17 8425   3.489   3.512   7.673  0.3820 -1.2641  2.8271
   81CHL1   C13 8426   3.345   3.650   7.569  0.0650  0.0772  0.6461
   81CHL1   C18 8427   3.204   3.696   7.584  0.0342  0.8367 -0.5035
   81CHL1  H18A 8428   3.182   3.769   7.504  3.3262  3.3395  0.6454
   81CHL1  H18B 8429   3.131   3.612   7.587 -0.8942  1.6143  2.9657
   81CHL1  H18C 8430   3.192   3.750   7.681  1.8610 -0.4157  0.4966
   81CHL1   C12 8431   3.438   3.770   7.551 -0.1949  0.1964 -0.4875
   81CHL1  H12A 8432   3.437   3.840   7.638 -0.1430 -0.7302  0.2689
   81CHL1  H12B 8433   3.542   3.731   7.547 -0.9233 -1.8207 -0.9125
   81CHL1   C11 8434   3.410   3.852   7.428  0.2421 -0.7122 -0.0963
   81CHL1  H11A 8435   3.315   3.900   7.461 -0.0077 -1.6994  0.6853
   81CHL1  H11B 8436   3.480   3.938   7.418 -0.4014 -0.3535 -1.8193
   81CHL1    C9 8437   3.382   3.779   7.295 -0.4987  0.3003 -0.0606
   81CHL1    H9 8438   3.487   3.754   7.271  0.2402  0.5940  2.5565
   81CHL1   C10 8439   3.333   3.868   7.177  0.1912  0.8070  0.2224
   81CHL1   C19 8440   3.188   3.928   7.213  0.1721 -0.4355  0.6251
   81CHL1  H19A 8441   3.134   3.974   7.128  3.1118 -0.3734 -1.3371
   81CHL1  H19B 8442   3.124   3.850   7.260 -2.9968  0.6458 -1.5545
   81CHL1  H19C 8443   3.201   4.006   7.292  0.2430  0.6120 -0.3850
   81CHL1    C1 8444   3.430   3.980   7.147  0.7362  0.5342  0.0099
   81CHL1   H1A 8445   3.437   4.056   7.228 -0.1819  1.6466 -0.9308
   81CHL1   H1B 8446   3.532   3.936   7.155  0.1104 -1.0493 -0.4868
   81CHL1    C2 8447   3.415   4.041   7.008 -0.8068 -0.3343 -0.2304
   81CHL1   H2A 8448   3.505   4.104   6.994 -2.3182  2.2160  0.9049
   81CHL1   H2B 8449   3.324   4.103   6.990  0.0723  1.7403  2.0023
   81CHL1   C20 8450   3.340   3.567   7.817  0.2398  1.0854 -0.2059
   81CHL1   H20 8451   3.230   3.584   7.823 -0.3716 -1.7117 -1.7015
   81CHL1   C21 8452   3.410   3.696   7.871 -1.0114  0.2967  0.2168
   81CHL1  H21A 8453   3.404   3.700   7.982 -2.3672  0.9865  0.1302
   81CHL1  H21B 8454   3.358   3.783   7.827 -0.9352  0.2715  0.0759
   81CHL1  H21C 8455   3.519   3.695   7.847 -0.4194 -3.4250  2.1811
   81CHL1   C22 8456   3.370   3.451   7.920 -0.6989 -0.1483  0.0908
   81CHL1  H22A 8457   3.330   3.358   7.874  2.2102 -1.8930  0.8626
   81CHL1  H22B 8458   3.475   3.419   7.936 -1.2048 -1.3995  1.1414
   81CHL1   C23 8459   3.302   3.457   8.058 -0.7412  0.1472  0.5031
   81CHL1  H23A 8460   3.335   3.551   8.109 -0.2748  0.0639  0.3508
   81CHL1  H23B 8461   3.191   3.470   8.055 -0.6346  2.1279  2.1893
   81CHL1   C24 8462   3.320   3.330   8.142 -0.5307 -0.5880 -0.2437
   81CHL1  H24A 8463   3.246   3.258   8.101  0.5058 -1.3922 -0.7547
   81CHL1  H24B 8464   3.423   3.293   8.124 -0.3439 -0.0031 -0.4160
   81CHL1   C25 8465   3.290   3.348   8.296 -0.7034  0.3727  0.3388
   81CHL1   H25 8466   3.350   3.431   8.340 -1.3031  0.1084  1.6893
   81CHL1   C26 8467   3.146   3.393   8.319  0.1667  0.4387  0.4435
   81CHL1  H26A 8468   3.114   3.394   8.425 -0.0098  1.0952  0.3897
   81CHL1  H26B 8469   3.120   3.490   8.273 -0.7917  0.0610  0.1652
   81CHL1  H26C 8470   3.083   3.313   8.274  0.8047 -0.1927  0.6538
   81CHL1   C27 8471   3.327   3.218   8.372  0.2632 -0.1688  0.3974
   81CHL1  H27A 8472   3.274   3.136   8.320 -1.5697  1.8449 -1.1009
   81CHL1  H27B 8473   3.438   3.213   8.379  0.3659  1.0050 -0.1150
   81CHL1  H27C 8474   3.302   3.240   8.478  2.0076  2.2139  0.4041
   82CHL1    C3 8475   2.914   6.806   7.038 -0.5632 -1.1236 -0.1764
   82CHL1    H3 8476   3.015   6.852   7.039 -1.4280  0.8840  0.7502
   82CHL1    O3 8477   2.879   6.779   6.907  0.5656 -0.0251  0.6395
   82CHL1   H3' 8478   2.872   6.861   6.858 -1.0494 -1.1293 -1.1209
   82CHL1    C4 8479   2.910   6.689   7.125  0.4374  0.3941  0.0474
   82CHL1   H4A 8480   2.804   6.656   7.113  0.8188 -0.3318 -1.5641
   82CHL1   H4B 8481   2.970   6.607   7.080  0.0649  0.6404 -0.9205
   82CHL1    C5 8482   2.939   6.720   7.268 -0.3265 -0.1341 -0.3440
   82CHL1    C6 8483   3.040   6.662   7.334  0.0501  0.6236 -0.2864
   82CHL1    H6 8484   3.104   6.595   7.275 -0.0773 -0.3082  0.6174
   82CHL1    C7 8485   3.071   6.687   7.478  0.0307  0.5270 -0.0404
   82CHL1   H7A 8486   3.097   6.587   7.520 -0.9907  0.9010  1.5987
   82CHL1   H7B 8487   3.160   6.755   7.475  1.1393 -0.8946 -0.3721
   82CHL1    C8 8488   2.956   6.742   7.557  0.2685  0.2493  0.1550
   82CHL1    H8 8489   2.876   6.668   7.573 -0.2696  0.3994 -1.5784
   82CHL1   C14 8490   3.008   6.800   7.694  0.7774 -0.2410 -0.1950
   82CHL1   H14 8491   3.071   6.887   7.666 -0.0364  0.4879  0.2000
   82CHL1   C15 8492   3.082   6.703   7.776  0.4756 -0.2832 -0.4112
   82CHL1  H15A 8493   3.028   6.606   7.772 -0.5788  0.3283 -1.6704
   82CHL1  H15B 8494   3.188   6.682   7.752 -0.1073 -2.5231 -1.2880
   82CHL1   C16 8495   3.062   6.761   7.916  0.1400 -0.4711 -0.4480
   82CHL1  H16A 8496   3.018   6.684   7.984  0.4145  0.4938  0.8745
   82CHL1  H16B 8497   3.164   6.787   7.949  0.9379 -0.9388 -2.4407
   82CHL1   C17 8498   2.976   6.883   7.916 -0.3783 -0.7954 -0.4032
   82CHL1   H17 8499   3.052   6.963   7.902  0.7720 -2.2645 -3.5007
   82CHL1   C13 8500   2.893   6.861   7.781  0.1380 -0.0511  0.0406
   82CHL1   C18 8501   2.778   6.761   7.810  0.3891  0.1050  0.3868
   82CHL1  H18A 8502   2.723   6.717   7.724  0.6090 -0.6260  0.6083
   82CHL1  H18B 8503   2.809   6.674   7.871  1.1669  0.4574  0.5033
   82CHL1  H18C 8504   2.691   6.807   7.862  0.0219 -0.6777  0.4804
   82CHL1   C12 8505   2.855   6.989   7.701 -0.6546  0.2350 -0.4330
   82CHL1  H12A 8506   2.783   7.040   7.768 -0.3703 -2.1441  1.8231
   82CHL1  H12B 8507   2.939   7.061   7.687 -1.9186  1.7456 -0.4598
   82CHL1   C11 8508   2.806   6.950   7.562  0.5101 -0.0857 -0.2885
   82CHL1  H11A 8509   2.717   6.887   7.584 -0.6839  1.9866  1.0678
   82CHL1  H11B 8510   2.769   7.039   7.509  1.1304  0.2325 -0.1960
   82CHL1    C9 8511   2.903   6.863   7.478  0.3718 -0.4837  0.1683
   82CHL1    H9 8512   2.992   6.926   7.458 -0.7746  1.0937 -0.1605
   82CHL1   C10 8513   2.849   6.824   7.334 -0.6156  0.0233 -0.5301
   82CHL1   C19 8514   2.709   6.760   7.349 -0.7568  0.0359  0.6842
   82CHL1  H19A 8515   2.702   6.683   7.429 -2.1556 -2.4464 -1.6883
   82CHL1  H19B 8516   2.636   6.842   7.367  1.9572  2.1933  2.9017
   82CHL1  H19C 8517   2.678   6.701   7.260  1.2056 -0.5632  0.3486
   82CHL1    C1 8518   2.852   6.948   7.236  0.0412  0.0615 -0.3076
   82CHL1   H1A 8519   2.786   7.029   7.272 -0.3246  0.6551 -2.2428
   82CHL1   H1B 8520   2.955   6.989   7.224  0.1568 -0.6620 -2.1302
   82CHL1    C2 8521   2.820   6.913   7.097 -0.4813 -0.2584  0.9399
   82CHL1   H2A 8522   2.823   7.001   7.028 -3.0853 -2.0581 -1.7436
   82CHL1   H2B 8523   2.717   6.871   7.098 -0.8468  0.4742  4.1724
   82CHL1   C20 8524   2.896   6.917   8.044 -0.2282 -0.3718 -0.2875
   82CHL1   H20 8525   2.837   6.823   8.053 -0.9105 -0.2946 -2.8838
   82CHL1   C21 8526   2.783   7.032   8.033 -0.1854 -0.2978 -0.1233
   82CHL1  H21A 8527   2.817   7.129   7.990 -0.4180  2.2232  4.6959
   82CHL1  H21B 8528   2.760   7.052   8.139 -1.0272  0.8595 -0.5048
   82CHL1  H21C 8529   2.688   7.002   7.984 -0.6472 -0.9165  1.1169
   82CHL1   C22 8530   2.981   6.948   8.171  0.6024 -0.4014 -0.4110
   82CHL1  H22A 8531   3.086   6.921   8.147  0.6471 -0.5631 -0.0456
   82CHL1  H22B 8532   2.973   7.056   8.196  1.2004 -0.6594  0.9543
   82CHL1   C23 8533   2.928   6.874   8.287  0.5814  0.0400  0.3497
   82CHL1  H23A 8534   2.825   6.907   8.310  0.1697 -1.1313  0.2165
   82CHL1  H23B 8535   2.920   6.769   8.253  0.1639 -0.1229  0.9382
   82CHL1   C24 8536   3.016   6.859   8.417  0.2266  0.2427  0.0044
   82CHL1  H24A 8537   2.978   6.949   8.470 -1.8376 -0.9437  0.6518
   82CHL1  H24B 8538   2.989   6.773   8.482  1.6890 -0.2732 -0.0318
   82CHL1   C25 8539   3.174   6.861   8.408  0.0215  0.4866 -0.2857
   82CHL1   H25 8540   3.200   6.949   8.345  2.2667 -0.8482 -1.3726
   82CHL1   C26 8541   3.235   6.889   8.548  0.0017  0.9290 -0.9370
   82CHL1  H26A 8542   3.212   6.808   8.620 -2.4334  1.4794 -1.0342
   82CHL1  H26B 8543   3.346   6.882   8.547  0.1228  2.5131 -1.2238
   82CHL1  H26C 8544   3.214   6.992   8.583  1.0022  0.0730  2.5363
   82CHL1   C27 8545   3.236   6.744   8.333 -0.9416 -0.4878  0.0625
   82CHL1  H27A 8546   3.187   6.730   8.234 -3.1665 -0.7843  1.1531
   82CHL1  H27B 8547   3.346   6.743   8.314 -0.5894  0.1036  1.9054
   82CHL1  H27C 8548   3.223   6.659   8.403  1.8803  1.4571  3.2518
   83CHL1    C3 8549   1.520   4.517   6.816 -0.0758 -0.7954  0.0214
   83CHL1    H3 8550   1.548   4.611   6.868  0.9952 -0.4669 -1.0930
   83CHL1    O3 8551   1.585   4.515   6.683 -0.2097 -0.4553  0.0858
   83CHL1   H3' 8552   1.521   4.549   6.620  0.3764 -0.2043 -0.3823
   83CHL1    C4 8553   1.580   4.405   6.893 -0.1680  0.2607 -0.2236
   83CHL1   H4A 8554   1.548   4.315   6.835 -1.1961  0.6520 -0.2869
   83CHL1   H4B 8555   1.690   4.410   6.885 -0.0640 -0.5868  0.5581
   83CHL1    C5 8556   1.529   4.408   7.037  0.0560 -0.4207  0.2003
   83CHL1    C6 8557   1.610   4.434   7.137  0.0784  0.3427 -0.0118
   83CHL1    H6 8558   1.720   4.440   7.128  0.1992 -1.5728 -0.2108
   83CHL1    C7 8559   1.568   4.432   7.282  0.5014  0.4921  0.7769
   83CHL1   H7A 8560   1.637   4.372   7.345  1.3846  0.9167  0.2295
   83CHL1   H7B 8561   1.558   4.536   7.320 -0.1480  0.2966  1.1625
   83CHL1    C8 8562   1.427   4.366   7.302 -0.3733 -0.3272 -0.9676
   83CHL1    H8 8563   1.432   4.257   7.285 -1.1417 -0.5579  0.1805
   83CHL1   C14 8564   1.370   4.400   7.443  0.9467 -0.9364 -0.2463
   83CHL1   H14 8565   1.351   4.510   7.444  1.3767 -0.8145  2.8186
   83CHL1   C15 8566   1.457   4.369   7.564  0.2438  0.1294  0.5940
   83CHL1  H15A 8567   1.520   4.278   7.560  0.8706  0.5694  0.2100
   83CHL1  H15B 8568   1.532   4.449   7.587  0.4397 -0.0150  0.4679
   83CHL1   C16 8569   1.352   4.357   7.673 -0.7780 -0.1397 -0.1710
   83CHL1  H16A 8570   1.355   4.253   7.712  2.6790 -0.5206 -1.0941
   83CHL1  H16B 8571   1.393   4.414   7.760  0.9325 -0.9859 -0.3759
   83CHL1   C17 8572   1.214   4.394   7.612 -0.1688 -0.0816 -0.1372
   83CHL1   H17 8573   1.195   4.503   7.600 -2.5553 -0.2547  1.2704
   83CHL1   C13 8574   1.231   4.346   7.465  0.4035  0.3413 -0.9931
   83CHL1   C18 8575   1.236   4.186   7.455  0.3975 -0.1875  0.1594
   83CHL1  H18A 8576   1.165   4.156   7.375 -1.4702  1.8337  0.9524
   83CHL1  H18B 8577   1.337   4.148   7.428  0.0046 -0.7540 -0.5187
   83CHL1  H18C 8578   1.200   4.132   7.545 -1.5702 -0.7594 -0.9251
   83CHL1   C12 8579   1.139   4.404   7.359  0.5370  0.6771 -0.3592
   83CHL1  H12A 8580   1.036   4.362   7.373  1.4495 -1.3845  0.6736
   83CHL1  H12B 8581   1.135   4.514   7.368  2.8186  0.8128 -0.4444
   83CHL1   C11 8582   1.184   4.370   7.214 -0.0364  0.1408 -0.5139
   83CHL1  H11A 8583   1.163   4.261   7.204 -0.2176 -0.0657  1.5842
   83CHL1  H11B 8584   1.118   4.426   7.144  2.1339 -0.4998 -3.2568
   83CHL1    C9 8585   1.332   4.419   7.195  0.0410  0.1804 -0.7849
   83CHL1    H9 8586   1.325   4.528   7.216  1.9254  0.2651 -0.3926
   83CHL1   C10 8587   1.382   4.395   7.055  0.7604 -0.1241  0.6415
   83CHL1   C19 8588   1.339   4.248   7.016 -0.3507  1.1469  0.1957
   83CHL1  H19A 8589   1.229   4.243   7.008 -0.4247 -0.6006  1.6976
   83CHL1  H19B 8590   1.374   4.211   6.917  2.5965  0.3263  1.4178
   83CHL1  H19C 8591   1.375   4.175   7.092 -0.2015  1.7803  0.7507
   83CHL1    C1 8592   1.314   4.492   6.955 -0.1295 -0.1078 -0.1791
   83CHL1   H1A 8593   1.205   4.473   6.955 -0.3014  0.7977 -0.2850
   83CHL1   H1B 8594   1.320   4.590   7.007 -0.9605  1.2665 -2.4998
   83CHL1    C2 8595   1.367   4.507   6.812  0.4933 -0.0625  0.4379
   83CHL1   H2A 8596   1.326   4.597   6.762 -1.0524 -0.8503  0.2065
   83CHL1   H2B 8597   1.340   4.428   6.739  0.6990  0.4833 -0.2402
   83CHL1   C20 8598   1.097   4.343   7.705 -0.1815  0.4605  0.5708
   83CHL1   H20 8599   1.116   4.233   7.711  1.5817  0.5966 -1.2942
   83CHL1   C21 8600   0.952   4.354   7.646 -0.8381  0.4790 -0.9834
   83CHL1  H21A 8601   0.881   4.314   7.721 -0.6329 -1.2848 -1.6833
   83CHL1  H21B 8602   0.945   4.307   7.545  2.5631  2.0423 -2.1124
   83CHL1  H21C 8603   0.929   4.462   7.657 -1.1498  0.1986  1.9350
   83CHL1   C22 8604   1.100   4.403   7.851  0.8376  0.1339  0.3076
   83CHL1  H22A 8605   1.019   4.344   7.900  2.3041 -1.4419  0.9071
   83CHL1  H22B 8606   1.188   4.372   7.910 -1.3757  1.2029  4.5157
   83CHL1   C23 8607   1.072   4.550   7.867 -0.3080  0.2103 -0.2206
   83CHL1  H23A 8608   1.147   4.597   7.800 -0.3484 -0.7603 -0.9758
   83CHL1  H23B 8609   0.973   4.581   7.826  0.8559 -1.1871 -4.6718
   83CHL1   C24 8610   1.102   4.601   8.010  0.2664 -0.1048 -0.3978
   83CHL1  H24A 8611   1.204   4.566   8.037  0.2570 -0.9794 -1.4032
   83CHL1  H24B 8612   1.091   4.711   8.006  1.0986  0.0216  0.5381
   83CHL1   C25 8613   1.011   4.551   8.123 -0.1477 -0.6629  0.5653
   83CHL1   H25 8614   1.008   4.440   8.136 -2.2857 -0.8747 -1.1340
   83CHL1   C26 8615   1.068   4.615   8.254  0.4208 -0.6705 -0.7763
   83CHL1  H26A 8616   1.092   4.722   8.235  2.2694 -0.5655  1.6185
   83CHL1  H26B 8617   0.997   4.614   8.339  2.2414 -0.6230  0.8086
   83CHL1  H26C 8618   1.156   4.563   8.297  0.7879 -0.0343 -0.7395
   83CHL1   C27 8619   0.863   4.590   8.114 -0.7498  0.1668 -0.0035
   83CHL1  H27A 8620   0.859   4.700   8.094  2.0516  0.1870 -0.8657
   83CHL1  H27B 8621   0.832   4.543   8.019  0.0584 -1.8664  0.6924
   83CHL1  H27C 8622   0.806   4.543   8.197 -0.1868 -0.8838 -0.2073
   84CHL1    C3 8623   3.009   0.636   7.055  0.3713 -0.0204  0.5722
   84CHL1    H3 8624   2.991   0.742   7.084 -1.0425 -0.0063 -0.2877
   84CHL1    O3 8625   3.009   0.629   6.912  0.3041 -0.3946 -0.1303
   84CHL1   H3' 8626   3.010   0.537   6.884 -1.6818 -0.0278 -1.6379
   84CHL1    C4 8627   3.141   0.589   7.116  0.2428  0.6669 -0.3992
   84CHL1   H4A 8628   3.160   0.484   7.085 -0.4984 -0.6416  3.1257
   84CHL1   H4B 8629   3.220   0.647   7.065  2.2006 -2.1488 -0.8137
   84CHL1    C5 8630   3.139   0.601   7.266  0.1165 -0.4937  0.6806
   84CHL1    C6 8631   3.238   0.668   7.324 -0.1380 -0.1599 -0.0189
   84CHL1    H6 8632   3.321   0.702   7.261  0.5293 -2.9660 -0.7683
   84CHL1    C7 8633   3.237   0.695   7.471 -0.5312 -0.0943 -0.1674
   84CHL1   H7A 8634   3.329   0.672   7.528 -1.7211 -0.7096  1.5878
   84CHL1   H7B 8635   3.188   0.793   7.492 -1.4388 -0.1378 -1.8410
   84CHL1    C8 8636   3.145   0.602   7.553  0.6994  0.0148 -0.5340
   84CHL1    H8 8637   3.183   0.501   7.576 -3.7668 -1.2969  2.3670
   84CHL1   C14 8638   3.123   0.660   7.695  0.1632 -0.5949 -0.0555
   84CHL1   H14 8639   3.068   0.754   7.671 -1.8225 -1.0412  2.3669
   84CHL1   C15 8640   3.249   0.706   7.775 -0.3801  0.8102  0.0352
   84CHL1  H15A 8641   3.328   0.627   7.777 -0.4269  0.7802  0.8519
   84CHL1  H15B 8642   3.296   0.797   7.731 -0.0788  1.4689  1.6517
   84CHL1   C16 8643   3.198   0.728   7.915 -0.1981  0.2555  0.3656
   84CHL1  H16A 8644   3.269   0.656   7.962  0.2298  0.7501  0.4814
   84CHL1  H16B 8645   3.214   0.829   7.956  2.3598  0.1023 -0.0566
   84CHL1   C17 8646   3.048   0.684   7.914 -1.0711  0.0318 -0.2331
   84CHL1   H17 8647   2.988   0.777   7.899 -0.9048  0.4361  1.3933
   84CHL1   C13 8648   3.026   0.593   7.797 -0.1950  0.5985 -0.2043
   84CHL1   C18 8649   3.070   0.452   7.818  0.1670  0.2474 -0.4412
   84CHL1  H18A 8650   3.001   0.407   7.892  1.6346 -0.6732  0.4364
   84CHL1  H18B 8651   3.073   0.385   7.729 -0.7254  1.1110 -1.1316
   84CHL1  H18C 8652   3.169   0.440   7.867 -0.4253 -2.1746  0.2969
   84CHL1   C12 8653   2.889   0.592   7.720  0.3163  0.3627  0.0930
   84CHL1  H12A 8654   2.804   0.554   7.781  1.1732  0.8225  1.6125
   84CHL1  H12B 8655   2.871   0.701   7.709  2.7254  0.7419 -0.5909
   84CHL1   C11 8656   2.904   0.517   7.581  0.1925 -0.1904 -0.3207
   84CHL1  H11A 8657   2.923   0.408   7.594 -0.4397 -0.3119 -0.3642
   84CHL1  H11B 8658   2.812   0.519   7.519 -0.1856 -1.6653  0.1494
   84CHL1    C9 8659   3.010   0.587   7.484  0.3267 -0.7239  0.1504
   84CHL1    H9 8660   2.960   0.686   7.470  0.8056 -0.5038 -0.0382
   84CHL1   C10 8661   3.014   0.543   7.337  0.7418 -0.2071  0.4654
   84CHL1   C19 8662   3.036   0.391   7.335  0.3742 -0.2208 -0.2437
   84CHL1  H19A 8663   3.092   0.348   7.421 -1.2178 -2.1028 -0.0818
   84CHL1  H19B 8664   2.939   0.337   7.330  0.3995 -0.1798 -1.5003
   84CHL1  H19C 8665   3.101   0.365   7.249  1.1989  2.3489 -0.4840
   84CHL1    C1 8666   2.882   0.575   7.258  0.2856 -0.0514  0.4566
   84CHL1   H1A 8667   2.798   0.517   7.301  0.7666  0.5911  2.3382
   84CHL1   H1B 8668   2.852   0.682   7.267 -1.8654 -0.4969 -0.7985
   84CHL1    C2 8669   2.893   0.546   7.106  0.6012  0.4025  0.0500
   84CHL1   H2A 8670   2.803   0.588   7.056  0.6580 -0.2127 -0.5987
   84CHL1   H2B 8671   2.896   0.437   7.083  0.1563  0.9986 -3.3848
   84CHL1   C20 8672   3.001   0.629   8.046  0.3333  0.0823 -0.5419
   84CHL1   H20 8673   3.063   0.538   8.062 -2.2069 -1.7766 -0.7617
   84CHL1   C21 8674   2.852   0.612   8.042  0.4286 -0.1063 -0.3314
   84CHL1  H21A 8675   2.818   0.517   7.996  1.8972 -1.3225  0.9252
   84CHL1  H21B 8676   2.804   0.701   7.998  0.2105  0.2586  0.6097
   84CHL1  H21C 8677   2.809   0.612   8.145  1.4776  1.2016  0.1395
   84CHL1   C22 8678   3.035   0.718   8.165 -0.0196  0.4637  0.0860
   84CHL1  H22A 8679   3.146   0.723   8.170  0.1531 -2.2775  0.4379
   84CHL1  H22B 8680   2.994   0.819   8.140  0.2520  0.7316  0.6956
   84CHL1   C23 8681   2.992   0.684   8.311 -0.1634 -0.3532  0.0518
   84CHL1  H23A 8682   3.024   0.762   8.384  0.6024 -0.2178 -0.4134
   84CHL1  H23B 8683   2.882   0.684   8.322 -0.2610 -1.7193 -0.7640
   84CHL1   C24 8684   3.047   0.553   8.348 -0.9664  0.4390 -0.4028
   84CHL1  H24A 8685   3.025   0.461   8.289  3.0014 -1.0521  0.1350
   84CHL1  H24B 8686   3.157   0.554   8.333 -0.2327 -3.1840  2.9688
   84CHL1   C25 8687   3.025   0.512   8.496  0.0263 -0.3098 -0.4478
   84CHL1   H25 8688   3.008   0.613   8.541 -0.6570 -0.3439 -0.6219
   84CHL1   C26 8689   2.894   0.431   8.513  0.5524 -0.2907 -0.2006
   84CHL1  H26A 8690   2.815   0.491   8.463 -1.1443  0.4661  3.0760
   84CHL1  H26B 8691   2.901   0.332   8.463  1.4343  0.1508 -0.9622
   84CHL1  H26C 8692   2.877   0.414   8.622  2.3708  0.0805  0.1805
   84CHL1   C27 8693   3.153   0.438   8.540  0.0538 -0.1580  0.2873
   84CHL1  H27A 8694   3.152   0.347   8.476 -0.4608  0.1183 -0.1100
   84CHL1  H27B 8695   3.241   0.504   8.523 -0.0749  0.3651  1.6114
   84CHL1  H27C 8696   3.155   0.411   8.647 -1.0542 -1.3269  0.0331
   85CHL1    C3 8697   0.992   5.040   6.646 -0.0554  1.2237 -0.3401
   85CHL1    H3 8698   1.100   5.065   6.654  0.3556 -0.7685  1.3291
   85CHL1    O3 8699   0.977   5.023   6.510  0.0319  0.5154 -0.2462
   85CHL1   H3' 8700   0.912   4.953   6.503  0.2952  0.2911 -0.4810
   85CHL1    C4 8701   0.971   4.908   6.713  0.1908 -0.1316 -0.1378
   85CHL1   H4A 8702   0.870   4.872   6.684  1.6539 -3.3571 -1.7701
   85CHL1   H4B 8703   1.042   4.834   6.671 -1.5387 -0.9704 -1.6956
   85CHL1    C5 8704   0.994   4.920   6.867  0.6406 -0.2749  0.2586
   85CHL1    C6 8705   1.092   4.857   6.925 -0.6659 -0.5423 -0.5362
   85CHL1    H6 8706   1.147   4.780   6.868 -0.8325 -0.9715 -0.1223
   85CHL1    C7 8707   1.119   4.858   7.069  0.4864 -0.9805  0.4745
   85CHL1   H7A 8708   1.144   4.754   7.101  0.4249 -1.3538 -0.6438
   85CHL1   H7B 8709   1.201   4.927   7.099  1.5255 -2.7542  1.9432
   85CHL1    C8 8710   0.994   4.921   7.146 -0.5867  0.4341  0.1430
   85CHL1    H8 8711   0.911   4.846   7.147 -1.0369  0.9209 -0.1275
   85CHL1   C14 8712   1.038   4.960   7.288  0.4970 -0.0741 -0.0762
   85CHL1   H14 8713   1.107   5.044   7.263 -0.5772  0.7679 -0.2520
   85CHL1   C15 8714   1.107   4.852   7.371  0.3768 -0.6762  0.2732
   85CHL1  H15A 8715   1.062   4.754   7.346 -2.1428  0.3043  0.6787
   85CHL1  H15B 8716   1.213   4.837   7.342 -0.0701 -0.1161 -1.7960
   85CHL1   C16 8717   1.093   4.902   7.513  0.0014 -0.4468 -0.5035
   85CHL1  H16A 8718   1.037   4.819   7.560  1.2772 -0.7417  0.5450
   85CHL1  H16B 8719   1.184   4.907   7.577 -0.5713  0.7227  0.2536
   85CHL1   C17 8720   1.025   5.039   7.511 -0.3661  0.5810  0.3942
   85CHL1   H17 8721   1.099   5.119   7.488  0.2479 -0.1995 -0.4291
   85CHL1   C13 8722   0.943   5.037   7.377 -0.4119  0.1890  0.4493
   85CHL1   C18 8723   0.813   4.952   7.383  0.0883  0.1327 -0.2338
   85CHL1  H18A 8724   0.770   4.919   7.286  0.2709  0.5015 -0.4432
   85CHL1  H18B 8725   0.842   4.853   7.425  0.4009  0.7525  1.0687
   85CHL1  H18C 8726   0.746   5.005   7.455  1.7351  0.8513  0.8511
   85CHL1   C12 8727   0.918   5.174   7.307 -0.5553  0.1128  0.6070
   85CHL1  H12A 8728   0.846   5.229   7.372  1.4566  1.9563  1.3691
   85CHL1  H12B 8729   1.007   5.240   7.311 -0.4546 -0.0567  1.2418
   85CHL1   C11 8730   0.864   5.158   7.160  0.0782  0.6040  1.5671
   85CHL1  H11A 8731   0.759   5.122   7.164  0.4122 -1.2716 -1.9605
   85CHL1  H11B 8732   0.866   5.255   7.107 -2.8041 -0.1149 -0.0908
   85CHL1    C9 8733   0.953   5.052   7.074  0.5423 -0.4898 -0.0720
   85CHL1    H9 8734   1.047   5.105   7.050  0.4326 -1.5612 -3.5923
   85CHL1   C10 8735   0.901   5.025   6.934  0.0854  0.6848  0.0111
   85CHL1   C19 8736   0.758   4.948   6.939 -0.0427  0.2395  0.2399
   85CHL1  H19A 8737   0.675   4.996   6.994 -0.0003  0.9488 -0.2966
   85CHL1  H19B 8738   0.724   4.924   6.836  1.0406 -0.7815  0.0954
   85CHL1  H19C 8739   0.776   4.848   6.983 -0.0359 -0.9154 -2.2546
   85CHL1    C1 8740   0.904   5.156   6.852 -1.0271 -0.0457  0.4240
   85CHL1   H1A 8741   0.816   5.209   6.893  0.4658  1.9973  1.1507
   85CHL1   H1B 8742   1.001   5.208   6.866  0.9736 -3.2779 -0.3135
   85CHL1    C2 8743   0.896   5.136   6.707 -0.2184 -0.1142  0.6897
   85CHL1   H2A 8744   0.890   5.226   6.642  0.5051 -0.7697 -0.3180
   85CHL1   H2B 8745   0.793   5.098   6.690 -1.2884  2.6374  0.4833
   85CHL1   C20 8746   0.961   5.080   7.648 -0.5872  0.3073  0.2188
   85CHL1   H20 8747   0.878   5.007   7.664  0.4268 -0.5146  2.1114
   85CHL1   C21 8748   0.890   5.217   7.639  0.3858  0.2407 -0.2413
   85CHL1  H21A 8749   0.805   5.205   7.568 -0.0299  1.8588 -0.0524
   85CHL1  H21B 8750   0.968   5.292   7.620 -0.1025  0.6528 -0.6418
   85CHL1  H21C 8751   0.849   5.249   7.738 -2.0829 -0.7871 -0.8529
   85CHL1   C22 8752   1.055   5.066   7.769 -0.2412  0.2864 -0.3100
   85CHL1  H22A 8753   1.084   4.959   7.778  0.8423  0.5365 -0.5777
   85CHL1  H22B 8754   1.150   5.123   7.754  3.1491 -4.4652  0.8262
   85CHL1   C23 8755   0.992   5.106   7.899 -0.1785 -0.1859  0.0977
   85CHL1  H23A 8756   1.064   5.073   7.977  0.1291 -0.6602 -0.3781
   85CHL1  H23B 8757   0.984   5.216   7.900  1.9500  0.0204  1.8059
   85CHL1   C24 8758   0.856   5.037   7.923  0.0871  0.3551 -0.3355
   85CHL1  H24A 8759   0.777   5.067   7.851 -0.3841  2.5266  0.9854
   85CHL1  H24B 8760   0.876   4.928   7.914 -1.0336  0.1874 -0.9559
   85CHL1   C25 8761   0.800   5.056   8.063  0.5647  0.5233  0.4773
   85CHL1   H25 8762   0.881   5.023   8.131  1.1550  2.2665  0.6601
   85CHL1   C26 8763   0.749   5.200   8.086 -0.0981  0.1621 -0.2821
   85CHL1  H26A 8764   0.839   5.259   8.111 -0.6900  0.5284  1.0813
   85CHL1  H26B 8765   0.691   5.242   8.002 -0.3676 -1.8442 -1.1707
   85CHL1  H26C 8766   0.687   5.203   8.178 -1.1439 -1.8994 -0.8574
   85CHL1   C27 8767   0.676   4.967   8.084 -0.1212 -0.6864 -0.4220
   85CHL1  H27A 8768   0.593   4.987   8.012  0.2439 -0.8338 -0.8882
   85CHL1  H27B 8769   0.708   4.861   8.071  1.1749 -0.4828  0.8463
   85CHL1  H27C 8770   0.640   4.973   8.189 -1.5875  0.2134 -0.9411
   86CHL1    C3 8771   5.518   2.906   6.885  0.2586  0.2523 -1.0373
   86CHL1    H3 8772   5.479   3.009   6.902 -0.3817  0.0463 -1.2452
   86CHL1    O3 8773   5.468   2.858   6.762  0.0916  0.1936  0.7804
   86CHL1   H3' 8774   5.498   2.929   6.704 -0.9736  0.6688  0.7900
   86CHL1    C4 8775   5.667   2.903   6.893  0.1782 -0.6349 -0.0301
   86CHL1   H4A 8776   5.700   2.798   6.875 -0.7507 -0.4651 -3.2254
   86CHL1   H4B 8777   5.712   2.948   6.802 -1.6054  0.6261 -0.3271
   86CHL1    C5 8778   5.723   2.956   7.021  0.2968 -0.2822 -0.0519
   86CHL1    C6 8779   5.800   3.072   7.034  0.1313  0.2849  0.3080
   86CHL1    H6 8780   5.837   3.132   6.950 -1.4445  1.9842  0.7504
   86CHL1    C7 8781   5.856   3.120   7.169  0.1441  0.3889 -0.0759
   86CHL1   H7A 8782   5.964   3.146   7.170 -0.1279  1.8592  2.8346
   86CHL1   H7B 8783   5.806   3.218   7.183 -1.9537 -0.7043  0.4924
   86CHL1    C8 8784   5.830   3.022   7.289  0.1990  0.5760 -0.1372
   86CHL1    H8 8785   5.908   2.944   7.277  1.0054  1.6152 -2.0482
   86CHL1   C14 8786   5.842   3.089   7.425 -0.0386 -0.2268 -0.0762
   86CHL1   H14 8787   5.762   3.166   7.424 -0.3212 -0.5168 -1.5305
   86CHL1   C15 8788   5.973   3.163   7.445 -0.3716 -0.2528 -0.5855
   86CHL1  H15A 8789   6.063   3.107   7.410 -1.3425 -0.9446 -2.0489
   86CHL1  H15B 8790   5.971   3.261   7.393  1.3551  0.1123 -0.0575
   86CHL1   C16 8791   5.967   3.191   7.594 -0.3862 -0.2486  0.2758
   86CHL1  H16A 8792   6.066   3.158   7.633 -0.3594  0.6309  0.9635
   86CHL1  H16B 8793   5.944   3.295   7.624 -1.5411 -0.0306 -1.2299
   86CHL1   C17 8794   5.846   3.103   7.649 -0.3705 -0.3900 -0.2643
   86CHL1   H17 8795   5.762   3.173   7.666  0.7191  0.6763  0.9050
   86CHL1   C13 8796   5.819   3.002   7.545 -0.3356  0.3622 -0.2593
   86CHL1   C18 8797   5.924   2.897   7.556  0.4752  0.1015 -0.4165
   86CHL1  H18A 8798   5.900   2.837   7.646 -0.2409  1.9334  0.6715
   86CHL1  H18B 8799   5.922   2.832   7.466 -2.2472  0.1067 -0.4238
   86CHL1  H18C 8800   6.024   2.945   7.567  0.3645  0.0255  1.1261
   86CHL1   C12 8801   5.671   2.946   7.538 -0.9506  0.3114  0.0230
   86CHL1  H12A 8802   5.671   2.867   7.617  1.0305  0.4152  0.1859
   86CHL1  H12B 8803   5.591   3.023   7.546 -0.9821  0.7109 -3.0227
   86CHL1   C11 8804   5.647   2.879   7.400  0.2968  0.1464 -0.8887
   86CHL1  H11A 8805   5.708   2.786   7.399  1.7307  1.0510 -0.6778
   86CHL1  H11B 8806   5.542   2.842   7.401  0.4934 -0.4225 -1.1727
   86CHL1    C9 8807   5.690   2.967   7.279  0.1728  0.4846  0.1028
   86CHL1    H9 8808   5.621   3.053   7.279 -0.8907 -0.1402 -3.9382
   86CHL1   C10 8809   5.662   2.890   7.145  0.0440  1.0005 -0.3326
   86CHL1   C19 8810   5.725   2.745   7.148  0.2397 -0.6045 -0.1783
   86CHL1  H19A 8811   5.830   2.754   7.185  0.9510 -3.5570 -1.2263
   86CHL1  H19B 8812   5.668   2.677   7.215 -1.8086 -0.9004 -2.1074
   86CHL1  H19C 8813   5.730   2.704   7.045 -0.3663  0.6988 -0.7495
   86CHL1    C1 8814   5.509   2.868   7.132 -0.5211 -0.1400 -0.4783
   86CHL1   H1A 8815   5.467   2.799   7.208 -1.7946  0.9447 -0.1357
   86CHL1   H1B 8816   5.454   2.963   7.148  0.4246  0.5201 -1.0266
   86CHL1    C2 8817   5.457   2.816   6.992 -1.1694 -0.4185  0.2403
   86CHL1   H2A 8818   5.346   2.804   6.998 -1.3504  1.3578  0.9522
   86CHL1   H2B 8819   5.497   2.713   6.978 -1.0773 -0.4721  0.8874
   86CHL1   C20 8820   5.876   3.056   7.794 -0.3922  0.2776  0.3925
   86CHL1   H20 8821   5.961   2.985   7.785 -0.4761  0.1402  0.6590
   86CHL1   C21 8822   5.761   2.980   7.856  0.4288 -0.1793 -0.5965
   86CHL1  H21A 8823   5.783   2.960   7.963 -1.0041  1.5907  0.0811
   86CHL1  H21B 8824   5.752   2.885   7.799 -1.9108  0.2317 -1.0305
   86CHL1  H21C 8825   5.670   3.042   7.845 -0.5726 -1.6832 -1.1395
   86CHL1   C22 8826   5.926   3.172   7.885 -0.3877  0.2995 -0.3493
   86CHL1  H22A 8827   5.954   3.120   7.979  0.3114  1.6801  0.2439
   86CHL1  H22B 8828   6.018   3.220   7.846  0.1971 -0.8078 -0.3591
   86CHL1   C23 8829   5.825   3.279   7.928  0.2795 -0.1695 -0.7258
   86CHL1  H23A 8830   5.812   3.330   7.830  1.7417  0.4613 -0.6167
   86CHL1  H23B 8831   5.726   3.253   7.971  0.2875  2.9375  1.6080
   86CHL1   C24 8832   5.885   3.383   8.038  0.5535  0.1293 -0.1123
   86CHL1  H24A 8833   5.968   3.441   7.993  0.4478  0.3009 -0.0861
   86CHL1  H24B 8834   5.806   3.456   8.066 -2.2475 -2.5578 -0.4626
   86CHL1   C25 8835   5.932   3.327   8.171 -0.4798 -0.3700 -0.0130
   86CHL1   H25 8836   6.003   3.245   8.147 -2.9873 -2.6791 -0.0430
   86CHL1   C26 8837   5.989   3.437   8.266 -0.0222 -0.3242 -0.0403
   86CHL1  H26A 8838   5.908   3.506   8.299  0.8629 -1.0285  4.1824
   86CHL1  H26B 8839   6.032   3.382   8.353  0.4276 -1.2862 -0.8581
   86CHL1  H26C 8840   6.074   3.489   8.218 -0.0826  1.5200  1.6836
   86CHL1   C27 8841   5.825   3.260   8.250 -0.1087 -0.2140 -0.1209
   86CHL1  H27A 8842   5.859   3.215   8.345 -0.8874  2.0287  1.2820
   86CHL1  H27B 8843   5.753   3.336   8.285  0.8449  0.0752  1.2835
   86CHL1  H27C 8844   5.773   3.183   8.189 -0.0568 -0.1361 -0.2656
   87CHL1    C3 8845   5.644   6.681   6.948 -0.4528 -1.1772 -0.1715
   87CHL1    H3 8846   5.563   6.613   6.982  0.4551 -1.4312  1.5683
   87CHL1    O3 8847   5.683   6.656   6.811 -0.2449  0.8957 -0.4948
   87CHL1   H3' 8848   5.776   6.676   6.803 -0.1481  0.7313  0.1714
   87CHL1    C4 8849   5.581   6.824   6.949  0.2142  0.7754  0.2311
   87CHL1   H4A 8850   5.659   6.897   6.920  0.7854 -0.2091 -0.7960
   87CHL1   H4B 8851   5.498   6.828   6.876 -0.2244  2.1397  0.7718
   87CHL1    C5 8852   5.538   6.866   7.091 -0.6463 -0.6976  0.3765
   87CHL1    C6 8853   5.414   6.903   7.113 -0.4950  0.9147  0.1282
   87CHL1    H6 8854   5.352   6.909   7.023  1.6167 -2.2665 -1.7627
   87CHL1    C7 8855   5.356   6.935   7.250  0.2481 -0.4206  0.0105
   87CHL1   H7A 8856   5.299   7.031   7.250 -1.8873 -1.6078 -1.3664
   87CHL1   H7B 8857   5.274   6.863   7.269  0.6050 -1.5167 -2.2717
   87CHL1    C8 8858   5.457   6.934   7.365 -0.2330 -0.0239 -0.1573
   87CHL1    H8 8859   5.509   7.032   7.361  1.2722 -0.7093  1.2581
   87CHL1   C14 8860   5.385   6.916   7.494 -0.7201 -0.4086  0.0060
   87CHL1   H14 8861   5.366   6.807   7.486 -1.4496 -0.3403  0.6952
   87CHL1   C15 8862   5.250   6.978   7.535  0.1461 -0.3175  0.0524
   87CHL1  H15A 8863   5.249   7.084   7.501 -0.0872 -0.7119 -1.2067
   87CHL1  H15B 8864   5.167   6.916   7.496 -1.3026  0.6164  1.5467
   87CHL1   C16 8865   5.248   6.983   7.683  0.3743 -0.6581 -0.1397
   87CHL1  H16A 8866   5.231   7.088   7.717 -1.5571  0.4060 -3.7852
   87CHL1  H16B 8867   5.163   6.918   7.713  1.2795 -1.4329  0.7983
   87CHL1   C17 8868   5.374   6.910   7.728 -0.2921  0.0680  0.1580
   87CHL1   H17 8869   5.348   6.802   7.725  0.5055 -0.1437 -2.5832
   87CHL1   C13 8870   5.479   6.932   7.614 -0.1499  0.2152 -0.6331
   87CHL1   C18 8871   5.533   7.079   7.619 -0.3433  0.3571 -0.0839
   87CHL1  H18A 8872   5.595   7.103   7.708  0.3758  1.3259 -0.8223
   87CHL1  H18B 8873   5.595   7.101   7.530 -2.6678  0.8751 -1.6903
   87CHL1  H18C 8874   5.444   7.146   7.606 -0.7768  0.4138  2.6003
   87CHL1   C12 8875   5.590   6.820   7.608 -0.1328  0.7999 -0.5422
   87CHL1  H12A 8876   5.676   6.830   7.678  0.0353 -0.9847 -0.4569
   87CHL1  H12B 8877   5.538   6.723   7.624  1.3283  0.0719 -0.0170
   87CHL1   C11 8878   5.656   6.815   7.475  0.0755  0.0647  0.5228
   87CHL1  H11A 8879   5.712   6.911   7.466 -0.5023  0.4541  1.0029
   87CHL1  H11B 8880   5.720   6.726   7.457 -1.1185 -0.2094 -3.3147
   87CHL1    C9 8881   5.565   6.821   7.346 -0.0231 -0.3742 -0.6578
   87CHL1    H9 8882   5.502   6.730   7.342 -0.1196 -0.4291  1.4725
   87CHL1   C10 8883   5.635   6.827   7.212 -0.7126  0.7286 -0.3511
   87CHL1   C19 8884   5.738   6.942   7.195  1.4254  0.2464 -0.5645
   87CHL1  H19A 8885   5.814   6.935   7.275 -0.6633  1.3728  1.6600
   87CHL1  H19B 8886   5.794   6.936   7.099  0.9787 -0.1268 -0.8086
   87CHL1  H19C 8887   5.685   7.040   7.194  2.7873  1.1510  2.9291
   87CHL1    C1 8888   5.703   6.686   7.189  0.0096 -0.6102  0.5040
   87CHL1   H1A 8889   5.788   6.666   7.257  0.4437 -2.0230 -0.4299
   87CHL1   H1B 8890   5.622   6.610   7.197 -0.7542  0.1375  0.0980
   87CHL1    C2 8891   5.760   6.666   7.048 -0.6326  0.4035  0.0573
   87CHL1   H2A 8892   5.811   6.567   7.041  0.8231  1.1890 -0.8818
   87CHL1   H2B 8893   5.840   6.741   7.029  0.2446  0.2085  2.6227
   87CHL1   C20 8894   5.422   6.926   7.871 -0.5953 -0.0734  0.1097
   87CHL1   H20 8895   5.532   6.922   7.862 -0.6875  0.0920 -1.3677
   87CHL1   C21 8896   5.380   6.805   7.955  0.8229  0.5202  0.2140
   87CHL1  H21A 8897   5.269   6.800   7.959  0.8347  0.5106  0.5647
   87CHL1  H21B 8898   5.420   6.817   8.058 -0.8559 -3.0687  1.4441
   87CHL1  H21C 8899   5.422   6.712   7.910 -0.2996 -0.3523  0.9059
   87CHL1   C22 8900   5.384   7.056   7.935  0.5033 -0.2193  0.1557
   87CHL1  H22A 8901   5.408   7.150   7.881  1.6238 -0.1719  0.7112
   87CHL1  H22B 8902   5.276   7.067   7.959 -0.4966 -0.2673 -3.6625
   87CHL1   C23 8903   5.456   7.069   8.073  0.2100 -0.2659 -0.4861
   87CHL1  H23A 8904   5.415   7.000   8.150  0.1346  0.9199  0.5567
   87CHL1  H23B 8905   5.563   7.043   8.061  0.2760 -0.1731 -0.1149
   87CHL1   C24 8906   5.460   7.207   8.134 -0.2811 -0.2988 -0.6201
   87CHL1  H24A 8907   5.561   7.221   8.178 -1.7632 -0.7844  3.2658
   87CHL1  H24B 8908   5.446   7.280   8.052 -0.0041  0.3698 -0.0755
   87CHL1   C25 8909   5.353   7.230   8.244 -0.3741  0.5289 -0.5968
   87CHL1   H25 8910   5.362   7.145   8.315 -0.0154  0.8646 -0.2412
   87CHL1   C26 8911   5.381   7.345   8.339 -0.5681 -0.2947  0.4225
   87CHL1  H26A 8912   5.316   7.341   8.429  0.6176 -1.6970  1.2587
   87CHL1  H26B 8913   5.484   7.330   8.378 -1.0879  0.6972  2.3057
   87CHL1  H26C 8914   5.374   7.447   8.297  0.0862  0.4516  2.0346
   87CHL1   C27 8915   5.213   7.247   8.191  0.0238 -0.5295  0.3361
   87CHL1  H27A 8916   5.217   7.316   8.104  0.6060 -1.7627 -0.6504
   87CHL1  H27B 8917   5.175   7.152   8.148 -3.7710  1.7879 -1.9390
   87CHL1  H27C 8918   5.136   7.278   8.265  2.1826  2.5899  1.4806
   88CHL1    C3 8919   0.234   0.077   6.828  0.3288 -0.0099  0.6168
   88CHL1    H3 8920   0.266  -0.026   6.800 -2.9653  0.1864 -5.4340
   88CHL1    O3 8921   0.213   0.146   6.705  0.1562  0.1573 -0.1519
   88CHL1   H3' 8922   0.169   0.227   6.732 -1.4064 -1.2351  1.6870
   88CHL1    C4 8923   0.095   0.064   6.899  0.3668 -1.2497  0.2978
   88CHL1   H4A 8924   0.044   0.162   6.905 -0.1160 -1.2382 -2.3772
   88CHL1   H4B 8925   0.029   0.010   6.828  1.3320 -0.2804 -1.4114
   88CHL1    C5 8926   0.100   0.001   7.040 -0.1164  0.3113  0.3875
   88CHL1    C6 8927   0.030  -0.103   7.075  0.7353  0.3813  0.4788
   88CHL1    H6 8928  -0.050  -0.141   7.010 -0.8040  1.0450  1.9156
   88CHL1    C7 8929   0.030  -0.166   7.209 -0.7429 -0.3732 -0.0413
   88CHL1   H7A 8930  -0.072  -0.187   7.247 -0.2047  0.7681  2.1751
   88CHL1   H7B 8931   0.103  -0.249   7.225 -1.8419 -1.3845 -0.1282
   88CHL1    C8 8932   0.089  -0.062   7.313  0.5115  0.6522  0.0743
   88CHL1    H8 8933   0.023   0.027   7.321  0.4494  0.6017  0.1195
   88CHL1   C14 8934   0.103  -0.121   7.452 -0.2002  0.4119  0.2838
   88CHL1   H14 8935   0.165  -0.213   7.438  1.2041  1.3625  0.0566
   88CHL1   C15 8936  -0.027  -0.179   7.519 -0.6211  0.0890  0.0470
   88CHL1  H15A 8937  -0.106  -0.107   7.491 -0.5515  0.1623  0.0382
   88CHL1  H15B 8938  -0.051  -0.277   7.471 -0.2016 -1.1041  2.1620
   88CHL1   C16 8939   0.009  -0.180   7.666 -0.4737  0.7238  0.8335
   88CHL1  H16A 8940  -0.073  -0.143   7.731 -2.8062 -0.3679 -1.3006
   88CHL1  H16B 8941   0.019  -0.287   7.694 -4.6699  0.2091  1.0184
   88CHL1   C17 8942   0.157  -0.125   7.684  0.0235  0.4357 -0.7531
   88CHL1   H17 8943   0.216  -0.216   7.661 -0.4571  0.3067 -1.5345
   88CHL1   C13 8944   0.175  -0.040   7.556 -0.0548 -0.2552  0.2951
   88CHL1   C18 8945   0.099   0.091   7.585  0.3322 -0.1038  0.2717
   88CHL1  H18A 8946   0.062   0.147   7.497  0.5315  0.2904  0.4393
   88CHL1  H18B 8947   0.002   0.069   7.636  2.0041 -1.0740  3.2808
   88CHL1  H18C 8948   0.161   0.160   7.645 -0.3261  0.0281  0.8175
   88CHL1   C12 8949   0.311  -0.007   7.501  0.6883  0.0567 -0.1486
   88CHL1  H12A 8950   0.372   0.060   7.566 -1.0010  0.8009  0.7279
   88CHL1  H12B 8951   0.379  -0.093   7.482  4.0396  2.6837 -0.8979
   88CHL1   C11 8952   0.313   0.060   7.368  0.2670 -0.1132  0.8050
   88CHL1  H11A 8953   0.267   0.160   7.380  2.1372  0.8617  0.2374
   88CHL1  H11B 8954   0.420   0.067   7.340  0.3902 -2.9360  0.3087
   88CHL1    C9 8955   0.223  -0.010   7.263  0.3657  0.0891 -0.3137
   88CHL1    H9 8956   0.292  -0.095   7.245 -0.6553 -0.9044  0.2964
   88CHL1   C10 8957   0.208   0.067   7.126  0.0203 -0.6816 -0.1061
   88CHL1   C19 8958   0.159   0.215   7.157 -0.7326 -0.2435 -0.8055
   88CHL1  H19A 8959   0.060   0.200   7.206 -1.6611  2.7714 -1.4824
   88CHL1  H19B 8960   0.226   0.275   7.223 -1.8391  1.7707 -1.4030
   88CHL1  H19C 8961   0.127   0.266   7.063 -0.9703 -2.5264 -2.0312
   88CHL1    C1 8962   0.346   0.079   7.062  0.8179 -0.4891  0.1044
   88CHL1   H1A 8963   0.416   0.138   7.124 -1.2041  1.7374  0.4256
   88CHL1   H1B 8964   0.387  -0.023   7.046 -1.1580 -1.7119  2.2168
   88CHL1    C2 8965   0.339   0.150   6.919  0.1004  0.4294 -0.5700
   88CHL1   H2A 8966   0.440   0.150   6.872  0.7269 -0.3542  0.7111
   88CHL1   H2B 8967   0.310   0.257   6.933  0.4943  0.2151  2.5104
   88CHL1   C20 8968   0.198  -0.073   7.824  0.0744 -0.3758  0.5414
   88CHL1   H20 8969   0.186   0.037   7.827  2.5825  0.2325 -3.5932
   88CHL1   C21 8970   0.355  -0.094   7.838 -0.4309  0.0746  0.6168
   88CHL1  H21A 8971   0.363  -0.202   7.863  0.7606  0.1984  0.8243
   88CHL1  H21B 8972   0.397  -0.035   7.922  1.1126 -1.5419  1.0308
   88CHL1  H21C 8973   0.401  -0.070   7.740 -0.4230  0.4931  0.7220
   88CHL1   C22 8974   0.137  -0.146   7.941  0.1215 -0.1124 -0.3261
   88CHL1  H22A 8975   0.027  -0.137   7.927  0.1169  4.8357  0.9622
   88CHL1  H22B 8976   0.170  -0.251   7.952 -0.5215 -0.2478  0.3938
   88CHL1   C23 8977   0.174  -0.090   8.088 -0.0759  0.0167  0.1534
   88CHL1  H23A 8978   0.282  -0.115   8.100 -0.5476 -1.4780  1.6016
   88CHL1  H23B 8979   0.158   0.020   8.084 -2.0992 -0.2496 -0.0394
   88CHL1   C24 8980   0.095  -0.152   8.198  0.4443  0.0076 -0.3471
   88CHL1  H24A 8981  -0.014  -0.137   8.185  0.4395  0.6086  0.3172
   88CHL1  H24B 8982   0.110  -0.261   8.212 -0.8493 -0.2007 -0.4785
   88CHL1   C25 8983   0.122  -0.086   8.340 -0.2330 -0.1034  0.2054
   88CHL1   H25 8984   0.086   0.016   8.314 -1.6251 -0.6406 -0.0801
   88CHL1   C26 8985   0.034  -0.167   8.441 -0.2409 -0.3644 -0.2095
   88CHL1  H26A 8986  -0.066  -0.157   8.394  0.5738  3.0881 -1.5331
   88CHL1  H26B 8987   0.054  -0.274   8.464 -1.6491 -0.2336  1.8784
   88CHL1  H26C 8988   0.025  -0.112   8.537 -0.6047 -0.2300 -0.3175
   88CHL1   C27 8989   0.268  -0.093   8.379  0.5019  0.5773 -0.1892
   88CHL1  H27A 8990   0.318  -0.006   8.333 -0.1408  0.4426 -1.1600
   88CHL1  H27B 8991   0.279  -0.090   8.490  0.3262  0.0468 -0.1531
   88CHL1  H27C 8992   0.315  -0.188   8.347 -1.3879 -0.5875  0.3437
   89CHL1    C3 8993   4.898   3.623   6.916  0.5467  0.6803 -0.0626
   89CHL1    H3 8994   4.920   3.731   6.901  4.1197  0.3710  1.8785
   89CHL1    O3 8995   4.858   3.564   6.790 -0.0615 -0.6083  0.1260
   89CHL1   H3' 8996   4.855   3.468   6.801  1.6255 -0.8237 -0.8825
   89CHL1    C4 8997   5.023   3.558   6.985  0.2132 -0.1560 -0.0338
   89CHL1   H4A 8998   4.999   3.450   6.981  0.2260 -0.2012  0.9684
   89CHL1   H4B 8999   5.104   3.593   6.917 -0.7616  2.5012  0.0429
   89CHL1    C5 9000   5.043   3.599   7.130  0.4243 -0.0795  0.4444
   89CHL1    C6 9001   5.165   3.649   7.162  0.0336  0.5448 -0.0499
   89CHL1    H6 9002   5.245   3.650   7.086  0.1596  1.4722  0.0887
   89CHL1    C7 9003   5.200   3.684   7.303 -0.4867  0.8409 -0.2365
   89CHL1   H7A 9004   5.302   3.649   7.327 -0.8072  1.6380  2.6652
   89CHL1   H7B 9005   5.216   3.794   7.303 -1.0661  0.9457  1.1645
   89CHL1    C8 9006   5.097   3.649   7.413  0.4684 -0.8608 -0.3544
   89CHL1    H8 9007   5.105   3.541   7.440  0.3510 -0.4310  1.5557
   89CHL1   C14 9008   5.115   3.732   7.540  0.3542 -0.1366 -0.6075
   89CHL1   H14 9009   5.122   3.832   7.492  1.8970 -1.1573 -2.6693
   89CHL1   C15 9010   5.240   3.722   7.623  0.2314 -0.1887  0.2056
   89CHL1  H15A 9011   5.273   3.617   7.631 -1.2510 -1.0122 -2.9120
   89CHL1  H15B 9012   5.320   3.770   7.562 -3.0820  0.9996 -3.6806
   89CHL1   C16 9013   5.211   3.782   7.757 -0.4086 -0.3905 -0.2672
   89CHL1  H16A 9014   5.264   3.718   7.831 -0.0670  0.1491 -0.0427
   89CHL1  H16B 9015   5.254   3.884   7.767 -1.9780  0.6171 -2.7990
   89CHL1   C17 9016   5.055   3.791   7.771  0.0395  0.2200  0.7023
   89CHL1   H17 9017   5.043   3.899   7.747 -2.4670 -0.0547  0.4987
   89CHL1   C13 9018   4.998   3.717   7.648  0.4965  0.3715 -0.0579
   89CHL1   C18 9019   4.989   3.564   7.683  0.6328 -0.5943 -0.0889
   89CHL1  H18A 9020   4.946   3.505   7.599 -0.3986 -0.9377  0.6606
   89CHL1  H18B 9021   5.083   3.516   7.719  1.1152 -0.4095 -1.0764
   89CHL1  H18C 9022   4.923   3.555   7.772 -0.3661  1.6260 -0.5412
   89CHL1   C12 9023   4.874   3.775   7.575 -0.3192  0.3374 -0.0332
   89CHL1  H12A 9024   4.786   3.777   7.643 -0.0305  1.6751  0.3245
   89CHL1  H12B 9025   4.883   3.882   7.548  1.8973  0.7385  2.0289
   89CHL1   C11 9026   4.838   3.699   7.449  0.2195 -0.1444 -0.3647
   89CHL1  H11A 9027   4.809   3.596   7.479  0.2308  0.3250  1.4050
   89CHL1  H11B 9028   4.747   3.744   7.405  1.5745  1.5762 -1.5026
   89CHL1    C9 9029   4.958   3.678   7.350 -0.0760  0.7121  0.7127
   89CHL1    H9 9030   4.980   3.783   7.320  0.6765  0.4473  0.2918
   89CHL1   C10 9031   4.920   3.601   7.222  0.6709 -0.2226  0.5058
   89CHL1   C19 9032   4.886   3.455   7.256  0.2045  0.2985 -0.5664
   89CHL1  H19A 9033   4.966   3.394   7.305 -0.9567  0.0451  1.0809
   89CHL1  H19B 9034   4.800   3.448   7.325  0.2823 -2.3274 -0.6422
   89CHL1  H19C 9035   4.870   3.388   7.169  2.6350 -2.4088  0.8554
   89CHL1    C1 9036   4.795   3.666   7.148 -0.3126  0.4614  0.0328
   89CHL1   H1A 9037   4.715   3.638   7.220  1.2724 -0.2995  1.5614
   89CHL1   H1B 9038   4.810   3.776   7.150  0.4136  0.4481  4.5654
   89CHL1    C2 9039   4.768   3.614   7.007 -0.3706  0.2959  0.3319
   89CHL1   H2A 9040   4.687   3.675   6.961 -0.0733  1.1278  0.8918
   89CHL1   H2B 9041   4.743   3.507   7.014  0.0018  0.2900  1.9911
   89CHL1   C20 9042   4.995   3.777   7.906  0.6208 -0.3776  0.4926
   89CHL1   H20 9043   5.012   3.673   7.941 -0.4967 -0.5723  0.4749
   89CHL1   C21 9044   4.839   3.797   7.898  0.5289 -0.0375  0.5031
   89CHL1  H21A 9045   4.799   3.710   7.842  0.2621  0.1988  0.3229
   89CHL1  H21B 9046   4.808   3.892   7.849 -2.3397 -0.7742  0.7209
   89CHL1  H21C 9047   4.787   3.797   7.996  0.5366 -0.6067  0.5120
   89CHL1   C22 9048   5.065   3.854   8.015  0.3213  0.6356  0.0354
   89CHL1  H22A 9049   5.173   3.829   8.024  0.2168  0.5306  1.1917
   89CHL1  H22B 9050   5.065   3.963   7.994  1.4298  0.3072 -1.8727
   89CHL1   C23 9051   5.009   3.827   8.157  0.8810 -0.6639 -0.3872
   89CHL1  H23A 9052   4.907   3.872   8.161  0.5071 -1.5543  0.4851
   89CHL1  H23B 9053   5.000   3.717   8.166  2.1983 -0.7247  0.4357
   89CHL1   C24 9054   5.100   3.868   8.280 -0.3514  0.1582  0.7111
   89CHL1  H24A 9055   5.195   3.811   8.283 -0.6570 -0.4256 -0.3195
   89CHL1  H24B 9056   5.129   3.972   8.252 -0.6413 -0.8634 -4.2689
   89CHL1   C25 9057   5.022   3.877   8.405  0.2982 -0.3679  0.6225
   89CHL1   H25 9058   4.957   3.967   8.392  0.8446 -0.1516 -0.8103
   89CHL1   C26 9059   4.949   3.744   8.446 -0.6562 -0.1154  0.1447
   89CHL1  H26A 9060   4.933   3.738   8.556  2.8524 -1.3040  0.7340
   89CHL1  H26B 9061   4.857   3.738   8.384 -0.7795 -0.8560  0.3876
   89CHL1  H26C 9062   5.015   3.659   8.418 -0.1071  0.2933  0.1658
   89CHL1   C27 9063   5.120   3.908   8.518 -0.1702 -0.2313 -0.2079
   89CHL1  H27A 9064   5.198   3.830   8.508 -1.0605 -1.2969  0.8291
   89CHL1  H27B 9065   5.161   4.010   8.503  1.5060 -1.0430 -1.5980
   89CHL1  H27C 9066   5.084   3.893   8.622 -0.9244 -2.8580 -0.7554
   90CHL1    C3 9067   2.654   4.013   6.911  0.7580 -0.0614 -0.0217
   90CHL1    H3 9068   2.714   4.105   6.927  0.7408  0.0388 -0.5213
   90CHL1    O3 9069   2.628   4.000   6.771  0.6302  0.2756  0.2457
   90CHL1   H3' 9070   2.711   3.994   6.722 -0.4456  1.0384 -1.7860
   90CHL1    C4 9071   2.726   3.889   6.965  0.0379  0.1480 -0.9588
   90CHL1   H4A 9072   2.670   3.804   6.920  0.3318  0.6151 -2.2567
   90CHL1   H4B 9073   2.827   3.872   6.922  0.4943  1.0905 -0.3048
   90CHL1    C5 9074   2.731   3.871   7.115 -0.0680 -0.0675 -0.2076
   90CHL1    C6 9075   2.846   3.847   7.180  0.7146 -0.0873  0.5624
   90CHL1    H6 9076   2.937   3.845   7.119  0.6409  0.1949  0.4355
   90CHL1    C7 9077   2.859   3.832   7.331  0.4153 -0.2084  1.1255
   90CHL1   H7A 9078   2.931   3.755   7.366  0.0250 -0.9958  0.2374
   90CHL1   H7B 9079   2.898   3.932   7.360  2.7687 -0.4899 -0.7777
   90CHL1    C8 9080   2.721   3.827   7.406  0.2837  0.8472  0.4141
   90CHL1    H8 9081   2.678   3.724   7.405  1.0895  0.4880  1.2615
   90CHL1   C14 9082   2.741   3.868   7.557 -0.4918 -0.4377  0.2883
   90CHL1   H14 9083   2.781   3.972   7.552  0.1052 -0.6870 -0.2120
   90CHL1   C15 9084   2.846   3.793   7.640 -0.3280 -0.2354 -0.0748
   90CHL1  H15A 9085   2.830   3.685   7.618 -1.0432 -0.3406  0.9181
   90CHL1  H15B 9086   2.953   3.813   7.616 -0.3381 -0.4877 -0.3384
   90CHL1   C16 9087   2.808   3.811   7.785 -0.4805  0.7867 -0.8672
   90CHL1  H16A 9088   2.794   3.711   7.831 -1.8135 -0.4614 -3.7222
   90CHL1  H16B 9089   2.886   3.859   7.848  0.2124 -1.0308 -0.2978
   90CHL1   C17 9090   2.677   3.902   7.783 -0.0875  0.3286  0.1076
   90CHL1   H17 9091   2.721   4.004   7.773  1.6024 -0.3728  0.0402
   90CHL1   C13 9092   2.622   3.880   7.640  0.2868  0.4064 -0.6028
   90CHL1   C18 9093   2.542   3.744   7.650 -0.1934 -0.0289  0.2344
   90CHL1  H18A 9094   2.443   3.758   7.700  0.5896 -0.2934  1.9324
   90CHL1  H18B 9095   2.522   3.700   7.550 -0.7250 -0.5499  0.5624
   90CHL1  H18C 9096   2.598   3.669   7.710 -3.2304 -2.0945  0.7281
   90CHL1   C12 9097   2.529   3.991   7.576 -0.8794 -0.0665 -0.0065
   90CHL1  H12A 9098   2.441   3.987   7.644 -0.0469  2.9430  1.3880
   90CHL1  H12B 9099   2.569   4.089   7.607  0.3512 -1.1301  1.9547
   90CHL1   C11 9100   2.499   3.960   7.427 -0.2059  0.2582 -0.1469
   90CHL1  H11A 9101   2.425   3.879   7.410 -1.8268  1.3563  1.3128
   90CHL1  H11B 9102   2.462   4.055   7.382 -1.0557  0.4163  0.8502
   90CHL1    C9 9103   2.627   3.930   7.343 -0.2180  0.3294  0.2834
   90CHL1    H9 9104   2.688   4.022   7.352  1.0670 -0.1702 -2.2681
   90CHL1   C10 9105   2.604   3.904   7.185 -0.5381  0.8134  0.6043
   90CHL1   C19 9106   2.511   3.772   7.158  0.0950 -0.1252  0.0260
   90CHL1  H19A 9107   2.413   3.803   7.200  0.9945 -0.0002  2.1874
   90CHL1  H19B 9108   2.498   3.765   7.048  0.3984  0.4793 -0.0523
   90CHL1  H19C 9109   2.557   3.680   7.201  2.8910  0.7272 -0.9058
   90CHL1    C1 9110   2.534   4.033   7.127 -0.0419 -0.2203 -0.0318
   90CHL1   H1A 9111   2.431   4.032   7.168  0.1208  0.0704  0.3872
   90CHL1   H1B 9112   2.595   4.121   7.157  0.2551 -1.0060  1.7790
   90CHL1    C2 9113   2.518   4.024   6.972 -0.3236 -0.1487  0.3364
   90CHL1   H2A 9114   2.477   4.120   6.935  1.7093 -0.0694 -1.9981
   90CHL1   H2B 9115   2.453   3.938   6.949  0.1015 -0.7952  1.4677
   90CHL1   C20 9116   2.599   3.886   7.915  0.2997  0.3247 -0.2606
   90CHL1   H20 9117   2.549   3.787   7.921 -0.9769  1.0331  2.1809
   90CHL1   C21 9118   2.478   3.995   7.921  0.3213 -0.1370 -0.2960
   90CHL1  H21A 9119   2.432   3.986   8.021  0.6629  0.7735 -0.0446
   90CHL1  H21B 9120   2.395   3.962   7.854 -1.8122  0.1767  2.0695
   90CHL1  H21C 9121   2.511   4.099   7.901 -0.1104  0.4681  1.8923
   90CHL1   C22 9122   2.695   3.912   8.033  0.1359  0.9270  0.0721
   90CHL1  H22A 9123   2.782   3.843   8.039 -0.1100  0.3603 -1.9349
   90CHL1  H22B 9124   2.736   4.016   8.032  0.3650  0.8425 -0.8478
   90CHL1   C23 9125   2.635   3.894   8.172 -0.3873  0.4739  0.0163
   90CHL1  H23A 9126   2.551   3.967   8.178  0.0230  0.9397  0.2625
   90CHL1  H23B 9127   2.606   3.788   8.187  1.5064 -0.1928 -0.7913
   90CHL1   C24 9128   2.733   3.941   8.287  0.1300  0.2992 -0.4067
   90CHL1  H24A 9129   2.820   3.872   8.290  0.5709  0.8702 -0.1412
   90CHL1  H24B 9130   2.774   4.038   8.252 -0.8663  0.3884 -1.3909
   90CHL1   C25 9131   2.663   3.944   8.422  0.3725  0.0753  0.1525
   90CHL1   H25 9132   2.619   3.847   8.453 -1.2860  1.4101  2.2321
   90CHL1   C26 9133   2.758   3.967   8.536 -0.4466 -0.3967 -0.7745
   90CHL1  H26A 9134   2.822   4.058   8.529  0.9084 -1.4206 -3.1026
   90CHL1  H26B 9135   2.704   3.990   8.630  0.9230  1.8624 -0.4814
   90CHL1  H26C 9136   2.821   3.877   8.558  0.8280  0.7647  0.5195
   90CHL1   C27 9137   2.547   4.042   8.412 -0.1583 -0.3752 -0.2606
   90CHL1  H27A 9138   2.527   4.070   8.518  0.8620 -0.5258 -0.0157
   90CHL1  H27B 9139   2.581   4.131   8.355 -1.7053 -0.1316 -0.8377
   90CHL1  H27C 9140   2.451   4.008   8.368  0.3226 -0.2598 -1.4469
   91CHL1    C3 9141   1.038   6.579   7.143  0.4580  0.1466 -0.2576
   91CHL1    H3 9142   0.960   6.654   7.165 -0.1401 -0.2983 -0.8061
   91CHL1    O3 9143   1.031   6.559   7.006  0.1414  0.2859 -0.6888
   91CHL1   H3' 9144   1.046   6.643   6.962 -0.1128  0.3884 -0.5787
   91CHL1    C4 9145   1.174   6.637   7.183 -0.1660 -0.0878 -0.3211
   91CHL1   H4A 9146   1.247   6.558   7.155  1.1115  0.1123  2.2143
   91CHL1   H4B 9147   1.197   6.726   7.122 -1.2840  1.7972  1.8544
   91CHL1    C5 9148   1.187   6.663   7.328 -0.3706  0.9275 -1.0975
   91CHL1    C6 9149   1.218   6.780   7.389  0.3655  0.1486  0.0254
   91CHL1    H6 9150   1.233   6.869   7.326  1.1878 -0.2503 -0.3616
   91CHL1    C7 9151   1.246   6.795   7.534  0.8710 -0.1178  0.1579
   91CHL1   H7A 9152   1.334   6.854   7.565 -0.0387  0.7451  1.1945
   91CHL1   H7B 9153   1.159   6.853   7.572  0.4276 -0.5737 -0.1433
   91CHL1    C8 9154   1.262   6.664   7.608 -0.1546 -0.1234  0.8700
   91CHL1    H8 9155   1.361   6.623   7.578 -0.5635 -0.7466  0.3382
   91CHL1   C14 9156   1.253   6.688   7.754 -0.2914  0.2211 -0.5083
   91CHL1   H14 9157   1.158   6.739   7.781 -0.6217 -0.7809  0.2599
   91CHL1   C15 9158   1.354   6.786   7.819 -0.8255 -0.5535  0.1620
   91CHL1  H15A 9159   1.447   6.754   7.767 -0.5123  1.5753 -0.6621
   91CHL1  H15B 9160   1.336   6.893   7.798 -0.3581 -0.6672 -0.8752
   91CHL1   C16 9161   1.357   6.759   7.972  0.9484 -0.3504  0.3872
   91CHL1  H16A 9162   1.465   6.748   7.995  0.6637 -1.7303  1.2289
   91CHL1  H16B 9163   1.313   6.842   8.033  0.2642  0.6888 -1.4529
   91CHL1   C17 9164   1.277   6.624   7.990 -0.3955 -0.0474  0.6986
   91CHL1   H17 9165   1.173   6.653   8.017 -0.5091  0.2446 -0.0194
   91CHL1   C13 9166   1.262   6.560   7.848 -1.3480 -0.4174  0.7876
   91CHL1   C18 9167   1.396   6.481   7.812  0.0590 -0.5951  0.1278
   91CHL1  H18A 9168   1.485   6.546   7.831  0.1191  0.2283 -2.5895
   91CHL1  H18B 9169   1.393   6.397   7.885 -0.4205  0.0840  0.9090
   91CHL1  H18C 9170   1.398   6.442   7.708 -0.0893  2.0388 -0.9554
   91CHL1   C12 9171   1.129   6.481   7.818 -0.6994  0.2946 -0.1367
   91CHL1  H12A 9172   1.128   6.385   7.875 -1.5626 -1.0934 -2.3951
   91CHL1  H12B 9173   1.044   6.543   7.853 -2.9129 -2.8712  0.4641
   91CHL1   C11 9174   1.109   6.452   7.666  0.2730  0.0819 -0.5358
   91CHL1  H11A 9175   1.183   6.373   7.643  0.5222 -0.4810  1.9268
   91CHL1  H11B 9176   1.008   6.410   7.645 -0.2458  1.0495 -0.0492
   91CHL1    C9 9177   1.146   6.572   7.564 -0.3025  0.1680 -0.1610
   91CHL1    H9 9178   1.055   6.635   7.577 -0.7824 -0.7206  0.9995
   91CHL1   C10 9179   1.154   6.532   7.416  0.6726  0.0714  0.0006
   91CHL1   C19 9180   1.274   6.429   7.402  0.3101 -0.0039  0.0105
   91CHL1  H19A 9181   1.368   6.453   7.457  0.2661 -0.6368  0.3761
   91CHL1  H19B 9182   1.238   6.329   7.436 -0.5659 -0.0461 -1.0057
   91CHL1  H19C 9183   1.301   6.425   7.294  0.1915 -0.8043 -0.0021
   91CHL1    C1 9184   1.019   6.471   7.366 -0.4540 -0.0995  0.1885
   91CHL1   H1A 9185   1.008   6.383   7.433 -0.5544 -0.4809 -0.3285
   91CHL1   H1B 9186   0.940   6.543   7.396  0.5147  1.3473 -0.6119
   91CHL1    C2 9187   1.014   6.447   7.214  0.4260 -0.1368 -0.1031
   91CHL1   H2A 9188   0.917   6.405   7.179 -0.5414  0.2788  1.8979
   91CHL1   H2B 9189   1.095   6.381   7.178  1.5625  1.9244 -1.5522
   91CHL1   C20 9190   1.335   6.550   8.109 -0.0529  1.1728  0.1026
   91CHL1   H20 9191   1.444   6.539   8.089  0.4980  2.2471  2.1982
   91CHL1   C21 9192   1.270   6.422   8.142  1.0968 -0.6888  1.0556
   91CHL1  H21A 9193   1.170   6.438   8.188  1.8290  2.9188  1.6542
   91CHL1  H21B 9194   1.323   6.376   8.229  0.6665  0.2584  1.8402
   91CHL1  H21C 9195   1.272   6.350   8.057 -1.0491 -0.1870  0.5140
   91CHL1   C22 9196   1.341   6.632   8.244  0.0174 -0.0208  0.8750
   91CHL1  H22A 9197   1.357   6.557   8.324 -1.3205  0.9770  2.1402
   91CHL1  H22B 9198   1.434   6.692   8.241  0.1470 -0.2414  0.4426
   91CHL1   C23 9199   1.214   6.718   8.279 -0.4685  0.5262 -0.2658
   91CHL1  H23A 9200   1.177   6.782   8.196 -2.1461  2.7579  2.0449
   91CHL1  H23B 9201   1.134   6.647   8.306  0.2920  0.1378  1.0915
   91CHL1   C24 9202   1.239   6.805   8.406 -0.3884 -0.4877 -0.1325
   91CHL1  H24A 9203   1.251   6.751   8.502  0.0847  0.1126  0.1602
   91CHL1  H24B 9204   1.324   6.869   8.373 -2.2425  2.3048  0.1766
   91CHL1   C25 9205   1.135   6.922   8.412 -0.0223 -0.3365 -0.1128
   91CHL1   H25 9206   1.106   6.941   8.307  1.0755 -1.5136 -0.6612
   91CHL1   C26 9207   1.010   6.873   8.481  0.3862 -0.4264  0.0774
   91CHL1  H26A 9208   1.028   6.828   8.581  0.8848  0.8512  0.5884
   91CHL1  H26B 9209   0.935   6.955   8.484  2.7816  1.9758 -1.0815
   91CHL1  H26C 9210   0.971   6.793   8.415  0.5496  0.4895 -1.1686
   91CHL1   C27 9211   1.180   7.043   8.483 -0.2009 -0.9637 -0.2130
   91CHL1  H27A 9212   1.121   7.133   8.453  0.6335  0.3757  1.9307
   91CHL1  H27B 9213   1.150   7.039   8.590 -0.0053  0.7406 -0.0545
   91CHL1  H27C 9214   1.290   7.055   8.473 -0.2549 -0.1519  0.0772
   92CHL1    C3 9215   3.578   0.550   6.863 -0.3487 -0.4854 -0.4571
   92CHL1    H3 9216   3.546   0.654   6.886 -0.4149 -0.1161 -2.1028
   92CHL1    O3 9217   3.564   0.519   6.730 -0.2149  0.2173 -0.0411
   92CHL1   H3' 9218   3.469   0.528   6.720 -0.3477 -0.9276 -0.0151
   92CHL1    C4 9219   3.729   0.542   6.895 -0.5079  0.0707 -0.1775
   92CHL1   H4A 9220   3.765   0.438   6.878  0.5856  0.4336 -0.1720
   92CHL1   H4B 9221   3.786   0.613   6.832  0.0186 -0.0186  0.1878
   92CHL1    C5 9222   3.761   0.566   7.042  0.5010 -0.0923 -0.0216
   92CHL1    C6 9223   3.839   0.669   7.085 -0.5573  0.3245 -0.7103
   92CHL1    H6 9224   3.894   0.729   7.011  0.2511  0.5176  0.0465
   92CHL1    C7 9225   3.864   0.698   7.229 -0.6430 -0.6282 -0.6927
   92CHL1   H7A 9226   3.971   0.715   7.255 -1.1624 -0.4791  1.5609
   92CHL1   H7B 9227   3.817   0.798   7.238  0.0418 -0.0835 -2.7424
   92CHL1    C8 9228   3.810   0.597   7.329 -0.0969  0.0838 -0.7542
   92CHL1    H8 9229   3.885   0.515   7.329 -0.2640 -0.1248  1.5709
   92CHL1   C14 9230   3.798   0.656   7.470 -0.3664  0.1615 -0.0682
   92CHL1   H14 9231   3.720   0.734   7.478 -2.8625 -1.7742 -3.0412
   92CHL1   C15 9232   3.936   0.700   7.527  0.4691  0.6665 -0.5638
   92CHL1  H15A 9233   4.012   0.627   7.492 -1.6935 -1.3725 -1.2974
   92CHL1  H15B 9234   3.973   0.801   7.500  0.3732  1.2068  1.1986
   92CHL1   C16 9235   3.907   0.703   7.674  0.3952  0.3429  0.3582
   92CHL1  H16A 9236   3.967   0.638   7.740 -0.4615 -2.5141 -1.4824
   92CHL1  H16B 9237   3.917   0.799   7.729 -2.4019  0.6930  0.4430
   92CHL1   C17 9238   3.770   0.641   7.702 -0.0165  0.2401  0.0198
   92CHL1   H17 9239   3.696   0.724   7.694 -0.5508  0.4881  4.9031
   92CHL1   C13 9240   3.742   0.555   7.571 -0.6634 -0.0155  0.4508
   92CHL1   C18 9241   3.823   0.425   7.580 -0.2386  0.0152 -0.1544
   92CHL1  H18A 9242   3.791   0.370   7.671 -0.6778  1.5547  0.6717
   92CHL1  H18B 9243   3.813   0.355   7.495  0.5072 -0.9693  0.5432
   92CHL1  H18C 9244   3.931   0.446   7.591 -0.6669  1.6095  1.6448
   92CHL1   C12 9245   3.598   0.516   7.538 -0.2869 -0.0285 -0.0698
   92CHL1  H12A 9246   3.570   0.440   7.614 -0.7309  0.1729 -0.0308
   92CHL1  H12B 9247   3.528   0.597   7.566 -0.7399 -1.4308  3.3049
   92CHL1   C11 9248   3.589   0.468   7.389  0.4570 -0.3530 -0.1611
   92CHL1  H11A 9249   3.629   0.365   7.394 -0.1992 -0.5861  0.4265
   92CHL1  H11B 9250   3.479   0.467   7.369  0.0903  1.7687  1.3705
   92CHL1    C9 9251   3.670   0.551   7.281 -0.8064  0.1265  0.3012
   92CHL1    H9 9252   3.612   0.645   7.278 -1.6939 -0.4279 -0.2509
   92CHL1   C10 9253   3.676   0.485   7.142 -0.7049 -0.0210 -0.1480
   92CHL1   C19 9254   3.746   0.351   7.151  0.0358 -0.1235  0.9325
   92CHL1  H19A 9255   3.843   0.344   7.205  2.7588  1.1378 -3.2694
   92CHL1  H19B 9256   3.682   0.273   7.198 -2.7790  1.4827 -0.0190
   92CHL1  H19C 9257   3.779   0.314   7.051 -0.9994  0.2893  0.4225
   92CHL1    C1 9258   3.531   0.476   7.096 -0.1416  0.4706  1.0583
   92CHL1   H1A 9259   3.500   0.381   7.145  1.7151 -1.5629 -1.4016
   92CHL1   H1B 9260   3.474   0.565   7.128 -1.1033  0.2202  0.0883
   92CHL1    C2 9261   3.501   0.450   6.950  0.1044  0.4937 -0.3802
   92CHL1   H2A 9262   3.392   0.466   6.934  0.0126  1.7813  1.3173
   92CHL1   H2B 9263   3.527   0.345   6.926 -0.2283 -0.1694  1.9732
   92CHL1   C20 9264   3.759   0.578   7.845 -0.1332  0.2419  0.0176
   92CHL1   H20 9265   3.829   0.492   7.851 -0.9519 -0.4006  0.5008
   92CHL1   C21 9266   3.613   0.539   7.866  0.8834  0.2008 -0.1239
   92CHL1  H21A 9267   3.551   0.627   7.839 -0.1416  0.3256  2.3011
   92CHL1  H21B 9268   3.591   0.523   7.974 -0.7903 -1.7623 -0.6977
   92CHL1  H21C 9269   3.593   0.439   7.822  1.4623  0.2384 -0.4809
   92CHL1   C22 9270   3.813   0.681   7.947  1.0865 -0.2216  0.1934
   92CHL1  H22A 9271   3.888   0.754   7.910  0.1871 -0.1024 -1.5020
   92CHL1  H22B 9272   3.728   0.751   7.954 -0.4415 -1.6545 -2.5315
   92CHL1   C23 9273   3.850   0.612   8.073  0.8925  0.6386 -0.5179
   92CHL1  H23A 9274   3.784   0.525   8.092  1.6395 -0.6419 -3.3671
   92CHL1  H23B 9275   3.948   0.567   8.047  1.0552  0.9193 -0.3997
   92CHL1   C24 9276   3.861   0.705   8.190  0.2803 -0.0944  1.0077
   92CHL1  H24A 9277   3.940   0.779   8.168 -1.0808  1.4083  0.9948
   92CHL1  H24B 9278   3.768   0.764   8.205 -0.9611 -0.7270 -2.9703
   92CHL1   C25 9279   3.893   0.646   8.328  0.5288  0.1280 -0.2103
   92CHL1   H25 9280   3.935   0.728   8.390 -0.2780  1.0654 -0.8767
   92CHL1   C26 9281   3.773   0.577   8.393 -0.3279  0.4253  0.4533
   92CHL1  H26A 9282   3.731   0.513   8.313  2.2737 -0.1432 -0.5459
   92CHL1  H26B 9283   3.813   0.518   8.478 -0.1330 -0.8076 -0.4667
   92CHL1  H26C 9284   3.687   0.639   8.428 -1.5954  0.1250 -1.9087
   92CHL1   C27 9285   4.009   0.545   8.330  0.1116  0.2202  0.1824
   92CHL1  H27A 9286   4.104   0.581   8.284  1.1225 -0.9702  1.2694
   92CHL1  H27B 9287   4.031   0.517   8.435  2.6658  2.4902  0.3771
   92CHL1  H27C 9288   3.976   0.461   8.266 -1.6352  2.1418 -1.6014
   93CHL1    C3 9289   1.993   5.498   6.917  0.3796  0.1269 -0.1979
   93CHL1    H3 9290   2.050   5.593   6.931 -0.3032  0.2748  1.9452
   93CHL1    O3 9291   2.002   5.467   6.782  1.1278 -0.7208  0.9856
   93CHL1   H3' 9292   1.950   5.387   6.783  0.2031 -0.1310  1.2753
   93CHL1    C4 9293   2.066   5.392   7.003 -0.3656 -0.0420  0.0352
   93CHL1   H4A 9294   2.032   5.289   6.978  0.6089 -0.1840 -0.7689
   93CHL1   H4B 9295   2.173   5.398   6.974  0.0708 -0.3634  1.4929
   93CHL1    C5 9296   2.053   5.425   7.150 -0.7198  0.0067  0.7665
   93CHL1    C6 9297   2.156   5.450   7.228 -0.4080  0.3307  0.7874
   93CHL1    H6 9298   2.257   5.437   7.187 -0.3527  0.1444  0.9773
   93CHL1    C7 9299   2.151   5.471   7.377  0.1955  0.1270 -0.0216
   93CHL1   H7A 9300   2.219   5.396   7.423 -0.4714  0.2834  1.2691
   93CHL1   H7B 9301   2.194   5.572   7.398 -1.1824  0.8003 -0.3022
   93CHL1    C8 9302   2.012   5.452   7.447 -0.1418  0.2886  0.9813
   93CHL1    H8 9303   2.008   5.344   7.475 -0.4468  0.0192 -0.0724
   93CHL1   C14 9304   1.998   5.531   7.579  0.7640 -0.1886  0.7225
   93CHL1   H14 9305   2.001   5.636   7.543 -0.3744 -0.9926 -2.0064
   93CHL1   C15 9306   2.091   5.509   7.694  0.2259  0.2924  0.5232
   93CHL1  H15A 9307   2.094   5.402   7.721  0.1991 -0.4839 -2.2195
   93CHL1  H15B 9308   2.190   5.555   7.676  1.1105 -1.5626  0.4228
   93CHL1   C16 9309   2.021   5.598   7.804  0.4084  0.3660  0.7075
   93CHL1  H16A 9310   2.048   5.562   7.906  0.5563 -0.8128  0.2716
   93CHL1  H16B 9311   2.071   5.696   7.798  0.7640  0.1453  0.0446
   93CHL1   C17 9312   1.866   5.616   7.760 -0.0075 -0.2889 -0.3094
   93CHL1   H17 9313   1.861   5.709   7.699 -0.2340 -1.1959 -1.7113
   93CHL1   C13 9314   1.855   5.516   7.651  0.0070  0.4315  0.7150
   93CHL1   C18 9315   1.827   5.381   7.711  0.6908 -0.2078 -0.0940
   93CHL1  H18A 9316   1.842   5.304   7.633  0.3729  1.6258 -2.0790
   93CHL1  H18B 9317   1.902   5.367   7.792  0.0586  0.2172  0.5790
   93CHL1  H18C 9318   1.725   5.374   7.754  0.6621  1.0597  0.1012
   93CHL1   C12 9319   1.752   5.553   7.545 -0.5433  0.2209  0.4307
   93CHL1  H12A 9320   1.654   5.545   7.597 -0.1402 -0.5386  1.0994
   93CHL1  H12B 9321   1.758   5.660   7.515 -0.8112 -0.2173 -1.2664
   93CHL1   C11 9322   1.760   5.484   7.407  1.1671  0.1347  0.5390
   93CHL1  H11A 9323   1.730   5.378   7.416  2.6131 -0.3189  0.1633
   93CHL1  H11B 9324   1.692   5.538   7.337 -0.3953 -1.2393  0.9339
   93CHL1    C9 9325   1.901   5.491   7.348  0.5154 -0.9137  0.1208
   93CHL1    H9 9326   1.921   5.597   7.323  3.2362 -0.8836  2.0114
   93CHL1   C10 9327   1.902   5.437   7.202 -0.4124 -0.5292 -0.3010
   93CHL1   C19 9328   1.846   5.303   7.201 -0.4327 -0.1139 -0.1705
   93CHL1  H19A 9329   1.742   5.291   7.237 -1.3417  1.4887 -2.0851
   93CHL1  H19B 9330   1.840   5.263   7.098 -0.0960  0.1057 -0.2776
   93CHL1  H19C 9331   1.908   5.231   7.258 -1.0014 -1.5762 -1.3234
   93CHL1    C1 9332   1.832   5.537   7.114  0.0221  0.4354 -0.4149
   93CHL1   H1A 9333   1.723   5.541   7.137  0.5544  1.6129  2.3950
   93CHL1   H1B 9334   1.875   5.639   7.126 -0.9522  0.9001 -0.7498
   93CHL1    C2 9335   1.843   5.511   6.960  0.9450 -0.0745 -0.4444
   93CHL1   H2A 9336   1.801   5.601   6.911  1.1489  0.3461  0.1476
   93CHL1   H2B 9337   1.782   5.423   6.931 -0.0455  0.7066 -0.7953
   93CHL1   C20 9338   1.769   5.632   7.868  0.3293 -0.2720 -0.7226
   93CHL1   H20 9339   1.753   5.537   7.922  0.7280 -1.2105 -2.2084
   93CHL1   C21 9340   1.633   5.685   7.817  0.8525  0.7869 -0.2299
   93CHL1  H21A 9341   1.581   5.725   7.907  1.0328 -0.7718  0.6096
   93CHL1  H21B 9342   1.565   5.615   7.762  0.2444  2.5234 -1.7867
   93CHL1  H21C 9343   1.647   5.772   7.750 -2.9036  1.1959 -0.6990
   93CHL1   C22 9344   1.817   5.747   7.965 -0.1427  0.0280 -0.1404
   93CHL1  H22A 9345   1.922   5.723   7.992 -0.2248  1.2025  1.3196
   93CHL1  H22B 9346   1.824   5.847   7.917 -1.3378  1.0961  1.7782
   93CHL1   C23 9347   1.733   5.762   8.101 -0.1756 -0.2564  0.2899
   93CHL1  H23A 9348   1.622   5.759   8.087 -0.2835 -2.5612  1.1371
   93CHL1  H23B 9349   1.749   5.677   8.171  0.2406  0.2050  0.7643
   93CHL1   C24 9350   1.779   5.882   8.179 -0.2433 -0.0292  0.6643
   93CHL1  H24A 9351   1.749   5.972   8.121  2.7817  0.3349 -0.5303
   93CHL1  H24B 9352   1.724   5.885   8.276 -1.2264 -0.0606  0.1182
   93CHL1   C25 9353   1.940   5.894   8.205  0.0496  0.6523  0.0652
   93CHL1   H25 9354   1.988   5.894   8.105 -0.8922 -4.9463 -0.7271
   93CHL1   C26 9355   1.972   6.028   8.276 -0.0659  0.1366  0.0326
   93CHL1  H26A 9356   2.082   6.040   8.284  0.3908 -1.6538 -2.2896
   93CHL1  H26B 9357   1.941   6.112   8.211 -0.0596  1.1990  1.3780
   93CHL1  H26C 9358   1.930   6.052   8.376 -0.6084  0.8010 -0.3507
   93CHL1   C27 9359   1.995   5.769   8.274 -0.0706  0.3514  0.2489
   93CHL1  H27A 9360   1.930   5.744   8.360 -1.9719 -1.5837 -1.6124
   93CHL1  H27B 9361   1.981   5.681   8.208 -1.4276  0.7164  0.0053
   93CHL1  H27C 9362   2.103   5.775   8.299  0.3050  2.5539 -1.6067
   94CHL1    C3 9363   2.130   1.333   6.819 -0.6025  0.4414  0.1823
   94CHL1    H3 9364   2.038   1.272   6.819  0.7676 -1.7379 -0.0822
   94CHL1    O3 9365   2.167   1.372   6.687  0.1983  0.1149 -0.2205
   94CHL1   H3' 9366   2.229   1.445   6.692 -1.2130  1.3000  0.7978
   94CHL1    C4 9367   2.114   1.456   6.909 -0.8860  0.5376 -0.1597
   94CHL1   H4A 9368   2.199   1.527   6.896  1.2748 -1.9118 -0.1357
   94CHL1   H4B 9369   2.024   1.510   6.872 -0.3116  1.2690 -0.5105
   94CHL1    C5 9370   2.100   1.420   7.055 -0.2091 -0.8215 -0.3101
   94CHL1    C6 9371   1.995   1.465   7.128  0.0423  0.3759 -1.1784
   94CHL1    H6 9372   1.914   1.514   7.071 -1.7504 -1.2531 -0.1767
   94CHL1    C7 9373   1.970   1.429   7.270 -0.3463 -0.6297  0.0775
   94CHL1   H7A 9374   1.915   1.507   7.326 -2.8149 -0.0518 -2.9098
   94CHL1   H7B 9375   1.896   1.347   7.265 -1.2933  0.1997  0.1176
   94CHL1    C8 9376   2.101   1.389   7.336 -0.6686 -0.8079 -0.1057
   94CHL1    H8 9377   2.155   1.483   7.360 -5.6763  2.1816  0.9063
   94CHL1   C14 9378   2.078   1.335   7.480 -0.6261 -0.4003  0.1209
   94CHL1   H14 9379   2.037   1.235   7.454 -4.3119  1.1313 -0.5657
   94CHL1   C15 9380   1.973   1.408   7.569 -0.2426  0.1402 -0.0610
   94CHL1  H15A 9381   1.985   1.518   7.578  0.1491  0.1308 -0.4539
   94CHL1  H15B 9382   1.872   1.382   7.531  0.0641 -0.3300 -0.5674
   94CHL1   C16 9383   2.000   1.352   7.708  0.0146 -0.2948  0.1054
   94CHL1  H16A 9384   2.021   1.434   7.780 -0.6516  0.7247 -0.8182
   94CHL1  H16B 9385   1.913   1.295   7.746  0.4178 -1.6361 -0.9281
   94CHL1   C17 9386   2.124   1.254   7.690  0.7024 -0.4537 -0.3975
   94CHL1   H17 9387   2.075   1.158   7.664 -2.1243  1.1243 -1.2986
   94CHL1   C13 9388   2.203   1.304   7.557  0.7281 -0.0492 -0.6567
   94CHL1   C18 9389   2.295   1.420   7.588  0.9224  0.2104 -0.1643
   94CHL1  H18A 9390   2.248   1.485   7.666  0.9842  0.3931 -0.2784
   94CHL1  H18B 9391   2.391   1.387   7.631  0.4544 -1.1354 -0.1033
   94CHL1  H18C 9392   2.317   1.478   7.496  2.2366 -0.6122 -0.3974
   94CHL1   C12 9393   2.283   1.199   7.485 -0.6893  0.3119  1.1080
   94CHL1  H12A 9394   2.380   1.182   7.536 -1.4570 -0.3468  2.3950
   94CHL1  H12B 9395   2.228   1.104   7.469  1.6714 -0.7922 -1.2401
   94CHL1   C11 9396   2.317   1.242   7.335 -0.4136 -0.1293  0.3748
   94CHL1  H11A 9397   2.391   1.325   7.333  0.5785 -0.9370  1.7373
   94CHL1  H11B 9398   2.357   1.153   7.281  0.7917 -0.7567  2.2162
   94CHL1    C9 9399   2.184   1.292   7.254 -0.7657  0.1448  0.4092
   94CHL1    H9 9400   2.126   1.197   7.248  1.2599 -1.3336  2.3691
   94CHL1   C10 9401   2.214   1.330   7.110  0.3352  0.3012 -0.0133
   94CHL1   C19 9402   2.355   1.398   7.101 -0.4838 -0.9930 -0.4298
   94CHL1  H19A 9403   2.376   1.454   7.008 -0.7444  0.2156  0.2147
   94CHL1  H19B 9404   2.367   1.470   7.186 -0.8918 -0.8758 -0.4677
   94CHL1  H19C 9405   2.442   1.333   7.125  1.5637  2.0108  0.9683
   94CHL1    C1 9406   2.222   1.203   7.022 -0.3956  0.0799  0.6331
   94CHL1   H1A 9407   2.317   1.156   7.057 -0.0565  0.5519  0.3672
   94CHL1   H1B 9408   2.139   1.134   7.046  0.6274 -1.6902 -0.6745
   94CHL1    C2 9409   2.233   1.237   6.871 -0.3400  0.7478 -0.6815
   94CHL1   H2A 9410   2.210   1.151   6.805 -1.7416 -0.3888  1.1851
   94CHL1   H2B 9411   2.341   1.252   6.852  0.1735 -1.7138 -0.0950
   94CHL1   C20 9412   2.211   1.244   7.817  0.2241  0.6250 -0.2341
   94CHL1   H20 9413   2.283   1.329   7.823 -1.6510  2.1843  1.3513
   94CHL1   C21 9414   2.295   1.111   7.819  0.1535 -0.1523  0.3858
   94CHL1  H21A 9415   2.378   1.106   7.746  0.6288 -4.0078  0.9659
   94CHL1  H21B 9416   2.227   1.026   7.793  1.9530 -1.2217 -1.0555
   94CHL1  H21C 9417   2.336   1.092   7.920 -1.8985  0.5208  1.4061
   94CHL1   C22 9418   2.121   1.239   7.941  0.1369  0.1188 -0.1058
   94CHL1  H22A 9419   2.186   1.232   8.031  1.0333  1.7509 -0.5642
   94CHL1  H22B 9420   2.089   1.344   7.960 -0.0315 -0.0066  0.3086
   94CHL1   C23 9421   2.007   1.136   7.957 -0.7558  0.1380 -0.4610
   94CHL1  H23A 9422   1.968   1.106   7.857  1.0043 -3.6108 -0.1958
   94CHL1  H23B 9423   2.047   1.043   8.003 -2.0722  0.1359  0.7689
   94CHL1   C24 9424   1.901   1.202   8.044  0.1572 -0.3546  0.3499
   94CHL1  H24A 9425   1.941   1.240   8.140 -1.4436 -0.4675  1.0829
   94CHL1  H24B 9426   1.850   1.284   7.988 -0.9585 -2.4713 -1.9493
   94CHL1   C25 9427   1.790   1.107   8.087 -0.0026 -0.2328  0.8670
   94CHL1   H25 9428   1.843   1.040   8.157  1.1894 -0.2981 -0.0673
   94CHL1   C26 9429   1.681   1.180   8.159  0.2922  0.1406 -0.0693
   94CHL1  H26A 9430   1.608   1.103   8.193  0.1492  0.7273  1.0050
   94CHL1  H26B 9431   1.719   1.248   8.238 -0.3999  0.3078  0.1289
   94CHL1  H26C 9432   1.632   1.245   8.083  0.2060  2.4330  1.8080
   94CHL1   C27 9433   1.741   1.017   7.965  0.2342  0.1613 -0.0993
   94CHL1  H27A 9434   1.810   0.937   7.929  1.3248  0.5639  1.0261
   94CHL1  H27B 9435   1.642   0.966   7.974  0.7033 -0.5279  1.5019
   94CHL1  H27C 9436   1.727   1.082   7.876 -1.3134 -1.5863 -1.2093
   95CHL1    C3 9437   3.837   1.013   6.662 -0.6609 -0.5892  0.2409
   95CHL1    H3 9438   3.750   0.960   6.707 -1.2847  0.0883 -0.1367
   95CHL1    O3 9439   3.857   0.995   6.522  0.0087  0.6898 -0.0525
   95CHL1   H3' 9440   3.856   0.899   6.520  1.4043  0.5955  1.6998
   95CHL1    C4 9441   3.817   1.169   6.680 -0.1210  0.5781 -0.4059
   95CHL1   H4A 9442   3.897   1.220   6.623  0.1981 -0.4946 -0.9584
   95CHL1   H4B 9443   3.716   1.180   6.634 -1.3724 -0.2554  1.9492
   95CHL1    C5 9444   3.814   1.208   6.832 -0.0694  0.2505 -0.1343
   95CHL1    C6 9445   3.711   1.270   6.888  0.1515 -0.6555  0.6488
   95CHL1    H6 9446   3.626   1.296   6.824  0.5844  0.8159  0.6312
   95CHL1    C7 9447   3.703   1.316   7.033 -0.2967 -0.0684  0.6746
   95CHL1   H7A 9448   3.676   1.423   7.040 -2.0603 -0.4820  0.7526
   95CHL1   H7B 9449   3.623   1.256   7.082 -2.7933  2.8217  0.3923
   95CHL1    C8 9450   3.840   1.292   7.103  0.6023 -0.3832 -0.3305
   95CHL1    H8 9451   3.905   1.380   7.085  2.5948 -1.3240  1.7302
   95CHL1   C14 9452   3.809   1.295   7.251  0.1304  0.3672 -0.3827
   95CHL1   H14 9453   3.734   1.215   7.269  0.1500  0.7358  1.4985
   95CHL1   C15 9454   3.730   1.417   7.308 -0.2246  1.0873 -0.6254
   95CHL1  H15A 9455   3.770   1.515   7.275 -2.0028  1.8774 -0.5205
   95CHL1  H15B 9456   3.620   1.408   7.293 -0.2671 -3.2369  0.8588
   95CHL1   C16 9457   3.765   1.405   7.467  0.4966  0.4779 -0.5314
   95CHL1  H16A 9458   3.808   1.498   7.509  0.9981 -1.0213  2.4897
   95CHL1  H16B 9459   3.669   1.381   7.518  1.0244  0.7242  0.6121
   95CHL1   C17 9460   3.855   1.278   7.484  0.1609 -0.5673 -0.3808
   95CHL1   H17 9461   3.785   1.191   7.485  1.2213 -1.4440 -1.0197
   95CHL1   C13 9462   3.926   1.263   7.347 -0.2498  0.2882 -0.0399
   95CHL1   C18 9463   4.041   1.364   7.331  0.0218 -0.6867 -0.7873
   95CHL1  H18A 9464   4.131   1.334   7.388 -0.6769  0.0972  0.8021
   95CHL1  H18B 9465   4.073   1.380   7.226 -0.7129 -1.4632 -1.1484
   95CHL1  H18C 9466   4.005   1.463   7.368  0.7479 -0.2760 -1.1690
   95CHL1   C12 9467   3.969   1.118   7.311  0.2855 -0.0046  0.5250
   95CHL1  H12A 9468   4.052   1.091   7.380  0.8104 -0.2517 -0.1916
   95CHL1  H12B 9469   3.879   1.055   7.330 -0.8326  1.2152 -0.4813
   95CHL1   C11 9470   4.008   1.101   7.163  0.5749  0.1531  0.5398
   95CHL1  H11A 9471   4.096   1.169   7.157 -0.1285  1.0375  0.1380
   95CHL1  H11B 9472   4.055   1.002   7.142  1.0841  0.4329  0.3412
   95CHL1    C9 9473   3.896   1.155   7.067  0.0411  0.0453  0.3634
   95CHL1    H9 9474   3.823   1.071   7.079 -0.3415 -0.0578 -2.0313
   95CHL1   C10 9475   3.927   1.150   6.920  0.0846  0.2453  0.1875
   95CHL1   C19 9476   4.049   1.231   6.876 -0.7685 -0.5353  0.3430
   95CHL1  H19A 9477   4.137   1.188   6.929 -0.1236 -0.7917 -0.8858
   95CHL1  H19B 9478   4.077   1.208   6.771  0.7310  0.6128  0.4499
   95CHL1  H19C 9479   4.045   1.341   6.891 -0.5577 -0.7648  2.2579
   95CHL1    C1 9480   3.949   1.000   6.885 -0.0624  0.0579  0.7288
   95CHL1   H1A 9481   4.039   0.968   6.941  0.3107  2.0520  1.3255
   95CHL1   H1B 9482   3.871   0.936   6.931 -0.2114 -0.5294 -0.3024
   95CHL1    C2 9483   3.968   0.971   6.737 -0.9586  0.1815 -0.6770
   95CHL1   H2A 9484   3.971   0.861   6.720 -0.4188 -0.1463  1.2988
   95CHL1   H2B 9485   4.058   1.025   6.701 -2.7589  3.4708 -0.7344
   95CHL1   C20 9486   3.942   1.265   7.611  0.2167 -0.1550 -0.0478
   95CHL1   H20 9487   4.039   1.218   7.581  0.3885  0.1426  0.0383
   95CHL1   C21 9488   3.870   1.169   7.703 -0.8113 -0.3308 -0.1743
   95CHL1  H21A 9489   3.830   1.084   7.645 -2.9562  0.7763 -0.4146
   95CHL1  H21B 9490   3.789   1.219   7.761  0.1213 -1.9799  2.7991
   95CHL1  H21C 9491   3.926   1.136   7.793 -1.4345  0.5650  0.5646
   95CHL1   C22 9492   3.973   1.399   7.681 -0.0732  0.5789  0.2613
   95CHL1  H22A 9493   4.026   1.460   7.605  0.1402 -0.5868 -0.5561
   95CHL1  H22B 9494   3.872   1.443   7.698  0.1132  1.0383  0.1711
   95CHL1   C23 9495   4.073   1.382   7.797 -0.1957  0.0093  0.0935
   95CHL1  H23A 9496   4.049   1.286   7.848 -0.8596  0.8836  1.5090
   95CHL1  H23B 9497   4.169   1.374   7.742  0.8045 -0.5824  1.8595
   95CHL1   C24 9498   4.084   1.499   7.888  0.3122 -0.2888 -0.1056
   95CHL1  H24A 9499   4.096   1.594   7.833  2.8413 -1.0147 -0.9242
   95CHL1  H24B 9500   4.003   1.496   7.965 -0.0972 -1.4430 -0.5622
   95CHL1   C25 9501   4.210   1.495   7.981 -0.6889  0.1926  0.1466
   95CHL1   H25 9502   4.248   1.392   7.996 -0.3050  0.3267  0.1150
   95CHL1   C26 9503   4.326   1.561   7.905 -0.2453 -0.0905 -0.4009
   95CHL1  H26A 9504   4.308   1.668   7.882 -0.5826 -0.1641 -0.4823
   95CHL1  H26B 9505   4.415   1.546   7.971  0.2429  1.1467 -0.7471
   95CHL1  H26C 9506   4.343   1.523   7.802  1.3257  0.8853 -0.5401
   95CHL1   C27 9507   4.190   1.571   8.117  0.1440  0.6169  0.0943
   95CHL1  H27A 9508   4.090   1.546   8.161 -0.1092 -0.1702 -0.8851
   95CHL1  H27B 9509   4.270   1.543   8.188  1.5938  2.3133 -0.8075
   95CHL1  H27C 9510   4.189   1.679   8.091 -1.2753  0.7126  0.4579
   96CHL1    C3 9511   1.908   5.835   6.667  0.0170 -0.7478  0.6946
   96CHL1    H3 9512   1.930   5.727   6.686 -0.2666 -0.9495 -0.0657
   96CHL1    O3 9513   1.952   5.869   6.539 -0.6066 -0.4712 -0.0154
   96CHL1   H3' 9514   1.929   5.962   6.529 -1.6568 -0.7014  0.1485
   96CHL1    C4 9515   1.756   5.861   6.673 -0.1877  0.5499  0.5288
   96CHL1   H4A 9516   1.739   5.963   6.633  0.3122  0.7189  0.7380
   96CHL1   H4B 9517   1.700   5.789   6.610 -2.5286  2.6397  0.0643
   96CHL1    C5 9518   1.700   5.853   6.811  0.2582 -0.4893 -0.2215
   96CHL1    C6 9519   1.590   5.784   6.846 -0.7494  0.0411  0.0176
   96CHL1    H6 9520   1.535   5.721   6.774 -2.2546 -1.3909  2.2928
   96CHL1    C7 9521   1.522   5.796   6.979 -0.5058 -0.6361 -0.1215
   96CHL1   H7A 9522   1.412   5.778   6.974 -0.9645  0.8250  2.6372
   96CHL1   H7B 9523   1.559   5.719   7.050 -1.2093  0.1989  1.2069
   96CHL1    C8 9524   1.568   5.922   7.066  0.9421  0.6655  0.0397
   96CHL1    H8 9525   1.516   6.009   7.020 -2.7126 -0.6945  1.2111
   96CHL1   C14 9526   1.522   5.899   7.204  0.5382 -0.3260  0.5385
   96CHL1   H14 9527   1.568   5.805   7.241 -2.2320 -0.8104  3.1853
   96CHL1   C15 9528   1.371   5.869   7.234 -0.1021  0.5705  0.5658
   96CHL1  H15A 9529   1.306   5.936   7.174  1.1485  0.5032 -0.9379
   96CHL1  H15B 9530   1.354   5.760   7.222  0.1514  0.3396  2.0653
   96CHL1   C16 9531   1.355   5.901   7.386 -0.4558 -0.4468  0.4805
   96CHL1  H16A 9532   1.281   5.984   7.388  0.6166  0.8477 -3.4743
   96CHL1  H16B 9533   1.323   5.811   7.442  0.5089  0.3775  2.4487
   96CHL1   C17 9534   1.497   5.960   7.436  0.2688  0.0537 -0.6339
   96CHL1   H17 9535   1.553   5.871   7.471 -0.9904 -1.0056 -1.2380
   96CHL1   C13 9536   1.551   6.011   7.298 -0.6166  0.5906 -0.0312
   96CHL1   C18 9537   1.468   6.136   7.260  0.2061  0.0372  0.8050
   96CHL1  H18A 9538   1.357   6.126   7.265  0.0975  0.6873 -0.0300
   96CHL1  H18B 9539   1.500   6.218   7.328  1.8431 -1.8163  2.3555
   96CHL1  H18C 9540   1.486   6.171   7.156  0.9919 -0.5521  0.7338
   96CHL1   C12 9541   1.705   6.039   7.292 -0.1010 -0.3121 -0.3598
   96CHL1  H12A 9542   1.734   6.125   7.356  1.9507 -0.2091 -1.3641
   96CHL1  H12B 9543   1.761   5.949   7.325  1.1763  0.6446  0.1233
   96CHL1   C11 9544   1.759   6.059   7.148  0.7603  0.4471 -0.3979
   96CHL1  H11A 9545   1.717   6.161   7.130  1.4135  0.7768 -0.0858
   96CHL1  H11B 9546   1.870   6.060   7.146  0.8678  0.1584  2.3705
   96CHL1    C9 9547   1.715   5.938   7.059  0.2037 -0.4903 -0.5726
   96CHL1    H9 9548   1.755   5.848   7.110  0.7628 -1.3533 -2.4414
   96CHL1   C10 9549   1.776   5.944   6.906 -0.5213 -0.1094 -0.7875
   96CHL1   C19 9550   1.754   6.093   6.870  0.8878  0.2541 -0.3805
   96CHL1  H19A 9551   1.790   6.110   6.767 -0.9506 -1.7453 -1.4439
   96CHL1  H19B 9552   1.648   6.125   6.878  0.6817 -0.6064  0.6187
   96CHL1  H19C 9553   1.816   6.159   6.935 -0.6662 -1.4080  3.0769
   96CHL1    C1 9554   1.928   5.910   6.904  0.4880 -0.4269 -0.9161
   96CHL1   H1A 9555   1.975   5.986   6.969 -2.2891  1.4164 -0.8832
   96CHL1   H1B 9556   1.939   5.807   6.945  0.8265 -0.0141  0.0599
   96CHL1    C2 9557   1.989   5.912   6.764 -0.1783  0.0250 -0.2012
   96CHL1   H2A 9558   2.092   5.870   6.769 -0.7506 -1.8347 -2.6134
   96CHL1   H2B 9559   1.992   6.017   6.727 -0.6320  0.0476 -0.1701
   96CHL1   C20 9560   1.469   6.053   7.562  0.7490 -0.3506  0.5625
   96CHL1   H20 9561   1.385   6.113   7.521  1.2851 -1.3877 -2.2610
   96CHL1   C21 9562   1.590   6.139   7.591 -0.1764 -0.5030  0.5224
   96CHL1  H21A 9563   1.607   6.220   7.517 -3.3456 -1.4732 -1.4601
   96CHL1  H21B 9564   1.681   6.074   7.592 -0.1075 -0.4126  0.2708
   96CHL1  H21C 9565   1.584   6.177   7.695 -1.7146 -1.9739  1.0257
   96CHL1   C22 9566   1.425   5.978   7.687  0.4137 -0.0840  0.2383
   96CHL1  H22A 9567   1.398   5.872   7.666  0.7746 -0.1828  0.2650
   96CHL1  H22B 9568   1.511   5.968   7.756 -0.6495 -0.4705  1.5618
   96CHL1   C23 9569   1.316   6.056   7.756 -0.3059  0.0188  0.0422
   96CHL1  H23A 9570   1.347   6.150   7.807 -2.7125  0.3998  0.9427
   96CHL1  H23B 9571   1.241   6.105   7.690 -0.3545  0.8169  0.6735
   96CHL1   C24 9572   1.257   5.984   7.880 -0.2979 -0.2018  0.0251
   96CHL1  H24A 9573   1.190   6.064   7.920 -0.7882 -1.5238  2.0075
   96CHL1  H24B 9574   1.203   5.895   7.842  1.8395 -2.4588  1.9557
   96CHL1   C25 9575   1.351   5.932   7.989 -0.1140  0.1901  0.1157
   96CHL1   H25 9576   1.406   5.843   7.952  0.6337  0.0620  1.4997
   96CHL1   C26 9577   1.456   6.036   8.023  0.3498  0.2876 -0.1140
   96CHL1  H26A 9578   1.532   6.060   7.946  0.4524  0.0025 -0.1007
   96CHL1  H26B 9579   1.416   6.135   8.053 -2.0106 -0.9819  1.2421
   96CHL1  H26C 9580   1.516   5.999   8.109  0.8141  2.4979  0.5892
   96CHL1   C27 9581   1.275   5.902   8.115 -0.0310 -0.1613 -0.1795
   96CHL1  H27A 9582   1.332   5.843   8.190 -1.6448  0.7838  1.8874
   96CHL1  H27B 9583   1.232   5.997   8.153  1.3698 -0.8316  3.5351
   96CHL1  H27C 9584   1.185   5.844   8.085 -0.3766  0.5767 -0.5823
   97OSM      N 9585   1.247   5.934  11.192  0.5725  0.7967 -0.2034
   97OSM    C15 9586   1.284   5.912  11.333  0.3995  0.2537 -0.2697
   97OSM   H15A 9587   1.323   6.000  11.381 -1.8639 -0.2130  2.7135
   97OSM   H15B 9588   1.357   5.833  11.341  1.2468  1.0641  0.1582
   97OSM   H15C 9589   1.193   5.882  11.383 -0.7280  2.1260 -1.0747
   97OSM    C14 9590   1.166   5.814  11.139  0.1663 -0.0980  0.5856
   97OSM   H14A 9591   1.066   5.819  11.181  0.8294  1.7038  2.1244
   97OSM   H14B 9592   1.224   5.724  11.154  0.8696  0.2384 -0.0876
   97OSM   H14C 9593   1.140   5.829  11.035 -1.3713 -0.3400  0.8986
   97OSM    C13 9594   1.156   6.054  11.183 -0.4254  0.0134 -0.5936
   97OSM   H13A 9595   1.077   6.027  11.251  1.3286 -0.1859  1.4545
   97OSM   H13B 9596   1.117   6.073  11.083  0.0003  1.5569 -0.4863
   97OSM   H13C 9597   1.185   6.151  11.217 -0.3517  0.0225 -0.6796
   97OSM    C12 9598   1.377   5.959  11.116 -0.5405  0.0354 -0.2595
   97OSM   H12A 9599   1.446   5.880  11.141 -0.6656  0.0696  0.1957
   97OSM   H12B 9600   1.423   6.050  11.151  0.2397 -0.2875 -0.4298
   97OSM    C11 9601   1.370   5.974  10.964  1.0107  0.1702  0.2289
   97OSM   H11A 9602   1.325   6.072  10.939  1.0493  0.0258 -0.4370
   97OSM   H11B 9603   1.295   5.904  10.921  1.0812 -1.3362  2.4082
   97OSM      P 9604   1.554   5.795  10.899  0.0022 -0.3416  0.0853
   97OSM    O13 9605   1.679   5.796  10.820 -0.1736  0.6761 -0.9992
   97OSM    O14 9606   1.560   5.729  11.033 -0.1393  0.0241 -0.2988
   97OSM    O11 9607   1.446   5.716  10.812  0.4579 -0.2780  0.1660
   97OSM    O12 9608   1.501   5.947  10.905  0.1893  0.1974 -0.7512
   97OSM    C1S 9609   1.448   5.755  10.672  0.3057 -0.0790  0.1757
   97OSM    H1S 9610   1.538   5.712  10.623  1.4264 -0.3289  2.3340
   97OSM    H1T 9611   1.453   5.865  10.654 -3.3138  0.3395  0.8196
   97OSM     NF 9612   1.325   5.752  10.450  0.8632 -0.0683 -0.2438
   97OSM    HNF 9613   1.260   5.822  10.422  2.0360  1.2042  0.0773
   97OSM    C2S 9614   1.320   5.702  10.591 -0.9269  0.0569 -0.0745
   97OSM    H2S 9615   1.337   5.592  10.590  1.0124  0.3123 -0.3527
   97OSM    C3S 9616   1.190   5.733  10.668  0.4997  0.2141  0.5581
   97OSM    H3S 9617   1.183   5.842  10.684  0.1858  0.0346  1.7129
   97OSM     O3 9618   1.186   5.682  10.802 -0.1273 -0.7171 -0.0527
   97OSM    HO3 9619   1.278   5.687  10.828 -0.4915 -1.0743  1.3790
   97OSM    C4S 9620   1.075   5.684  10.586 -0.1481 -0.1529 -0.1509
   97OSM    H4S 9621   1.019   5.760  10.529 -2.5392  0.1129  2.3584
   97OSM    C5S 9622   1.029   5.557  10.587 -0.1079  0.3023 -0.4691
   97OSM    H5S 9623   1.078   5.491  10.659 -0.9658  1.2434  1.0339
   97OSM    C6S 9624   0.922   5.498  10.499 -0.5485  0.4686  0.0503
   97OSM    H6S 9625   0.839   5.463  10.564 -1.4019  0.8887 -0.7796
   97OSM    H6T 9626   0.965   5.405  10.456 -3.0902 -0.9361  0.3773
   97OSM    C7S 9627   0.874   5.580  10.383  0.0135  0.1356 -0.1543
   97OSM    H7S 9628   0.963   5.624  10.334 -0.9875  0.2148 -1.9646
   97OSM    H7T 9629   0.804   5.655  10.426  0.5608  0.3423  0.3983
   97OSM    C8S 9630   0.794   5.497  10.279  0.2630 -0.7177 -0.6611
   97OSM    H8S 9631   0.696   5.463  10.321  1.0633 -2.2989  0.0203
   97OSM    H8T 9632   0.855   5.410  10.247 -0.2306 -1.9075  1.4380
   97OSM    C9S 9633   0.769   5.586  10.155  0.6745 -0.4648  0.1621
   97OSM    H9S 9634   0.871   5.615  10.121  0.3955  0.5990  0.1995
   97OSM    H9T 9635   0.715   5.681  10.175 -0.2863 -1.0584  0.4349
   97OSM   C10S 9636   0.692   5.510  10.045  0.3517 -0.3448  0.2035
   97OSM   H10S 9637   0.591   5.482  10.084 -0.6811  3.6037  0.8349
   97OSM   H10T 9638   0.751   5.422  10.014 -0.3448 -0.1527 -1.8220
   97OSM   C11S 9639   0.675   5.583   9.919  0.3811  0.2918  0.6210
   97OSM   H11S 9640   0.772   5.621   9.882 -0.0928  1.1622  0.2443
   97OSM   H11T 9641   0.608   5.672   9.922  1.9567  1.9885 -4.6710
   97OSM   C12S 9642   0.630   5.491   9.807  0.0248 -0.6607 -0.4378
   97OSM   H12S 9643   0.534   5.443   9.837 -0.0047 -1.5522 -1.8565
   97OSM   H12T 9644   0.701   5.409   9.784  1.2487  0.8467 -2.2822
   97OSM   C13S 9645   0.604   5.569   9.679 -0.2925 -0.5602  0.4594
   97OSM   H13S 9646   0.708   5.589   9.644 -0.3043  1.5601  1.5372
   97OSM   H13T 9647   0.574   5.673   9.704 -0.0004 -0.6178  1.0595
   97OSM   C14S 9648   0.516   5.508   9.570 -0.5129  0.0899  0.0516
   97OSM   H14S 9649   0.420   5.504   9.626  0.3888 -2.0538  1.5500
   97OSM   H14T 9650   0.550   5.405   9.547 -1.2754  0.0272 -0.8677
   97OSM   C15S 9651   0.490   5.589   9.437  0.3344  0.2007 -0.3382
   97OSM   H15S 9652   0.595   5.612   9.410  0.6380 -0.2177  0.4507
   97OSM   H15T 9653   0.432   5.682   9.457  3.4052  1.7784  2.0979
   97OSM   C16S 9654   0.436   5.502   9.328 -0.2682 -0.6693 -0.5846
   97OSM   H16S 9655   0.332   5.476   9.359 -0.2402  1.2813  1.3798
   97OSM   H16T 9656   0.493   5.406   9.327 -1.5486 -1.4685  0.2439
   97OSM   C17S 9657   0.443   5.562   9.195  0.9463 -0.2764 -0.0131
   97OSM   H17S 9658   0.546   5.596   9.175 -0.2638  2.7740 -1.6228
   97OSM   H17T 9659   0.372   5.647   9.201 -0.3537 -1.3590  0.4405
   97OSM   C18S 9660   0.401   5.458   9.097 -0.1836  0.6818 -0.4711
   97OSM   H18S 9661   0.418   5.489   8.991  1.4175 -3.8411 -1.7792
   97OSM   H18T 9662   0.296   5.424   9.108  0.8262 -2.2521  1.1078
   97OSM   H18U 9663   0.470   5.371   9.091 -0.0376  0.7944 -0.4545
   97OSM    C1F 9664   1.424   5.723  10.367 -0.4455  0.6848  1.2924
   97OSM     OF 9665   1.516   5.648  10.393 -0.3670 -0.0877 -0.0965
   97OSM    C2F 9666   1.423   5.798  10.231 -0.6029  0.3678  0.4175
   97OSM    H2F 9667   1.525   5.803  10.188 -0.9353 -2.5558 -0.9846
   97OSM    H2G 9668   1.376   5.893  10.263 -1.4044 -0.5876  2.2235
   97OSM    C3F 9669   1.336   5.718  10.138  0.7099 -0.7534 -0.5396
   97OSM    H3F 9670   1.229   5.708  10.164  0.9186 -0.3652  0.4871
   97OSM    H3G 9671   1.376   5.615  10.123 -0.8057 -1.2763 -1.2273
   97OSM    C4F 9672   1.329   5.778   9.995  0.5109  0.6351  0.3349
   97OSM    H4F 9673   1.275   5.874   9.985 -1.2771 -0.3882 -0.4632
   97OSM    H4G 9674   1.251   5.716   9.946  1.1025  0.1430  0.0016
   97OSM    C5F 9675   1.463   5.765   9.923  0.0267 -0.2637  0.8990
   97OSM    H5F 9676   1.492   5.658   9.923  0.9314 -0.1257 -2.3059
   97OSM    H5G 9677   1.542   5.827   9.970 -1.5693  3.0947 -0.4751
   97OSM    C6F 9678   1.459   5.797   9.769  0.4351  0.1501 -0.9333
   97OSM    H6F 9679   1.385   5.731   9.719 -0.2330 -2.1040  2.6499
   97OSM    H6G 9680   1.558   5.770   9.729  0.5068 -2.1933  0.6422
   97OSM    C7F 9681   1.424   5.945   9.734 -0.3847 -0.3273 -0.7291
   97OSM    H7F 9682   1.508   6.010   9.770 -1.2736 -0.5188  1.9302
   97OSM    H7G 9683   1.345   5.984   9.802  1.7880  1.0347  1.2193
   97OSM    C8F 9684   1.399   5.977   9.587  0.2703  0.4108  0.0112
   97OSM    H8F 9685   1.483   5.926   9.536  0.3794  1.4869 -0.9279
   97OSM    H8G 9686   1.398   6.086   9.567  0.5596  0.4333  0.1097
   97OSM    C9F 9687   1.268   5.908   9.553 -0.1963 -0.2474  0.1948
   97OSM    H9F 9688   1.208   5.870   9.637  0.9503  1.2514  1.7526
   97OSM   C10F 9689   1.223   5.889   9.426  0.5758 -0.7231 -0.1295
   97OSM   H10F 9690   1.128   5.834   9.416 -1.0342  1.2773  2.9382
   97OSM   C11F 9691   1.297   5.925   9.295 -0.1197  0.0673 -0.9459
   97OSM   H11F 9692   1.378   5.998   9.314 -0.6708  0.0971  1.8025
   97OSM   H11G 9693   1.226   5.984   9.234  0.8400  0.3921 -1.7686
   97OSM   C12F 9694   1.337   5.810   9.203  0.2106  0.2907 -0.8500
   97OSM   H12F 9695   1.275   5.718   9.199  3.9390 -2.5102  0.4404
   97OSM   H12G 9696   1.439   5.787   9.240  0.3578  1.1358 -0.7060
   97OSM   C13F 9697   1.355   5.874   9.061 -0.3075 -0.0022  0.4872
   97OSM   H13F 9698   1.430   5.811   9.008  0.6372  1.4235  0.0669
   97OSM   H13G 9699   1.412   5.970   9.059 -0.6107  0.1735  0.0533
   97OSM   C14F 9700   1.235   5.869   8.963  0.0754  0.3894 -0.2184
   97OSM   H14F 9701   1.136   5.899   9.005 -0.9457 -2.2587 -0.5195
   97OSM   H14G 9702   1.215   5.765   8.929  0.3754  1.2727 -3.4119
   97OSM   C15F 9703   1.263   5.956   8.840  0.2235 -0.7083 -1.0842
   97OSM   H15F 9704   1.293   6.056   8.877 -0.8684 -0.6775 -0.2436
   97OSM   H15G 9705   1.165   5.960   8.787  0.1179 -2.2410 -1.0744
   97OSM   C16F 9706   1.363   5.903   8.742  0.1947 -0.0179 -0.0981
   97OSM   H16F 9707   1.331   5.797   8.735  0.8188 -0.2889  0.9729
   97OSM   H16G 9708   1.468   5.925   8.774 -0.5640  2.3893  0.9685
   97OSM   C17F 9709   1.340   5.977   8.616  0.0089  0.1963  0.3013
   97OSM   H17F 9710   1.357   6.086   8.627 -4.4484  1.1159 -0.2433
   97OSM   H17G 9711   1.233   5.962   8.589 -0.0167  0.6994  0.1231
   97OSM   C18F 9712   1.428   5.940   8.493 -0.2211  0.3030 -0.4041
   97OSM   H18F 9713   1.397   5.839   8.457 -5.2208  1.4600 -0.0656
   97OSM   H18G 9714   1.538   5.947   8.506 -0.2412  2.8480 -1.0534
   97OSM   H18H 9715   1.401   6.013   8.414 -1.4269 -0.8833 -1.1369
   98OSM      N 9716   1.400   4.950  10.988 -0.5343  0.1518  0.0759
   98OSM    C15 9717   1.473   5.074  11.034 -0.4671 -0.3831 -0.2188
   98OSM   H15A 9718   1.560   5.098  10.975  0.1112  0.9733  1.1053
   98OSM   H15B 9719   1.504   5.056  11.137 -0.7789  1.1556  0.1659
   98OSM   H15C 9720   1.407   5.159  11.031 -1.8079 -1.4078 -0.7067
   98OSM    C14 9721   1.286   4.930  11.075  0.0986  0.1626  0.3770
   98OSM   H14A 9722   1.229   4.846  11.037 -1.0861  1.6886 -1.3802
   98OSM   H14B 9723   1.222   5.016  11.086  1.1270  0.7906  1.7838
   98OSM   H14C 9724   1.307   4.909  11.179 -1.3453  0.8330  0.8228
   98OSM    C13 9725   1.344   4.988  10.852 -0.4432  0.1059  0.2960
   98OSM   H13A 9726   1.283   4.906  10.819 -0.8172 -0.4983  2.3388
   98OSM   H13B 9727   1.420   5.022  10.783  1.4031  0.3944  2.3377
   98OSM   H13C 9728   1.273   5.067  10.871 -1.9413 -1.5944  2.1474
   98OSM    C12 9729   1.497   4.837  10.983  0.0294 -0.5774  0.2329
   98OSM   H12A 9730   1.452   4.751  10.937  3.1328 -2.3821  0.2967
   98OSM   H12B 9731   1.509   4.805  11.085 -1.0068  1.0288  0.8981
   98OSM    C11 9732   1.627   4.868  10.904 -0.1843 -0.2900 -0.5933
   98OSM   H11A 9733   1.682   4.957  10.944  0.6961 -0.5530 -1.1806
   98OSM   H11B 9734   1.600   4.906  10.803  1.2011 -0.6031 -1.1118
   98OSM      P 9735   1.673   4.623  10.838  0.1029  0.3336  0.0240
   98OSM    O13 9736   1.791   4.532  10.850  0.6951 -0.4838  0.2438
   98OSM    O14 9737   1.548   4.574  10.893  0.3926 -0.0249 -0.8637
   98OSM    O11 9738   1.645   4.657  10.687  0.2656 -0.1259  0.2593
   98OSM    O12 9739   1.718   4.755  10.897 -0.3402 -0.4641 -0.2241
   98OSM    C1S 9740   1.739   4.727  10.602 -0.1221  0.3152 -0.1897
   98OSM    H1S 9741   1.832   4.666  10.597  0.1202  0.5692  0.8963
   98OSM    H1T 9742   1.769   4.828  10.638 -1.3887  0.9228 -0.7586
   98OSM     NF 9743   1.773   4.822  10.370 -0.0677 -0.9115 -0.0520
   98OSM    HNF 9744   1.770   4.920  10.356  1.4270 -0.8639 -0.2808
   98OSM    C2S 9745   1.680   4.748  10.459 -0.4316  0.1566  0.0895
   98OSM    H2S 9746   1.659   4.649  10.414 -2.8656  0.7513 -0.2015
   98OSM    C3S 9747   1.538   4.823  10.470 -0.3924  0.2122 -1.0467
   98OSM    H3S 9748   1.567   4.926  10.499  0.8226 -0.6398  0.9441
   98OSM     O3 9749   1.446   4.768  10.571 -0.1075 -0.2958  0.0020
   98OSM    HO3 9750   1.503   4.720  10.631  0.5112 -0.7106 -0.8881
   98OSM    C4S 9751   1.464   4.826  10.343 -0.1662 -0.0308 -0.2127
   98OSM    H4S 9752   1.447   4.724  10.305  1.9074 -0.5435  0.1019
   98OSM    C5S 9753   1.411   4.937  10.282 -0.8006  0.6620  0.3340
   98OSM    H5S 9754   1.396   5.037  10.326 -2.4885  1.0696 -1.0607
   98OSM    C6S 9755   1.328   4.909  10.158  0.3642 -0.4494 -0.1358
   98OSM    H6S 9756   1.221   4.926  10.182  0.0733 -1.9934 -0.2706
   98OSM    H6T 9757   1.322   4.799  10.141 -0.4308 -0.4268 -0.0560
   98OSM    C7S 9758   1.367   4.984  10.038  0.2717 -0.0412  0.6956
   98OSM    H7S 9759   1.466   4.946  10.008 -1.2633 -2.2438 -2.0906
   98OSM    H7T 9760   1.375   5.094  10.047  0.0460  0.0272  0.1552
   98OSM    C8S 9761   1.296   4.939   9.907 -0.4401  0.6460 -0.4293
   98OSM    H8S 9762   1.185   4.938   9.908 -0.4570 -1.4322 -0.8969
   98OSM    H8T 9763   1.330   4.834   9.900  0.2532  0.8580 -0.3028
   98OSM    C9S 9764   1.336   5.011   9.789  0.1365  0.4658 -0.2144
   98OSM    H9S 9765   1.312   5.118   9.803 -0.7798 -0.0030  2.2265
   98OSM    H9T 9766   1.276   4.963   9.708  0.0888  0.5732 -0.2431
   98OSM   C10S 9767   1.477   4.982   9.736  0.1225  0.4065 -0.0334
   98OSM   H10S 9768   1.480   4.872   9.721 -1.7838  0.1943  0.7641
   98OSM   H10T 9769   1.557   5.017   9.804 -1.3390  2.7047  0.6354
   98OSM   C11S 9770   1.491   5.039   9.601 -0.4212  0.1326  0.4939
   98OSM   H11S 9771   1.485   5.150   9.615  0.9512  0.2805  0.0231
   98OSM   H11T 9772   1.401   5.013   9.541  0.4864  0.6416 -1.1325
   98OSM   C12S 9773   1.615   4.973   9.536 -0.7481 -0.7144 -0.0141
   98OSM   H12S 9774   1.609   4.862   9.534 -3.0635 -0.6312 -1.5406
   98OSM   H12T 9775   1.696   5.009   9.604 -1.4625  0.9942 -0.0171
   98OSM   C13S 9776   1.649   5.026   9.392 -0.4000 -0.3422  0.6986
   98OSM   H13S 9777   1.735   4.968   9.352  0.1810 -0.3254  1.8570
   98OSM   H13T 9778   1.684   5.131   9.400 -1.9683  0.1766  0.9853
   98OSM   C14S 9779   1.537   5.015   9.288  0.5421 -0.2286  0.1844
   98OSM   H14S 9780   1.470   5.098   9.319  1.3150  1.1760 -1.7784
   98OSM   H14T 9781   1.485   4.917   9.300  1.5788 -0.9221 -0.8395
   98OSM   C15S 9782   1.586   5.026   9.139  0.0892  0.3485 -0.3934
   98OSM   H15S 9783   1.673   4.956   9.133 -0.2835 -0.2581  0.8126
   98OSM   H15T 9784   1.625   5.130   9.134  1.2349  0.0814  1.8091
   98OSM   C16S 9785   1.473   4.988   9.049  0.3719  0.2082 -0.3094
   98OSM   H16S 9786   1.383   5.049   9.074  0.1034  0.3000 -1.4462
   98OSM   H16T 9787   1.440   4.883   9.064 -1.4989  1.1094  2.6078
   98OSM   C17S 9788   1.506   5.012   8.901  0.5426 -0.0899  0.3220
   98OSM   H17S 9789   1.589   4.951   8.861  1.3897  1.3634 -0.1983
   98OSM   H17T 9790   1.537   5.117   8.883  1.5381 -0.3640  0.3799
   98OSM   C18S 9791   1.388   5.001   8.797 -0.0725  0.1919 -0.3093
   98OSM   H18S 9792   1.417   5.018   8.691 -0.6934 -0.7928 -0.6550
   98OSM   H18T 9793   1.312   5.082   8.812  0.4093  0.7445 -0.7701
   98OSM   H18U 9794   1.352   4.897   8.810  0.9714  0.1729  3.7400
   98OSM    C1F 9795   1.889   4.770  10.330  0.4048  0.6135 -0.1043
   98OSM     OF 9796   1.932   4.663  10.380  0.3267 -0.5143  0.6163
   98OSM    C2F 9797   1.972   4.834  10.229  0.3717  0.0733  0.0951
   98OSM    H2F 9798   2.074   4.855  10.267 -0.3476  3.0710  0.6609
   98OSM    H2G 9799   1.926   4.933  10.205  0.1274 -0.2730 -0.9251
   98OSM    C3F 9800   1.976   4.752  10.096 -0.0724 -0.1635 -0.7648
   98OSM    H3F 9801   1.873   4.717  10.078 -0.7469  2.2299 -1.9129
   98OSM    H3G 9802   2.029   4.657  10.117 -1.4056 -0.7098  0.2592
   98OSM    C4F 9803   2.025   4.832   9.975 -0.3469  0.5941  0.4631
   98OSM    H4F 9804   2.129   4.864   9.996 -0.1266 -1.3309  2.8886
   98OSM    H4G 9805   1.957   4.918   9.962 -0.5181  0.3072 -0.6522
   98OSM    C5F 9806   2.017   4.737   9.850  0.3409 -0.5032  0.0297
   98OSM    H5F 9807   1.911   4.702   9.847 -0.0085  0.4773  0.5208
   98OSM    H5G 9808   2.089   4.654   9.867  2.9400  2.2513  4.3769
   98OSM    C6F 9809   2.043   4.802   9.714 -0.4204 -0.0773 -0.3828
   98OSM    H6F 9810   2.144   4.848   9.727  0.1934 -1.2082 -1.0020
   98OSM    H6G 9811   1.966   4.880   9.696 -0.1345  0.7274  1.6533
   98OSM    C7F 9812   2.046   4.699   9.603 -0.1049 -0.2621  0.1275
   98OSM    H7F 9813   1.963   4.626   9.598 -0.3050  0.0496 -2.2887
   98OSM    H7G 9814   2.129   4.632   9.633 -0.8688 -1.2781  0.0200
   98OSM    C8F 9815   2.087   4.756   9.464  0.4666  0.1507 -0.0382
   98OSM    H8F 9816   2.165   4.835   9.465  1.2909 -0.6251 -1.1721
   98OSM    H8G 9817   2.002   4.821   9.432 -1.5425 -2.4202 -0.2547
   98OSM    C9F 9818   2.120   4.660   9.358 -0.2095  0.3647  0.4592
   98OSM    H9F 9819   2.176   4.571   9.390 -0.6022 -0.7623 -1.7744
   98OSM   C10F 9820   2.076   4.665   9.236  0.7613  0.0501 -0.3545
   98OSM   H10F 9821   2.087   4.582   9.164  0.7993 -0.3237  0.0775
   98OSM   C11F 9822   2.000   4.773   9.162 -0.0183  0.0333  0.2395
   98OSM   H11F 9823   2.044   4.872   9.182  0.8680 -0.5412  1.2392
   98OSM   H11G 9824   1.890   4.766   9.181  0.2407 -0.8072  1.5862
   98OSM   C12F 9825   2.027   4.749   9.008 -0.2533 -0.3838  0.0325
   98OSM   H12F 9826   1.950   4.812   8.958  0.1779 -0.5143 -0.8086
   98OSM   H12G 9827   2.006   4.642   8.988 -1.9427 -0.0066 -0.3530
   98OSM   C13F 9828   2.161   4.783   8.943  0.0748 -1.1986  0.4493
   98OSM   H13F 9829   2.242   4.711   8.968  2.1283  1.2217  1.2011
   98OSM   H13G 9830   2.189   4.887   8.971  0.8343 -1.1331 -0.4748
   98OSM   C14F 9831   2.156   4.788   8.790 -0.6388  0.0779  0.9706
   98OSM   H14F 9832   2.250   4.831   8.750 -2.4853  0.6115 -3.3815
   98OSM   H14G 9833   2.075   4.859   8.763 -0.1016  0.3980  0.1479
   98OSM   C15F 9834   2.145   4.647   8.718  0.5064 -0.2723  0.2562
   98OSM   H15F 9835   2.080   4.585   8.784 -0.5238  2.9347  2.4994
   98OSM   H15G 9836   2.245   4.599   8.708  0.6026 -0.9221  3.3758
   98OSM   C16F 9837   2.081   4.651   8.574 -0.1245 -0.0822 -0.9544
   98OSM   H16F 9838   1.973   4.676   8.575 -0.2635 -0.6512 -1.1829
   98OSM   H16G 9839   2.071   4.547   8.536 -4.7936 -0.2191 -0.0104
   98OSM   C17F 9840   2.156   4.742   8.478 -0.0488  0.3862  0.2795
   98OSM   H17F 9841   2.263   4.715   8.470 -0.5455 -2.4876  1.8209
   98OSM   H17G 9842   2.140   4.845   8.515 -2.8745  0.2835 -0.4388
   98OSM   C18F 9843   2.097   4.743   8.337 -0.1387  1.0675  0.0298
   98OSM   H18F 9844   2.144   4.806   8.258  1.9540 -1.4043 -0.8387
   98OSM   H18G 9845   1.991   4.773   8.341 -0.6264 -0.2731 -1.6075
   98OSM   H18H 9846   2.112   4.637   8.308 -0.3609  0.6655  1.3319
   99OSM      N 9847   2.607   5.911  10.672 -0.1464 -1.1612  0.3770
   99OSM    C15 9848   2.693   6.039  10.655  0.4960 -0.0439 -0.4856
   99OSM   H15A 9849   2.639   6.131  10.669  0.5055 -0.2783  1.3980
   99OSM   H15B 9850   2.733   6.034  10.555 -0.8023 -1.1957 -0.9882
   99OSM   H15C 9851   2.766   6.044  10.734  2.4117  0.0046 -2.1628
   99OSM    C14 9852   2.497   5.935  10.580  0.5490  0.0203  0.1032
   99OSM   H14A 9853   2.419   5.861  10.591  0.2727  0.6019  2.8878
   99OSM   H14B 9854   2.527   5.948  10.477  1.0227 -1.1488  0.0755
   99OSM   H14C 9855   2.448   6.025  10.614 -1.0049 -1.2840  1.4988
   99OSM    C13 9856   2.684   5.791  10.627  0.0309  0.6269  0.0328
   99OSM   H13A 9857   2.758   5.768  10.703 -0.8824 -0.8127  0.5100
   99OSM   H13B 9858   2.722   5.797  10.526 -0.8862 -2.3890 -0.5687
   99OSM   H13C 9859   2.627   5.700  10.630  2.0901 -0.7704 -0.9506
   99OSM    C12 9860   2.556   5.902  10.821  0.2218  0.7466  0.6170
   99OSM   H12A 9861   2.647   5.897  10.879  0.3196 -1.1511  0.3776
   99OSM   H12B 9862   2.496   5.813  10.831 -1.1657  1.0368 -3.4361
   99OSM    C11 9863   2.475   6.015  10.889  0.2571 -0.9474  0.5278
   99OSM   H11A 9864   2.540   6.105  10.895  0.5074 -1.1976  2.1181
   99OSM   H11B 9865   2.463   5.981  10.994 -0.1345 -0.3502  0.6820
   99OSM      P 9866   2.229   5.944  10.824  0.0424 -0.1041 -0.4080
   99OSM    O13 9867   2.260   5.806  10.862 -0.2697  0.1599  0.0170
   99OSM    O14 9868   2.134   6.017  10.917  0.0670 -0.4349  0.7504
   99OSM    O11 9869   2.171   5.929  10.680 -0.1197 -0.0153  0.1286
   99OSM    O12 9870   2.356   6.037  10.817 -0.4952 -0.2169  0.1016
   99OSM    C1S 9871   2.136   6.038  10.600  0.1419 -0.9516 -0.4826
   99OSM    H1S 9872   2.215   6.116  10.608 -1.3768  0.4658  3.4550
   99OSM    H1T 9873   2.050   6.098  10.638  0.3108 -1.2767  0.4506
   99OSM     NF 9874   2.084   6.111  10.376 -0.1637  0.3297 -0.0116
   99OSM    HNF 9875   1.992   6.130  10.344 -1.3306  1.6113  3.6349
   99OSM    C2S 9876   2.105   5.993  10.459  0.0119 -0.0256  0.4402
   99OSM    H2S 9877   2.191   5.936  10.418  0.7009  0.7363  0.7921
   99OSM    C3S 9878   1.979   5.899  10.451 -0.3324 -0.4837 -0.0683
   99OSM    H3S 9879   1.888   5.949  10.489 -0.8894  0.6878 -2.7637
   99OSM     O3 9880   2.000   5.780  10.528  0.2928 -0.9604  0.5711
   99OSM    HO3 9881   2.063   5.808  10.594  0.9956  1.2757 -0.8898
   99OSM    C4S 9882   1.943   5.848  10.311  0.2494 -0.4621 -0.1583
   99OSM    H4S 9883   2.001   5.759  10.282  0.4132  0.4930 -3.0419
   99OSM    C5S 9884   1.857   5.888  10.217 -0.9068 -0.0955  0.0038
   99OSM    H5S 9885   1.784   5.969  10.234  0.0623  0.1049  4.0670
   99OSM    C6S 9886   1.833   5.815  10.085  0.1981 -0.0623  0.4782
   99OSM    H6S 9887   1.725   5.790  10.075 -0.0873  0.9871  0.7116
   99OSM    H6T 9888   1.889   5.720  10.078  1.0387  0.5435 -1.8805
   99OSM    C7S 9889   1.857   5.890   9.948  0.2178 -1.4282 -0.6360
   99OSM    H7S 9890   1.954   5.943   9.955 -0.8455  0.4587  0.7777
   99OSM    H7T 9891   1.774   5.963   9.946  1.8695  0.6717  1.3205
   99OSM    C8S 9892   1.858   5.797   9.823 -0.3347  0.8080 -1.0008
   99OSM    H8S 9893   1.773   5.726   9.831 -0.3664  1.0160  1.0647
   99OSM    H8T 9894   1.957   5.747   9.823  0.0877  1.5884  0.1301
   99OSM    C9S 9895   1.837   5.878   9.699  0.6174  0.1377  0.5530
   99OSM    H9S 9896   1.918   5.952   9.680  1.1053 -0.4613  0.2708
   99OSM    H9T 9897   1.737   5.927   9.694  0.1764 -0.8601 -2.1465
   99OSM   C10S 9898   1.832   5.785   9.572 -0.1332 -0.3319 -0.0793
   99OSM   H10S 9899   1.748   5.715   9.589 -0.0725 -0.4127 -0.1136
   99OSM   H10T 9900   1.926   5.729   9.552 -0.4983 -0.4684 -1.5805
   99OSM   C11S 9901   1.810   5.854   9.447 -0.3183 -0.2565  0.0924
   99OSM   H11S 9902   1.906   5.898   9.413 -0.0234 -2.0447 -1.4983
   99OSM   H11T 9903   1.736   5.938   9.455  0.5042  0.4161  0.9615
   99OSM   C12S 9904   1.771   5.762   9.337 -0.0372  0.2743 -0.0088
   99OSM   H12S 9905   1.828   5.667   9.329  2.3080  1.1509  3.8397
   99OSM   H12T 9906   1.671   5.726   9.370 -0.9000  3.5124  1.2711
   99OSM   C13S 9907   1.749   5.846   9.207  0.5269 -0.0650  0.1388
   99OSM   H13S 9908   1.841   5.905   9.188 -0.5988  0.9426 -2.7222
   99OSM   H13T 9909   1.667   5.920   9.225  1.2323  0.8630 -0.3615
   99OSM   C14S 9910   1.726   5.760   9.082 -0.3577 -0.6713  0.6829
   99OSM   H14S 9911   1.633   5.701   9.094  0.6818 -2.5358  0.0259
   99OSM   H14T 9912   1.808   5.687   9.097  0.5665  0.5683  1.8837
   99OSM   C15S 9913   1.732   5.840   8.953  0.1367  0.1171  0.8640
   99OSM   H15S 9914   1.747   5.946   8.981  3.1285 -0.1710  0.7089
   99OSM   H15T 9915   1.635   5.822   8.902  0.6225 -0.8341  0.2467
   99OSM   C16S 9916   1.841   5.798   8.849  1.0073  0.7249  0.1816
   99OSM   H16S 9917   1.805   5.710   8.791 -1.1263  2.9800 -2.2512
   99OSM   H16T 9918   1.939   5.775   8.895  1.5016  0.1892 -1.0953
   99OSM   C17S 9919   1.851   5.906   8.739 -0.4476 -0.5756  0.2970
   99OSM   H17S 9920   1.876   5.999   8.795 -1.0255 -0.5999  0.5986
   99OSM   H17T 9921   1.752   5.918   8.689 -0.6808  0.2723  0.9304
   99OSM   C18S 9922   1.955   5.865   8.633 -0.4035  0.0704 -0.0796
   99OSM   H18S 9923   2.056   5.874   8.677  0.6011 -2.5607 -1.6148
   99OSM   H18T 9924   1.947   5.927   8.541 -2.0682 -0.1155 -0.0996
   99OSM   H18U 9925   1.947   5.760   8.599  1.4105  0.1057 -0.7148
   99OSM    C1F 9926   2.169   6.199  10.327  0.1492  0.6670  0.1443
   99OSM     OF 9927   2.268   6.222  10.393  0.0472  0.3094  0.3780
   99OSM    C2F 9928   2.138   6.248  10.187  0.3711  0.1575  0.4743
   99OSM    H2F 9929   2.071   6.337  10.188  0.9852  0.6224  1.1535
   99OSM    H2G 9930   2.081   6.171  10.131  1.8106 -1.3221  0.9868
   99OSM    C3F 9931   2.266   6.294  10.118  0.2593  0.0653 -0.7710
   99OSM    H3F 9932   2.332   6.363  10.175 -0.8446  1.3422 -0.9912
   99OSM    H3G 9933   2.325   6.202  10.096  2.7597  1.9653 -2.5903
   99OSM    C4F 9934   2.223   6.355   9.982 -0.1146  0.2342  0.3385
   99OSM    H4F 9935   2.321   6.386   9.939  0.6587  1.4490  2.8075
   99OSM    H4G 9936   2.157   6.444   9.973  0.5097  0.5720 -1.3259
   99OSM    C5F 9937   2.152   6.251   9.889  0.2811  0.3032  0.0143
   99OSM    H5F 9938   2.045   6.257   9.918  0.2321 -0.7140  0.0674
   99OSM    H5G 9939   2.182   6.146   9.906 -0.1569  0.2651  0.5658
   99OSM    C6F 9940   2.161   6.279   9.741  0.3435  0.6081 -0.9915
   99OSM    H6F 9941   2.262   6.276   9.697 -0.4000 -1.0453 -2.7189
   99OSM    H6G 9942   2.121   6.382   9.740 -0.4138  0.5290  2.8756
   99OSM    C7F 9943   2.062   6.188   9.667  0.2347  0.6275 -0.2975
   99OSM    H7F 9944   1.959   6.184   9.708 -0.0880 -1.9779 -1.1484
   99OSM    H7G 9945   2.090   6.082   9.689 -2.7161 -0.3918 -0.9806
   99OSM    C8F 9946   2.053   6.209   9.513  0.0676  0.2309 -0.7225
   99OSM    H8F 9947   2.020   6.312   9.487 -1.2764  1.1852  3.8694
   99OSM    H8G 9948   1.963   6.155   9.478  0.4570 -1.5122  0.8180
   99OSM    C9F 9949   2.170   6.156   9.430  0.1383  0.7256  0.2914
   99OSM    H9F 9950   2.235   6.081   9.476 -2.5872 -2.0602 -0.0825
   99OSM   C10F 9951   2.200   6.194   9.306  0.4876 -0.0582 -0.7271
   99OSM   H10F 9952   2.278   6.137   9.254  0.3760 -0.3607 -0.5607
   99OSM   C11F 9953   2.114   6.292   9.225 -0.4473  0.4327  0.5546
   99OSM   H11F 9954   2.185   6.336   9.152 -2.4917 -0.1832 -1.9429
   99OSM   H11G 9955   2.074   6.368   9.296 -0.9887 -1.4532  2.3843
   99OSM   C12F 9956   2.003   6.217   9.162  0.1304 -0.4089 -0.5550
   99OSM   H12F 9957   1.909   6.275   9.149 -0.5420 -1.0734  1.0772
   99OSM   H12G 9958   1.959   6.142   9.230  1.8603 -0.9843 -0.0241
   99OSM   C13F 9959   2.036   6.150   9.025  0.3840  0.1467 -0.3608
   99OSM   H13F 9960   1.954   6.083   8.993 -0.3054  1.8161 -2.2524
   99OSM   H13G 9961   2.114   6.075   9.050 -0.0062  0.4359  1.9491
   99OSM   C14F 9962   2.084   6.233   8.915  0.3926 -0.1972  0.3340
   99OSM   H14F 9963   2.174   6.289   8.945  1.3343 -0.6340 -1.5145
   99OSM   H14G 9964   2.002   6.305   8.891 -1.2053 -1.3813  1.9340
   99OSM   C15F 9965   2.136   6.149   8.795  1.0542 -0.1939  1.1734
   99OSM   H15F 9966   2.056   6.080   8.761  1.6642  0.1048 -0.9668
   99OSM   H15G 9967   2.225   6.089   8.825 -0.5142 -2.3141  1.8030
   99OSM   C16F 9968   2.153   6.228   8.665 -0.3946 -0.4700  0.1236
   99OSM   H16F 9969   2.235   6.302   8.679 -0.3944  0.1879 -2.8005
   99OSM   H16G 9970   2.068   6.291   8.632  1.4468  2.0200 -0.1478
   99OSM   C17F 9971   2.204   6.136   8.555 -0.1302  0.1396  1.0140
   99OSM   H17F 9972   2.125   6.072   8.510  0.4331 -0.6412  1.1388
   99OSM   H17G 9973   2.279   6.068   8.599 -0.7693 -1.5252 -0.3557
   99OSM   C18F 9974   2.283   6.198   8.437  0.0542 -0.6849 -0.1002
   99OSM   H18F 9975   2.318   6.114   8.373 -1.4665 -1.1378 -0.4025
   99OSM   H18G 9976   2.361   6.267   8.474  1.8788 -1.5127 -2.1274
   99OSM   H18H 9977   2.217   6.269   8.382  2.3957  4.2120  2.7297
  100OSM      N 9978   5.818   1.185  10.611 -0.0536 -0.0107 -0.0698
  100OSM    C15 9979   5.846   1.138  10.751  0.4133  0.4009  0.7622
  100OSM   H15A 9980   5.896   1.212  10.812 -0.8620 -0.2027  2.6352
  100OSM   H15B 9981   5.909   1.050  10.746 -2.0744 -1.4670 -4.2163
  100OSM   H15C 9982   5.760   1.106  10.807  0.0899  0.9382  0.5765
  100OSM    C14 9983   5.759   1.317  10.617  0.4051 -0.0999 -0.3511
  100OSM   H14A 9984   5.755   1.355  10.516  2.3903  2.8831  0.5562
  100OSM   H14B 9985   5.816   1.386  10.677 -1.3494  1.1687 -0.0599
  100OSM   H14C 9986   5.659   1.303  10.655  0.7831 -1.5905  0.1502
  100OSM    C13 9987   5.946   1.202  10.536 -0.3144 -0.0797  1.0794
  100OSM   H13A 9988   5.989   1.105  10.517 -0.2232  0.4139 -1.5854
  100OSM   H13B 9989   6.019   1.263  10.586  0.3371  0.7756 -0.8139
  100OSM   H13C 9990   5.935   1.256  10.443 -0.0331  1.2494  1.7853
  100OSM    C12 9991   5.729   1.085  10.539  0.4268 -0.3177  0.1200
  100OSM   H12A 9992   5.771   0.988  10.561  1.6694 -0.4068 -2.2474
  100OSM   H12B 9993   5.734   1.108  10.434 -0.9180 -0.3426  0.0449
  100OSM    C11 9994   5.580   1.083  10.579  0.3754 -0.0487  0.1901
  100OSM   H11A 9995   5.584   1.081  10.690 -2.7052  2.4072  0.4790
  100OSM   H11B 9996   5.542   0.980  10.563  3.3983 -1.4323  1.1121
  100OSM      P 9997   5.403   1.269  10.591 -0.1008  0.1032  0.5174
  100OSM    O13 9998   5.368   1.194  10.710  0.7266  0.5133  0.0223
  100OSM    O14 9999   5.451   1.412  10.601  0.2383  0.1827  0.0917
  100OSM    O1110000   5.274   1.275  10.494 -0.4021 -0.1638 -0.0206
  100OSM    O1210001   5.507   1.185  10.511  0.5219 -0.7116  0.5477
  100OSM    C1S10002   5.261   1.350  10.374 -0.3498  0.3426 -0.0549
  100OSM    H1S10003   5.340   1.428  10.370 -1.6933  1.7536  0.0505
  100OSM    H1T10004   5.174   1.417  10.390 -0.1290  0.5848  0.1409
  100OSM     NF10005   5.250   1.348  10.132 -0.0832  0.5113  0.1538
  100OSM    HNF10006   5.173   1.374  10.075  0.8615 -0.8320 -1.8404
  100OSM    C2S10007   5.232   1.265  10.245 -0.0467  0.1180 -0.8390
  100OSM    H2S10008   5.307   1.183  10.249  0.5675  0.6771 -0.6315
  100OSM    C3S10009   5.095   1.198  10.262 -0.2166 -0.5539 -0.2405
  100OSM    H3S10010   5.025   1.284  10.265  0.3131 -0.1194 -0.0101
  100OSM     O310011   5.082   1.116  10.377  0.0136  0.0439 -0.5538
  100OSM    HO310012   5.146   1.148  10.440  0.4336  0.5575 -1.2250
  100OSM    C4S10013   5.061   1.104  10.145 -0.4995 -0.1633  1.0366
  100OSM    H4S10014   5.098   1.000  10.145 -1.4208 -0.5371 -0.6395
  100OSM    C5S10015   4.996   1.137  10.034  0.0508 -0.1655 -0.2681
  100OSM    H5S10016   4.947   1.235  10.018 -0.4664 -0.4650 -0.5341
  100OSM    C6S10017   4.972   1.042   9.923 -0.1343  0.5816  0.6784
  100OSM    H6S10018   4.938   1.091   9.830  1.0479  0.9912  0.4473
  100OSM    H6T10019   4.894   0.966   9.946  0.4183 -0.3083 -0.3331
  100OSM    C7S10020   5.093   0.956   9.874 -0.8441 -0.5365  0.0216
  100OSM    H7S10021   5.060   0.901   9.783 -2.9207 -0.9550  0.9716
  100OSM    H7T10022   5.124   0.889   9.957 -0.6273  0.1516  0.4991
  100OSM    C8S10023   5.222   1.038   9.830 -0.3266 -0.2201  0.1260
  100OSM    H8S10024   5.286   0.964   9.777 -0.8229 -1.2195  0.8912
  100OSM    H8T10025   5.264   1.076   9.925 -0.6223  1.0925 -0.2384
  100OSM    C9S10026   5.207   1.159   9.744  0.4348 -0.5115  0.4392
  100OSM    H9S10027   5.305   1.210   9.736 -0.7580  1.5518 -2.7921
  100OSM    H9T10028   5.139   1.233   9.792  0.7493  0.7043 -0.9345
  100OSM   C10S10029   5.147   1.117   9.608  0.3739  0.8201 -0.6145
  100OSM   H10S10030   5.051   1.066   9.631  1.7459 -0.7486  2.1415
  100OSM   H10T10031   5.218   1.055   9.549  0.2147 -0.6979  0.7197
  100OSM   C11S10032   5.101   1.240   9.526 -0.4069 -0.2227  0.2711
  100OSM   H11S10033   5.193   1.300   9.505 -1.3718  1.9499  1.8507
  100OSM   H11T10034   5.051   1.309   9.597 -0.8216 -1.0566  0.8017
  100OSM   C12S10035   5.024   1.212   9.396  0.0632 -0.0804  0.0304
  100OSM   H12S10036   4.919   1.194   9.428 -0.4796 -0.2886 -1.7812
  100OSM   H12T10037   5.064   1.121   9.346 -0.4803 -0.1184 -0.3356
  100OSM   C13S10038   5.020   1.330   9.299  0.0998 -0.2252 -0.4437
  100OSM   H13S10039   5.123   1.370   9.281 -0.5585  1.1036 -1.4397
  100OSM   H13T10040   4.969   1.411   9.355  1.1258 -2.5326  4.3924
  100OSM   C14S10041   4.952   1.295   9.165  0.5889  0.3663 -0.2327
  100OSM   H14S10042   4.926   1.187   9.172  1.3577  0.2507  1.5318
  100OSM   H14T10043   5.014   1.305   9.074  0.0871 -0.6747 -0.7091
  100OSM   C15S10044   4.814   1.364   9.148 -0.7145  0.4111  0.5508
  100OSM   H15S10045   4.831   1.473   9.140  1.0462  0.3270  2.3484
  100OSM   H15T10046   4.761   1.344   9.243  2.2081  1.7796  2.6329
  100OSM   C16S10047   4.741   1.316   9.012  0.3932 -0.5249 -0.1195
  100OSM   H16S10048   4.647   1.375   9.011  0.3967 -0.4926  0.6508
  100OSM   H16T10049   4.719   1.209   9.028 -1.8336  0.1096  1.6753
  100OSM   C17S10050   4.814   1.346   8.878 -0.5944  0.1955 -0.0985
  100OSM   H17S10051   4.912   1.399   8.884 -0.4383 -0.1260  0.3149
  100OSM   H17T10052   4.734   1.406   8.829 -1.5379 -0.9370  0.0238
  100OSM   C18S10053   4.843   1.215   8.810 -0.1067  0.0666  0.1390
  100OSM   H18S10054   4.875   1.239   8.706 -1.2420 -2.1722 -0.7765
  100OSM   H18T10055   4.748   1.158   8.810 -0.4589  0.5874  2.2924
  100OSM   H18U10056   4.919   1.154   8.862 -1.4917 -2.1403 -0.3176
  100OSM    C1F10057   5.367   1.403  10.102 -0.5051 -0.5462  0.2089
  100OSM     OF10058   5.462   1.396  10.179 -0.1170  0.3171  0.1304
  100OSM    C2F10059   5.375   1.485   9.984  0.4953 -0.1708 -0.3211
  100OSM    H2F10060   5.283   1.469   9.924 -0.6993  0.4549  1.2777
  100OSM    H2G10061   5.455   1.453   9.914  1.3087  0.0259  0.4962
  100OSM    C3F10062   5.399   1.633  10.026 -0.6858 -0.5091 -0.0804
  100OSM    H3F10063   5.502   1.635  10.069 -1.5326 -0.7949  2.1063
  100OSM    H3G10064   5.333   1.664  10.110 -0.2703  0.8203 -0.2270
  100OSM    C4F10065   5.390   1.741   9.917 -0.1842  0.0420 -0.1155
  100OSM    H4F10066   5.289   1.748   9.870  0.0383  0.4904 -0.5227
  100OSM    H4G10067   5.459   1.709   9.837  1.1497  2.9991 -0.2878
  100OSM    C5F10068   5.440   1.875   9.967 -0.9845 -0.7242  0.3163
  100OSM    H5F10069   5.544   1.857  10.000 -1.3818 -0.0798  2.0218
  100OSM    H5G10070   5.385   1.927  10.048 -1.7004 -0.4724 -0.3114
  100OSM    C6F10071   5.456   1.986   9.860  0.1057 -0.2695  0.2152
  100OSM    H6F10072   5.503   1.952   9.765  0.0232  0.1628  0.0193
  100OSM    H6G10073   5.516   2.068   9.904 -2.6665  1.6062  0.7185
  100OSM    C7F10074   5.321   2.062   9.835 -0.0189 -0.0462  0.4035
  100OSM    H7F10075   5.281   2.091   9.934  0.2497  0.9205  0.2418
  100OSM    H7G10076   5.256   1.991   9.780 -0.5444  0.1298  0.7930
  100OSM    C8F10077   5.342   2.186   9.737  0.4450 -0.3659  1.1921
  100OSM    H8F10078   5.387   2.147   9.644 -1.8578  0.1202 -0.2276
  100OSM    H8G10079   5.406   2.258   9.793 -0.5421  1.4551  0.0827
  100OSM    C9F10080   5.213   2.263   9.707 -0.3556 -0.5621  0.2660
  100OSM    H9F10081   5.152   2.294   9.793  0.3773 -0.4639  0.7567
  100OSM   C10F10082   5.170   2.289   9.581  0.3117 -0.0037 -0.0487
  100OSM   H10F10083   5.075   2.343   9.573  0.2746  0.2554  1.7666
  100OSM   C11F10084   5.223   2.255   9.447  0.3015  0.0571  0.0518
  100OSM   H11F10085   5.151   2.177   9.412  1.2138 -0.8218  0.0902
  100OSM   H11G10086   5.321   2.205   9.456  0.2285 -0.2580 -0.7735
  100OSM   C12F10087   5.250   2.367   9.349  0.4418  0.2947  0.2051
  100OSM   H12F10088   5.323   2.441   9.388  1.5770 -1.0015  0.6408
  100OSM   H12G10089   5.158   2.428   9.336  0.3480  0.4326  1.3797
  100OSM   C13F10090   5.283   2.306   9.212 -0.2558 -0.2069  0.7628
  100OSM   H13F10091   5.197   2.250   9.170  0.7732  0.6209 -2.7542
  100OSM   H13G10092   5.368   2.234   9.224  0.0323 -0.0161 -0.0618
  100OSM   C14F10093   5.338   2.411   9.116 -0.1359  0.0424 -0.3616
  100OSM   H14F10094   5.420   2.460   9.172 -0.8856  0.5302  0.3330
  100OSM   H14G10095   5.260   2.489   9.099  0.2346  0.0877 -1.9676
  100OSM   C15F10096   5.405   2.359   8.987  0.2963  0.6454  0.1458
  100OSM   H15F10097   5.495   2.299   9.010  0.3285 -0.0803 -1.6992
  100OSM   H15G10098   5.441   2.454   8.941 -2.1294  2.0948  1.0466
  100OSM   C16F10099   5.315   2.290   8.893 -0.4881  0.0877 -0.1929
  100OSM   H16F10100   5.230   2.354   8.860 -2.9310 -2.7584  0.1423
  100OSM   H16G10101   5.271   2.198   8.936  0.5042 -0.1961  0.2322
  100OSM   C17F10102   5.389   2.260   8.758  0.1875  0.0035 -0.8194
  100OSM   H17F10103   5.410   2.355   8.704 -3.1616  0.7346 -1.0386
  100OSM   H17G10104   5.313   2.204   8.699 -2.0066 -1.2116  2.8717
  100OSM   C18F10105   5.518   2.172   8.785  0.1022 -0.3834 -0.1665
  100OSM   H18F10106   5.599   2.233   8.832 -1.7953  1.7944  0.4574
  100OSM   H18G10107   5.552   2.129   8.689  0.6843  1.1856 -0.6986
  100OSM   H18H10108   5.483   2.098   8.860 -0.7811 -0.1130 -0.3005
  101OSM      N10109   1.942   5.585  10.966  0.6196  0.2034 -0.3188
  101OSM    C1510110   1.976   5.633  10.828 -0.0798 -0.9259 -0.3901
  101OSM   H15A10111   2.057   5.704  10.828  0.1139 -1.1427 -0.1556
  101OSM   H15B10112   1.885   5.670  10.785 -0.2738 -2.4209 -1.3337
  101OSM   H15C10113   2.007   5.552  10.763  1.2647  0.4142 -1.4948
  101OSM    C1410114   2.054   5.506  11.024 -0.2192  0.2680  0.5021
  101OSM   H14A10115   2.156   5.540  11.013  0.2675 -1.5544 -1.2205
  101OSM   H14B10116   2.049   5.405  10.988 -0.6918 -0.1917  1.8089
  101OSM   H14C10117   2.048   5.491  11.131  1.0838 -0.0719  0.5347
  101OSM    C1310118   1.914   5.705  11.055  0.1526  1.1747  0.2768
  101OSM   H13A10119   1.879   5.657  11.145 -1.2525  1.4329 -0.1208
  101OSM   H13B10120   1.829   5.765  11.028  0.6620  1.4907 -0.6687
  101OSM   H13C10121   2.001   5.769  11.064  0.6797  0.3360  1.2834
  101OSM    C1210122   1.818   5.497  10.958  0.0566  0.7631 -0.1533
  101OSM   H12A10123   1.730   5.560  10.966  0.1462  0.8023  0.5793
  101OSM   H12B10124   1.816   5.443  11.052  2.2848 -0.8778 -0.9603
  101OSM    C1110125   1.808   5.392  10.847  0.2095 -0.0241  0.7983
  101OSM   H11A10126   1.779   5.444  10.753 -0.2861 -1.5267  0.0852
  101OSM   H11B10127   1.711   5.340  10.862 -0.3271  0.5809 -0.3584
  101OSM      P10128   1.932   5.157  10.803 -0.1560 -0.1312 -0.3464
  101OSM    O1310129   2.047   5.138  10.717  0.1370  0.0733 -0.0280
  101OSM    O1410130   1.930   5.078  10.925  0.0247 -0.3569  0.3546
  101OSM    O1110131   1.789   5.127  10.721 -0.1839 -0.3272  0.4704
  101OSM    O1210132   1.920   5.307  10.840 -0.5212 -0.7285  0.1308
  101OSM    C1S10133   1.800   5.192  10.589  1.2083 -0.7439  0.6182
  101OSM    H1S10134   1.884   5.150  10.529  2.3183 -1.8121  2.7676
  101OSM    H1T10135   1.832   5.298  10.589 -1.7317  0.2580 -1.9304
  101OSM     NF10136   1.715   5.282  10.376  0.0829  0.1476 -0.8186
  101OSM    HNF10137   1.719   5.382  10.370  1.9655  0.1253 -0.5422
  101OSM    C2S10138   1.671   5.205  10.498  0.4137 -0.1438  0.3720
  101OSM    H2S10139   1.635   5.105  10.464  0.3499 -0.0538  0.1750
  101OSM    C3S10140   1.553   5.272  10.568 -0.7795  0.4775 -0.0325
  101OSM    H3S10141   1.598   5.365  10.611 -0.7564  0.8089 -0.7651
  101OSM     O310142   1.508   5.208  10.684  0.3990 -0.0830  0.5289
  101OSM    HO310143   1.591   5.175  10.720  0.2120  0.3464  1.3889
  101OSM    C4S10144   1.442   5.322  10.473 -0.1356 -0.2394 -0.5775
  101OSM    H4S10145   1.458   5.421  10.428 -2.0022  0.9401  1.1717
  101OSM    C5S10146   1.329   5.261  10.450 -0.1140  0.2378  0.6679
  101OSM    H5S10147   1.321   5.166  10.504  2.3767 -0.2546  0.2670
  101OSM    C6S10148   1.223   5.310  10.352  0.8217  0.6421 -0.0101
  101OSM    H6S10149   1.192   5.408  10.395 -0.3189  0.6038 -0.7130
  101OSM    H6T10150   1.143   5.234  10.351  1.4382 -0.0125 -0.3634
  101OSM    C7S10151   1.271   5.331  10.209  0.5765  0.0862  0.1062
  101OSM    H7S10152   1.306   5.239  10.157  2.4452  0.4192  0.7063
  101OSM    H7T10153   1.348   5.411  10.204 -1.0834  1.7740  0.2921
  101OSM    C8S10154   1.154   5.372  10.116  0.4324  1.5512  0.3503
  101OSM    H8S10155   1.110   5.459  10.170 -1.4020 -0.9358  3.1984
  101OSM    H8T10156   1.083   5.287  10.128  0.2872  1.7558  0.9799
  101OSM    C9S10157   1.184   5.376   9.964  0.2581  0.0579  0.2909
  101OSM    H9S10158   1.211   5.276   9.926  1.2102  0.9613 -1.5298
  101OSM    H9T10159   1.271   5.444   9.957  1.3726 -1.3526  0.0340
  101OSM   C10S10160   1.068   5.434   9.881  0.5581  0.1710 -0.0960
  101OSM   H10S10161   1.015   5.510   9.942 -0.0317 -0.2781 -0.0362
  101OSM   H10T10162   0.996   5.350   9.870  0.4054  0.3906 -0.7930
  101OSM   C11S10163   1.124   5.477   9.745  0.2439  0.2143  0.4674
  101OSM   H11S10164   1.192   5.396   9.711 -0.8333 -0.2726 -0.5885
  101OSM   H11T10165   1.181   5.572   9.743  0.8396 -0.0490  2.4098
  101OSM   C12S10166   1.012   5.481   9.634 -0.0644  0.3884  0.3362
  101OSM   H12S10167   0.911   5.511   9.670  0.5753  2.4977  0.4983
  101OSM   H12T10168   1.001   5.376   9.599  0.7523  0.9221 -1.6693
  101OSM   C13S10169   1.042   5.570   9.519  0.6337  0.0606  0.5525
  101OSM   H13S10170   1.137   5.550   9.464  0.2864  1.3171 -0.5623
  101OSM   H13T10171   1.051   5.674   9.557  0.0915  0.2481  0.1754
  101OSM   C14S10172   0.926   5.572   9.421  0.0627  0.3151  0.2212
  101OSM   H14S10173   0.831   5.581   9.477 -1.4370  1.6788 -2.3498
  101OSM   H14T10174   0.923   5.482   9.355 -1.5921  1.1461 -0.8997
  101OSM   C15S10175   0.930   5.688   9.322 -0.2596 -0.9463 -0.5586
  101OSM   H15S10176   1.030   5.709   9.278 -0.7453 -0.2592 -1.3586
  101OSM   H15T10177   0.905   5.784   9.373 -2.1776 -1.6228 -0.1623
  101OSM   C16S10178   0.838   5.663   9.209 -0.0620 -0.6752  0.0973
  101OSM   H16S10179   0.737   5.647   9.252  0.0222 -3.2206 -0.4872
  101OSM   H16T10180   0.858   5.569   9.153 -0.2651  0.0657 -1.2528
  101OSM   C17S10181   0.844   5.780   9.100  0.7089 -0.8290  0.0114
  101OSM   H17S10182   0.945   5.791   9.056  1.6842 -0.6121  2.1476
  101OSM   H17T10183   0.817   5.877   9.149  2.0336 -0.8259  0.7911
  101OSM   C18S10184   0.744   5.764   8.984 -0.5552  0.3711 -0.0772
  101OSM   H18S10185   0.757   5.843   8.907  0.1463  0.6552  0.3241
  101OSM   H18T10186   0.643   5.754   9.028 -0.4244  1.6033  0.5508
  101OSM   H18U10187   0.768   5.664   8.942  0.6981  1.0835 -1.1368
  101OSM    C1F10188   1.768   5.215  10.276 -0.2841 -0.5347 -0.7739
  101OSM     OF10189   1.771   5.093  10.281  0.1212 -0.2950 -0.9726
  101OSM    C2F10190   1.836   5.283  10.160  0.0439 -0.3933  0.3163
  101OSM    H2F10191   1.882   5.217  10.083  0.4313 -0.1815  0.3642
  101OSM    H2G10192   1.919   5.344  10.203  0.8458  0.0454 -1.7388
  101OSM    C3F10193   1.730   5.366  10.082 -0.2263  0.4728 -0.6911
  101OSM    H3F10194   1.771   5.410   9.989 -0.3997  3.1667  0.4378
  101OSM    H3G10195   1.681   5.443  10.145 -1.1273  0.8680 -1.8458
  101OSM    C4F10196   1.621   5.278  10.023  0.4735 -0.5614 -0.3365
  101OSM    H4F10197   1.562   5.233  10.105 -0.8905  0.5741 -0.6543
  101OSM    H4G10198   1.668   5.193   9.968  0.2695 -2.2862  2.0038
  101OSM    C5F10199   1.519   5.355   9.936 -0.0073 -0.3112 -0.1803
  101OSM    H5F10200   1.469   5.432   9.999 -0.7971 -1.3605  0.5087
  101OSM    H5G10201   1.441   5.280   9.909  0.0098 -1.7921  3.3135
  101OSM    C6F10202   1.581   5.403   9.799  0.2394  0.2668 -0.0709
  101OSM    H6F10203   1.655   5.485   9.814  0.1781  0.2143  0.5261
  101OSM    H6G10204   1.638   5.319   9.755 -0.1873  0.3992 -0.9140
  101OSM    C7F10205   1.468   5.434   9.688  0.2813 -0.3828 -0.0181
  101OSM    H7F10206   1.408   5.514   9.735  1.2600  0.2452  0.2031
  101OSM    H7G10207   1.402   5.345   9.689 -0.1135 -0.1539 -1.9511
  101OSM    C8F10208   1.519   5.455   9.544 -0.3127 -0.4064  0.5723
  101OSM    H8F10209   1.582   5.369   9.514 -1.5086 -2.2669  3.0540
  101OSM    H8G10210   1.582   5.546   9.552  0.4379 -0.8498 -0.1861
  101OSM    C9F10211   1.401   5.483   9.451 -1.2982 -0.0642  0.5857
  101OSM    H9F10212   1.333   5.565   9.475 -0.8314 -0.1947  2.5461
  101OSM   C10F10213   1.394   5.445   9.321 -0.1278  0.1126 -0.8001
  101OSM   H10F10214   1.304   5.465   9.260  0.2287  2.1085 -0.7185
  101OSM   C11F10215   1.485   5.354   9.239  0.2194  0.2814  0.4054
  101OSM   H11F10216   1.418   5.273   9.204  1.6949 -1.0622  0.5429
  101OSM   H11G10217   1.553   5.301   9.309 -1.4139 -1.6277  0.6359
  101OSM   C12F10218   1.558   5.418   9.121  0.7084 -0.7065 -0.0268
  101OSM   H12F10219   1.629   5.339   9.087 -0.2406 -2.0006  0.9498
  101OSM   H12G10220   1.607   5.514   9.146 -0.7923  0.3282 -0.9155
  101OSM   C13F10221   1.460   5.435   9.000 -0.8283 -0.2274  0.2518
  101OSM   H13F10222   1.389   5.520   9.014 -0.5434  0.4219 -1.8765
  101OSM   H13G10223   1.406   5.341   8.976  1.4046 -1.1063 -1.7836
  101OSM   C14F10224   1.535   5.473   8.871  1.0137 -0.1822  0.1955
  101OSM   H14F10225   1.631   5.422   8.850  0.6157 -0.3819 -1.2515
  101OSM   H14G10226   1.561   5.580   8.860 -1.2206  0.5241  1.1867
  101OSM   C15F10227   1.434   5.444   8.752  0.2610 -0.1396 -0.0302
  101OSM   H15F10228   1.346   5.509   8.769 -1.5343 -1.5766 -3.0266
  101OSM   H15G10229   1.403   5.338   8.757  2.0048 -0.6072  2.6252
  101OSM   C16F10230   1.501   5.472   8.622  0.1522  0.1238  0.0754
  101OSM   H16F10231   1.514   5.581   8.608  0.6656 -0.0488 -0.8941
  101OSM   H16G10232   1.417   5.449   8.553  0.3893 -0.8880  0.0994
  101OSM   C17F10233   1.620   5.387   8.574  0.2476  0.9854  0.1795
  101OSM   H17F10234   1.583   5.297   8.520  2.2040  1.5365 -2.3188
  101OSM   H17G10235   1.687   5.347   8.653 -0.4877  0.9843  0.8099
  101OSM   C18F10236   1.700   5.454   8.461 -0.9054 -0.1931 -0.2005
  101OSM   H18F10237   1.721   5.559   8.488  2.2323 -0.8133  0.1115
  101OSM   H18G10238   1.633   5.442   8.373 -2.1579  1.1620  0.5242
  101OSM   H18H10239   1.800   5.406   8.454  0.5415  2.3331  1.7227
  102OSM      N10240   4.583   2.675  10.525  0.0603  0.0215  1.3246
  102OSM    C1510241   4.734   2.658  10.525  0.0862  0.2091  0.6757
  102OSM   H15A10242   4.770   2.628  10.427 -1.6339 -2.5842  0.8066
  102OSM   H15B10243   4.770   2.589  10.600 -1.7380  0.6844  2.0420
  102OSM   H15C10244   4.781   2.751  10.554 -0.2785  0.4816  0.3892
  102OSM    C1410245   4.518   2.543  10.501 -0.8452 -0.1188 -0.4708
  102OSM   H14A10246   4.410   2.554  10.496 -0.9812 -0.1302  1.5979
  102OSM   H14B10247   4.524   2.468  10.579  1.2342 -1.1122 -1.5107
  102OSM   H14C10248   4.548   2.502  10.406 -0.5005 -0.9728  0.0002
  102OSM    C1310249   4.534   2.725  10.654  0.2373 -0.4658 -1.0226
  102OSM   H13A10250   4.579   2.816  10.691  1.7522 -1.5514 -0.1197
  102OSM   H13B10251   4.544   2.652  10.733  0.7881  0.4513 -0.2258
  102OSM   H13C10252   4.426   2.731  10.643  0.1129  0.4066  0.4428
  102OSM    C1210253   4.533   2.771  10.414  0.4317  0.2971  1.1883
  102OSM   H12A10254   4.558   2.736  10.315 -2.1666 -1.2433  0.9981
  102OSM   H12B10255   4.582   2.865  10.437  0.9595  0.4702 -0.5106
  102OSM    C1110256   4.386   2.814  10.415  0.3629  0.8247 -0.0986
  102OSM   H11A10257   4.316   2.727  10.410  1.6273 -0.2043 -0.6149
  102OSM   H11B10258   4.369   2.861  10.315 -2.0602  0.5702  0.1241
  102OSM      P10259   4.413   3.063  10.506 -0.1558  0.1556  0.2172
  102OSM    O1310260   4.421   3.118  10.640  0.4025 -0.2473  0.2888
  102OSM    O1410261   4.538   3.056  10.428  0.6134 -0.4839  0.0661
  102OSM    O1110262   4.302   3.126  10.417 -0.2404  0.0948 -0.5311
  102OSM    O1210263   4.360   2.918  10.516  0.3712  0.1507  0.2008
  102OSM    C1S10264   4.309   3.209  10.300 -0.4604 -0.0800  0.0136
  102OSM    H1S10265   4.409   3.202  10.252 -0.2815  1.7680  0.0352
  102OSM    H1T10266   4.288   3.311  10.339  0.4534 -1.1851  3.7939
  102OSM     NF10267   4.244   3.168  10.068  0.8520  0.6697 -0.0026
  102OSM    HNF10268   4.204   3.245  10.019 -1.2275  0.5895  1.4850
  102OSM    C2S10269   4.200   3.162  10.205 -0.4674  0.1555 -0.1739
  102OSM    H2S10270   4.172   3.058  10.231 -0.0511  0.6477  2.5398
  102OSM    C3S10271   4.067   3.244  10.230  0.0774 -0.0748  0.7965
  102OSM    H3S10272   4.082   3.348  10.194  0.1883  0.0106  1.0846
  102OSM     O310273   4.030   3.242  10.370  0.2181  0.2906 -0.3342
  102OSM    HO310274   4.105   3.199  10.411  1.5393  1.1976 -1.6621
  102OSM    C4S10275   3.962   3.192  10.139  0.6722  0.1801  0.3693
  102OSM    H4S10276   3.978   3.219  10.033  0.9475  0.2492  0.4280
  102OSM    C5S10277   3.855   3.114  10.167  0.2652  0.4453 -0.5818
  102OSM    H5S10278   3.828   3.118  10.273  2.8289  0.9581  0.1188
  102OSM    C6S10279   3.747   3.048  10.078  0.3430 -1.0834  0.3388
  102OSM    H6S10280   3.644   3.085  10.098  0.1164 -0.7695 -1.3234
  102OSM    H6T10281   3.752   2.938  10.092 -1.8441 -1.3668 -0.7398
  102OSM    C7S10282   3.761   3.072   9.927  0.2168  0.4222 -0.1643
  102OSM    H7S10283   3.870   3.062   9.909  0.4896  0.9489  1.0249
  102OSM    H7T10284   3.765   3.182   9.910  3.7143  0.8738  2.3913
  102OSM    C8S10285   3.663   2.991   9.838 -0.3581 -0.6587 -0.7381
  102OSM    H8S10286   3.576   2.987   9.908 -1.3367  1.1718 -1.7548
  102OSM    H8T10287   3.688   2.886   9.813 -1.7035 -0.8600 -1.3416
  102OSM    C9S10288   3.635   3.073   9.706 -0.8219  0.4200  0.0190
  102OSM    H9S10289   3.644   3.183   9.715  0.4426  0.5010 -1.6670
  102OSM    H9T10290   3.527   3.053   9.686 -0.8662  1.5210 -0.9530
  102OSM   C10S10291   3.707   3.016   9.576  0.2166  0.3011 -0.0542
  102OSM   H10S10292   3.683   2.908   9.574  3.1874 -0.4387 -0.6700
  102OSM   H10T10293   3.816   3.030   9.592  0.0265  3.2003 -0.6446
  102OSM   C11S10294   3.680   3.077   9.439  0.2543 -0.5863 -0.8931
  102OSM   H11S10295   3.571   3.065   9.423 -0.2262 -1.4256  2.2400
  102OSM   H11T10296   3.734   3.017   9.363  1.0015 -2.2055  0.8384
  102OSM   C12S10297   3.728   3.225   9.430  0.1035  0.6111  0.5193
  102OSM   H12S10298   3.838   3.225   9.449  0.0662  1.4289  0.7951
  102OSM   H12T10299   3.686   3.306   9.493  0.7538  0.9886  0.4817
  102OSM   C13S10300   3.696   3.284   9.293  0.4231 -0.5214  0.1486
  102OSM   H13S10301   3.733   3.388   9.286 -1.2240  0.3079  2.5438
  102OSM   H13T10302   3.588   3.300   9.272  0.1843 -1.1959  0.7963
  102OSM   C14S10303   3.741   3.198   9.176 -0.1435  0.3281  0.7071
  102OSM   H14S10304   3.669   3.113   9.170  0.2316 -0.0373  1.2403
  102OSM   H14T10305   3.839   3.150   9.198 -0.0871 -0.5537 -1.2126
  102OSM   C15S10306   3.741   3.277   9.048 -0.1210 -0.7139  0.3410
  102OSM   H15S10307   3.772   3.380   9.078 -3.8839  0.2826  1.4094
  102OSM   H15T10308   3.638   3.302   9.014  0.8258  1.5738 -1.1559
  102OSM   C16S10309   3.822   3.215   8.935 -0.1077  0.6773 -1.2047
  102OSM   H16S10310   3.769   3.123   8.900 -2.7207  1.7390 -0.2757
  102OSM   H16T10311   3.923   3.197   8.977  0.8330  1.4364 -3.0300
  102OSM   C17S10312   3.842   3.316   8.825  0.4173  0.4459 -0.4288
  102OSM   H17S10313   3.917   3.281   8.752 -0.0579  2.6119 -2.0464
  102OSM   H17T10314   3.868   3.418   8.859 -0.3534  0.0649  1.4507
  102OSM   C18S10315   3.720   3.330   8.731 -0.1818  0.0082  0.1328
  102OSM   H18S10316   3.725   3.414   8.658 -2.7930 -1.0650 -1.4264
  102OSM   H18T10317   3.623   3.340   8.786 -0.6017  0.5032 -0.6707
  102OSM   H18U10318   3.711   3.236   8.673 -1.0856 -3.9634  5.8073
  102OSM    C1F10319   4.326   3.087  10.007  0.1578  0.0972  0.1437
  102OSM     OF10320   4.379   2.988  10.065 -0.0711  0.1005  0.3039
  102OSM    C2F10321   4.350   3.113   9.860  0.3078 -0.0968  0.0224
  102OSM    H2F10322   4.286   3.199   9.830 -0.1053 -1.3557 -2.9522
  102OSM    H2G10323   4.309   3.031   9.798 -1.5741  0.7958  0.0200
  102OSM    C3F10324   4.499   3.111   9.822  0.4424 -0.4903 -1.1250
  102OSM    H3F10325   4.538   3.007   9.824  3.4774  0.5454 -0.8215
  102OSM    H3G10326   4.554   3.164   9.904  2.2566 -0.6264 -2.2049
  102OSM    C4F10327   4.548   3.166   9.692 -0.7190 -0.1191  0.0242
  102OSM    H4F10328   4.654   3.134   9.678 -0.5758  0.2733  0.1818
  102OSM    H4G10329   4.530   3.275   9.710 -2.2485 -0.3933  0.2439
  102OSM    C5F10330   4.483   3.124   9.560  0.4442  0.3879 -0.2367
  102OSM    H5F10331   4.375   3.120   9.584 -0.6940  0.0051 -4.4979
  102OSM    H5G10332   4.530   3.024   9.544  1.5381  1.0474 -1.3514
  102OSM    C6F10333   4.523   3.211   9.439 -0.8620  0.3305 -0.6510
  102OSM    H6F10334   4.628   3.242   9.452 -0.7012 -0.3502 -0.2858
  102OSM    H6G10335   4.462   3.304   9.435 -0.7457  0.3705 -2.9231
  102OSM    C7F10336   4.508   3.135   9.309  0.4072  0.2690  0.0479
  102OSM    H7F10337   4.402   3.106   9.291  0.5549  0.5906 -1.4451
  102OSM    H7G10338   4.561   3.038   9.318 -1.1370 -0.5739  0.3451
  102OSM    C8F10339   4.573   3.214   9.195  0.4845  0.0347  0.8866
  102OSM    H8F10340   4.677   3.240   9.226  0.0728  3.0729  0.0344
  102OSM    H8G10341   4.526   3.314   9.187  0.4561 -0.1590 -3.1419
  102OSM    C9F10342   4.565   3.148   9.060  0.6447  0.4627 -0.1077
  102OSM    H9F10343   4.605   3.046   9.060 -2.9069 -1.0619  0.7871
  102OSM   C10F10344   4.513   3.200   8.951 -0.0083  0.3655 -0.2356
  102OSM   H10F10345   4.507   3.136   8.861  3.0638  0.0103 -0.3054
  102OSM   C11F10346   4.434   3.325   8.931 -0.3841 -0.4341 -0.7915
  102OSM   H11F10347   4.422   3.388   9.022  1.3436  0.3622 -1.0839
  102OSM   H11G10348   4.328   3.303   8.906 -0.4032 -0.9683 -0.2705
  102OSM   C12F10349   4.494   3.411   8.822  0.0057 -0.4671 -0.2433
  102OSM   H12F10350   4.604   3.422   8.832 -0.0949  0.6159 -0.2877
  102OSM   H12G10351   4.452   3.511   8.844  1.0144 -0.1230  0.1808
  102OSM   C13F10352   4.480   3.373   8.677  0.5922 -0.3418  0.8259
  102OSM   H13F10353   4.371   3.370   8.651  0.9609 -1.2881 -0.7977
  102OSM   H13G10354   4.528   3.278   8.643 -1.9605 -0.8131 -1.9396
  102OSM   C14F10355   4.546   3.478   8.587 -0.2969 -0.1610  0.1051
  102OSM   H14F10356   4.654   3.480   8.612 -0.6608 -0.7749  1.9284
  102OSM   H14G10357   4.516   3.582   8.611  2.8417  0.8884 -0.0197
  102OSM   C15F10358   4.514   3.451   8.440  0.0099 -0.5634  0.6603
  102OSM   H15F10359   4.408   3.484   8.432  1.2812  4.0914  0.1917
  102OSM   H15G10360   4.535   3.345   8.415  1.2158 -0.2017  0.0456
  102OSM   C16F10361   4.600   3.548   8.360 -0.3476  0.3394  0.4347
  102OSM   H16F10362   4.696   3.566   8.413 -2.3016  0.5383  4.2824
  102OSM   H16G10363   4.567   3.653   8.347  2.1972  1.0216 -0.9805
  102OSM   C17F10364   4.631   3.483   8.225 -0.5392 -0.1090  0.0798
  102OSM   H17F10365   4.532   3.476   8.175  0.3461  1.1978 -1.9794
  102OSM   H17G10366   4.669   3.379   8.235  0.8591  0.2274 -1.3501
  102OSM   C18F10367   4.728   3.564   8.146 -0.0471 -0.4658 -0.0927
  102OSM   H18F10368   4.750   3.509   8.051 -0.6721  0.0752 -0.5612
  102OSM   H18G10369   4.820   3.581   8.205 -0.6576 -2.5065  1.5646
  102OSM   H18H10370   4.674   3.649   8.100 -0.7387 -0.1120  1.3220
  103OSM      N10371   6.437   0.589  10.935 -0.7913 -0.1252  0.0555
  103OSM    C1510372   6.535   0.478  10.897  0.1015  0.0073  0.4677
  103OSM   H15A10373   6.508   0.411  10.816 -1.9007  0.1285  0.9849
  103OSM   H15B10374   6.554   0.410  10.979  2.5998 -1.4943 -1.2031
  103OSM   H15C10375   6.633   0.516  10.873  0.9182 -1.5317  1.2357
  103OSM    C1410376   6.309   0.531  10.976 -0.6228 -0.4866  1.2313
  103OSM   H14A10377   6.250   0.614  11.013  1.6669  2.3391 -0.9058
  103OSM   H14B10378   6.323   0.447  11.042  2.9423 -0.2994  0.9378
  103OSM   H14C10379   6.258   0.492  10.890 -0.7337  1.1968  0.4968
  103OSM    C1310380   6.503   0.666  11.054  0.7470  0.0589  0.8991
  103OSM   H13A10381   6.437   0.731  11.109  1.3375  0.4911  1.1106
  103OSM   H13B10382   6.576   0.732  11.008  0.1321  0.1128 -0.0299
  103OSM   H13C10383   6.559   0.606  11.124  0.8584 -0.9376 -0.0203
  103OSM    C1210384   6.426   0.678  10.817  0.8808  0.5783  0.5107
  103OSM   H12A10385   6.347   0.749  10.837 -0.5453 -1.3031  1.9292
  103OSM   H12B10386   6.391   0.615  10.736 -0.3897 -1.4199  2.5047
  103OSM    C1110387   6.546   0.761  10.766  0.2865  0.4246  0.5979
  103OSM   H11A10388   6.514   0.791  10.664 -0.5990 -2.6479 -0.1322
  103OSM   H11B10389   6.631   0.694  10.746 -0.7617 -0.0307 -2.9368
  103OSM      P10390   6.708   0.959  10.819  0.1663 -0.3534 -0.0847
  103OSM    O1310391   6.708   1.072  10.919 -0.3065 -0.1827  0.2928
  103OSM    O1410392   6.829   0.873  10.821  1.0751 -0.1529 -0.0679
  103OSM    O1110393   6.680   1.022  10.681 -0.2457 -0.1873  0.4433
  103OSM    O1210394   6.581   0.870  10.853  0.2720  0.0187  0.4118
  103OSM    C1S10395   6.729   0.970  10.556 -0.0927 -0.3322  0.2315
  103OSM    H1S10396   6.657   0.935  10.478  2.9561 -1.0193 -2.4982
  103OSM    H1T10397   6.807   0.892  10.566 -0.7552 -0.8518  1.5530
  103OSM     NF10398   6.864   1.029  10.350  0.0989 -0.6175  0.1649
  103OSM    HNF10399   6.961   1.008  10.341  0.4443  0.5181  0.9767
  103OSM    C2S10400   6.816   1.077  10.481 -0.4177  0.5493 -0.6389
  103OSM    H2S10401   6.753   1.168  10.469 -0.3625  0.9942  1.8980
  103OSM    C3S10402   6.930   1.125  10.585  0.1401  0.2551 -0.1456
  103OSM    H3S10403   6.984   1.035  10.622 -0.1598 -0.4895 -1.4559
  103OSM     O310404   6.873   1.205  10.685  0.3828  0.5745  0.4867
  103OSM    HO310405   6.779   1.197  10.668  0.8728 -1.7534 -1.5662
  103OSM    C4S10406   7.040   1.205  10.525 -0.3040 -0.2097 -0.2999
  103OSM    H4S10407   7.140   1.164  10.545 -0.9060 -0.1003  3.7869
  103OSM    C5S10408   7.028   1.316  10.446 -0.5540 -0.2409 -0.2072
  103OSM    H5S10409   6.929   1.360  10.427 -0.5139  0.7777  1.7125
  103OSM    C6S10410   7.146   1.379  10.378 -0.1428  0.6782 -0.0533
  103OSM    H6S10411   7.236   1.394  10.442 -0.1146 -1.4336  0.5066
  103OSM    H6T10412   7.113   1.471  10.326  0.6239  0.6195 -0.6605
  103OSM    C7S10413   7.184   1.279  10.264  0.5374  0.0958  0.1851
  103OSM    H7S10414   7.183   1.176  10.306 -1.0517  0.1491  0.3488
  103OSM    H7T10415   7.283   1.307  10.224  0.6259  0.0200  0.3499
  103OSM    C8S10416   7.087   1.278  10.148 -0.6568 -0.2357  0.2417
  103OSM    H8S10417   7.068   1.385  10.124 -1.7531 -0.8716 -1.9504
  103OSM    H8T10418   6.989   1.239  10.184 -1.8241  1.5830 -0.8413
  103OSM    C9S10419   7.139   1.216  10.019 -0.6768  0.6206  0.1645
  103OSM    H9S10420   7.166   1.110  10.040  0.9049  0.9803  0.0740
  103OSM    H9T10421   7.230   1.269   9.986 -0.3736  0.4653  0.7423
  103OSM   C10S10422   7.046   1.237   9.899  0.7296  0.8796 -0.0062
  103OSM   H10S10423   7.000   1.339   9.898 -0.6797  0.2746  0.6339
  103OSM   H10T10424   6.957   1.172   9.906  0.2354  1.4459 -0.7516
  103OSM   C11S10425   7.110   1.206   9.761 -0.7423 -0.4083 -0.0401
  103OSM   H11S10426   7.185   1.131   9.795  0.4855  1.6231  2.0497
  103OSM   H11T10427   7.156   1.301   9.727 -0.3656 -0.7378 -0.4665
  103OSM   C12S10428   7.024   1.154   9.652  0.3151 -0.4934 -0.0621
  103OSM   H12S10429   6.937   1.221   9.639  1.6291  1.2444 -0.3058
  103OSM   H12T10430   6.985   1.060   9.698  0.6948 -1.4470 -1.6068
  103OSM   C13S10431   7.080   1.142   9.512  0.3878 -0.1414 -0.3786
  103OSM   H13S10432   7.173   1.082   9.527  1.1582  0.9659 -0.6004
  103OSM   H13T10433   7.109   1.241   9.471 -1.0577  0.2919 -0.4144
  103OSM   C14S10434   6.983   1.068   9.413  0.4683  0.3568  0.0953
  103OSM   H14S10435   6.886   1.122   9.418 -0.9790 -1.9084 -1.7158
  103OSM   H14T10436   6.959   0.964   9.442  0.5043  0.0294 -1.0201
  103OSM   C15S10437   7.031   1.077   9.269  0.1989  0.2113  0.2702
  103OSM   H15S10438   7.135   1.041   9.283 -0.4502 -0.7878  3.1930
  103OSM   H15T10439   7.042   1.181   9.232  0.3286  0.4869  1.0487
  103OSM   C16S10440   6.959   1.002   9.156 -0.2313 -0.0393 -0.0613
  103OSM   H16S10441   6.852   1.032   9.169 -0.4719 -0.7254 -0.4188
  103OSM   H16T10442   6.977   0.893   9.172 -0.5527  0.0347  0.9189
  103OSM   C17S10443   7.018   1.056   9.023  0.2722  0.5020 -0.1727
  103OSM   H17S10444   7.127   1.040   9.017  0.1504  0.0788 -4.8301
  103OSM   H17T10445   7.009   1.167   9.020  1.7237  0.6632  0.6967
  103OSM   C18S10446   6.954   0.995   8.895  0.2162  0.3368 -0.5875
  103OSM   H18S10447   6.979   1.055   8.805  1.3995 -1.5535 -1.5937
  103OSM   H18T10448   6.844   0.992   8.911  0.1959  0.0732 -0.7709
  103OSM   H18U10449   6.989   0.891   8.879 -3.3993 -0.8439 -1.8244
  103OSM    C1F10450   6.783   1.008  10.253 -0.1209 -0.4090  0.3847
  103OSM     OF10451   6.677   1.069  10.241  0.4175  0.7325  0.3230
  103OSM    C2F10452   6.837   0.910  10.156 -0.0019 -0.0501 -0.2560
  103OSM    H2F10453   6.844   0.810  10.203 -2.0441  0.1706  0.6159
  103OSM    H2G10454   6.935   0.949  10.119  0.6856 -0.7364  0.7842
  103OSM    C3F10455   6.737   0.894  10.042 -0.2135  0.7885  0.0806
  103OSM    H3F10456   6.743   0.994   9.995 -0.9215  0.1959 -1.3614
  103OSM    H3G10457   6.633   0.875  10.078 -0.6342  2.9108  0.0692
  103OSM    C4F10458   6.800   0.802   9.931  0.4665  0.1825 -0.4479
  103OSM    H4F10459   6.816   0.696   9.959  0.9710 -0.0695 -1.6443
  103OSM    H4G10460   6.908   0.823   9.918  0.7255 -0.6978  0.1736
  103OSM    C5F10461   6.716   0.821   9.806 -0.1970 -0.2218 -0.4095
  103OSM    H5F10462   6.752   0.922   9.774  1.4270 -0.3395  0.9231
  103OSM    H5G10463   6.610   0.841   9.832 -0.8363 -1.7547 -1.6964
  103OSM    C6F10464   6.727   0.708   9.715  0.2025 -0.1993 -0.3112
  103OSM    H6F10465   6.714   0.609   9.764 -0.0345  0.1339  0.3045
  103OSM    H6G10466   6.832   0.691   9.680  0.5185  0.8618  0.0902
  103OSM    C7F10467   6.630   0.722   9.597  1.1326  0.5326 -0.1446
  103OSM    H7F10468   6.533   0.760   9.634  0.4038 -0.0413 -1.3812
  103OSM    H7G10469   6.609   0.620   9.556  0.9838  1.2610 -1.9761
  103OSM    C8F10470   6.691   0.808   9.486  0.0532  0.9289  0.1521
  103OSM    H8F10471   6.783   0.763   9.442  0.3678  1.2058  0.5158
  103OSM    H8G10472   6.725   0.898   9.541 -1.0687  1.9691 -0.8132
  103OSM    C9F10473   6.583   0.846   9.383 -0.0988 -0.2159 -0.1393
  103OSM    H9F10474   6.516   0.928   9.414 -0.2353  0.2559 -1.6033
  103OSM   C10F10475   6.560   0.789   9.263  0.1064 -0.3406 -0.2413
  103OSM   H10F10476   6.479   0.826   9.199  0.3705 -0.7176 -0.8043
  103OSM   C11F10477   6.630   0.675   9.204  0.5295  0.1641  0.0174
  103OSM   H11F10478   6.596   0.574   9.233 -1.4173  1.2249  1.7155
  103OSM   H11G10479   6.739   0.685   9.220  0.3005  1.3910  0.9693
  103OSM   C12F10480   6.601   0.671   9.053 -0.0395  0.2936 -0.4105
  103OSM   H12F10481   6.627   0.770   9.010  0.1036  0.7846  0.7689
  103OSM   H12G10482   6.494   0.640   9.047 -0.0986  0.3337  0.2975
  103OSM   C13F10483   6.681   0.571   8.970  0.1437 -0.6330  0.2525
  103OSM   H13F10484   6.686   0.479   9.032 -0.2474  0.3557  1.8157
  103OSM   H13G10485   6.790   0.592   8.969  0.5165 -2.0760  2.5051
  103OSM   C14F10486   6.622   0.549   8.833  0.0887 -0.2694 -0.5688
  103OSM   H14F10487   6.515   0.530   8.852 -0.1758  2.1202  0.7255
  103OSM   H14G10488   6.669   0.461   8.783  2.2375  0.0153  0.8412
  103OSM   C15F10489   6.632   0.676   8.738 -0.2922 -0.3682 -0.0747
  103OSM   H15F10490   6.620   0.771   8.793 -2.5755  0.3871 -1.7410
  103OSM   H15G10491   6.553   0.654   8.664 -0.2992 -0.3375 -0.0765
  103OSM   C16F10492   6.766   0.672   8.663 -0.2316 -0.0438 -0.1329
  103OSM   H16F10493   6.782   0.575   8.610  0.6859 -1.7572  3.0037
  103OSM   H16G10494   6.838   0.688   8.746 -0.7647 -0.9593  0.5243
  103OSM   C17F10495   6.763   0.776   8.555  0.4609  0.1389 -0.0294
  103OSM   H17F10496   6.662   0.776   8.508  1.0668 -1.9658 -1.5096
  103OSM   H17G10497   6.819   0.743   8.464 -0.8287 -0.6874 -0.5513
  103OSM   C18F10498   6.787   0.918   8.591 -0.8639  0.3596  0.0761
  103OSM   H18F10499   6.894   0.933   8.617  0.0527 -1.7652 -2.0536
  103OSM   H18G10500   6.728   0.936   8.683 -3.6160  0.0876 -1.5169
  103OSM   H18H10501   6.756   0.999   8.521  2.8442  2.7768  0.9266
  104OSM      N10502   3.677   3.846  11.012 -0.2128  0.2233 -0.8289
  104OSM    C1510503   3.647   3.950  11.114 -0.2142  0.6768  0.0144
  104OSM   H15A10504   3.605   3.923  11.210  1.0236  1.8345  0.9164
  104OSM   H15B10505   3.572   4.019  11.078  0.6362  1.3421 -0.5149
  104OSM   H15C10506   3.741   3.996  11.142 -0.1898 -0.5455  2.1288
  104OSM    C1410507   3.764   3.743  11.078  0.9333 -0.1808 -0.0375
  104OSM   H14A10508   3.798   3.669  11.007  0.4685  0.9766 -1.5449
  104OSM   H14B10509   3.718   3.695  11.163  1.7997 -1.4742 -0.2759
  104OSM   H14C10510   3.854   3.781  11.123  0.9277 -0.3386  0.1060
  104OSM    C1310511   3.552   3.777  10.975 -0.3142 -0.5978  0.5280
  104OSM   H13A10512   3.569   3.696  10.906  0.0305 -1.4699  1.6050
  104OSM   H13B10513   3.496   3.850  10.917  2.3163  1.7556  0.7595
  104OSM   H13C10514   3.495   3.741  11.059 -1.5023  0.4249  0.1956
  104OSM    C1210515   3.741   3.899  10.882  0.1444  0.2632 -0.9488
  104OSM   H12A10516   3.763   3.808  10.827  3.1374 -0.1063  0.6533
  104OSM   H12B10517   3.838   3.942  10.900  0.7410 -1.5733  0.4778
  104OSM    C1110518   3.653   3.990  10.799 -0.6688 -0.8798 -0.2978
  104OSM   H11A10519   3.555   3.939  10.782 -1.4369 -0.1574  1.6848
  104OSM   H11B10520   3.703   3.989  10.700 -0.6959  0.4450 -0.3418
  104OSM      P10521   3.687   4.240  10.785 -0.0587 -0.0781  0.0579
  104OSM    O1310522   3.663   4.362  10.863  0.0712 -0.5849  0.0299
  104OSM    O1410523   3.825   4.219  10.745  0.1374  0.2958  0.4285
  104OSM    O1110524   3.590   4.237  10.657  0.2957 -0.2372  0.4488
  104OSM    O1210525   3.636   4.118  10.868  0.0450 -0.3842  0.6245
  104OSM    C1S10526   3.627   4.315  10.549  0.7849  0.5626  0.5716
  104OSM    H1S10527   3.733   4.299  10.522  0.2933 -3.4812  0.4046
  104OSM    H1T10528   3.609   4.419  10.584 -2.3141  1.3309 -2.6825
  104OSM     NF10529   3.570   4.395  10.328 -0.0206 -0.3234 -0.5549
  104OSM    HNF10530   3.505   4.471  10.333 -1.1454 -1.3297  2.1379
  104OSM    C2S10531   3.534   4.296  10.426  0.3145  0.1198 -0.0123
  104OSM    H2S10532   3.556   4.201  10.371  0.1914 -0.0845  0.2906
  104OSM    C3S10533   3.387   4.298  10.455  0.8548  0.5790 -0.1621
  104OSM    H3S10534   3.366   4.397  10.501  2.3023  1.5829 -1.5344
  104OSM     O310535   3.343   4.197  10.547  0.3501 -0.1412  0.0689
  104OSM    HO310536   3.424   4.157  10.581  0.7600  0.8362  0.2653
  104OSM    C4S10537   3.308   4.296  10.325 -0.1794 -0.3036  0.0864
  104OSM    H4S10538   3.304   4.398  10.284  1.6327 -0.5356 -0.7797
  104OSM    C5S10539   3.249   4.191  10.262 -0.0670  0.5050 -0.4618
  104OSM    H5S10540   3.241   4.092  10.308  1.6762  0.6879  0.2895
  104OSM    C6S10541   3.173   4.192  10.133 -0.9445  0.1452 -0.2853
  104OSM    H6S10542   3.075   4.142  10.151  0.3028 -2.3245 -0.0280
  104OSM    H6T10543   3.236   4.135  10.062 -2.2986 -1.8469  0.0373
  104OSM    C7S10544   3.164   4.332  10.067 -0.2980  0.7644 -0.5060
  104OSM    H7S10545   3.262   4.383  10.059 -0.9595  2.1085 -0.2648
  104OSM    H7T10546   3.106   4.393  10.139 -0.1033  3.2892 -2.3675
  104OSM    C8S10547   3.107   4.344   9.925 -0.2858  0.3477  0.7517
  104OSM    H8S10548   3.152   4.262   9.866  0.6028  0.0541  1.8097
  104OSM    H8T10549   3.138   4.446   9.892  2.3858 -1.2399 -2.1038
  104OSM    C9S10550   2.949   4.339   9.919  0.0870  0.2825  0.0839
  104OSM    H9S10551   2.914   4.406  10.000  0.2449  0.6144 -0.1192
  104OSM    H9T10552   2.918   4.234   9.935 -0.7977  0.0395 -2.7358
  104OSM   C10S10553   2.878   4.387   9.788  0.0822 -0.4466 -0.6665
  104OSM   H10S10554   2.898   4.494   9.765  1.2862 -0.0352  1.9483
  104OSM   H10T10555   2.768   4.373   9.794  0.0689  0.0654  0.8731
  104OSM   C11S10556   2.936   4.312   9.668 -0.3560  0.6518  0.8812
  104OSM   H11S10557   2.908   4.205   9.657  2.1753  0.1241 -1.4958
  104OSM   H11T10558   3.045   4.301   9.687 -0.7755 -0.9231  2.7332
  104OSM   C12S10559   2.901   4.392   9.546 -0.4505 -1.0824  0.1384
  104OSM   H12S10560   2.938   4.497   9.542 -0.0085 -1.2159  0.7103
  104OSM   H12T10561   2.795   4.395   9.514 -0.3359  1.0452 -0.2086
  104OSM   C13S10562   2.980   4.343   9.424 -0.3023  0.6505  0.2707
  104OSM   H13S10563   2.970   4.235   9.401 -0.9485  0.3858  1.7404
  104OSM   H13T10564   3.088   4.361   9.446  0.0296 -1.7488  0.9281
  104OSM   C14S10565   2.951   4.413   9.289 -0.6750 -0.9883 -0.0917
  104OSM   H14S10566   2.982   4.519   9.302  0.9876 -1.6122  1.5858
  104OSM   H14T10567   2.841   4.401   9.273 -0.6770 -0.5340 -0.4071
  104OSM   C15S10568   3.025   4.359   9.164 -0.6389 -0.1377  0.0358
  104OSM   H15S10569   2.990   4.257   9.137  0.6330 -0.5680 -0.0391
  104OSM   H15T10570   3.131   4.335   9.186 -0.1119  0.9777 -1.1648
  104OSM   C16S10571   3.018   4.454   9.042  0.0110 -0.4917 -0.0918
  104OSM   H16S10572   3.052   4.557   9.065 -1.7312  0.1400 -0.1564
  104OSM   H16T10573   2.909   4.473   9.029 -0.3692 -1.9564  0.7895
  104OSM   C17S10574   3.077   4.379   8.926 -0.0653  0.2299 -0.5567
  104OSM   H17S10575   3.020   4.285   8.912  1.3598 -0.9261  1.0311
  104OSM   H17T10576   3.182   4.348   8.948  0.4222  0.7585 -1.9692
  104OSM   C18S10577   3.088   4.463   8.794 -0.4969 -0.0962 -0.0312
  104OSM   H18S10578   3.136   4.405   8.712 -0.6262  1.9475 -1.6401
  104OSM   H18T10579   3.142   4.559   8.811  0.4359 -0.0075 -2.8152
  104OSM   H18U10580   2.986   4.490   8.758 -0.7376 -0.9285  0.0098
  104OSM    C1F10581   3.688   4.403  10.272  0.1766 -0.0976  0.8535
  104OSM     OF10582   3.779   4.327  10.294 -0.2473 -0.3756  0.2749
  104OSM    C2F10583   3.712   4.530  10.196 -0.5281 -0.4063 -0.2062
  104OSM    H2F10584   3.813   4.554  10.237 -0.2519 -2.1825  0.2441
  104OSM    H2G10585   3.643   4.615  10.213 -2.7945 -2.7399  3.9245
  104OSM    C3F10586   3.710   4.503  10.044 -0.4421 -0.5014  0.1883
  104OSM    H3F10587   3.606   4.476  10.017 -0.2470 -1.0765 -0.0130
  104OSM    H3G10588   3.768   4.408  10.034  1.0511  0.3323  0.5656
  104OSM    C4F10589   3.772   4.607   9.950 -0.3237 -0.0199  0.0145
  104OSM    H4F10590   3.766   4.579   9.843  0.5349 -0.6521  0.1197
  104OSM    H4G10591   3.878   4.622   9.981 -0.1377  0.1317 -0.6773
  104OSM    C5F10592   3.700   4.742   9.964  0.8309  0.2332 -0.7833
  104OSM    H5F10593   3.705   4.777  10.069 -2.3092 -3.1295  0.7410
  104OSM    H5G10594   3.590   4.731   9.952  0.8691 -0.7839 -0.2455
  104OSM    C6F10595   3.740   4.847   9.865 -0.4464 -0.7782  0.5142
  104OSM    H6F10596   3.849   4.847   9.847 -0.4754 -0.5977  0.3272
  104OSM    H6G10597   3.720   4.945   9.913 -1.6273 -1.4292  1.3997
  104OSM    C7F10598   3.662   4.845   9.734  0.1204 -0.5140  0.5810
  104OSM    H7F10599   3.555   4.864   9.756  0.7015  2.9230  0.9514
  104OSM    H7G10600   3.669   4.747   9.681  3.6953  0.3801 -0.9360
  104OSM    C8F10601   3.723   4.948   9.630 -0.4465 -0.0093 -0.0931
  104OSM    H8F10602   3.823   4.907   9.605 -1.1138 -1.8653  0.1409
  104OSM    H8G10603   3.725   5.046   9.683 -0.0237 -0.1424  0.1447
  104OSM    C9F10604   3.634   4.966   9.509  0.0188  0.5324  0.1027
  104OSM    H9F10605   3.547   5.028   9.536 -0.2663 -0.4168  1.4697
  104OSM   C10F10606   3.638   4.918   9.389 -0.3987  0.1136  0.5115
  104OSM   H10F10607   3.561   4.956   9.320 -0.6737 -1.8040 -0.2770
  104OSM   C11F10608   3.745   4.828   9.342  0.2270  0.5041 -0.2862
  104OSM   H11F10609   3.694   4.735   9.308  1.3709  0.1486 -1.0842
  104OSM   H11G10610   3.805   4.798   9.431  0.6471 -1.8476 -1.2895
  104OSM   C12F10611   3.838   4.878   9.233  0.4399 -0.1838 -0.0458
  104OSM   H12F10612   3.925   4.809   9.237  2.0382  1.7749  0.7115
  104OSM   H12G10613   3.875   4.978   9.265 -0.8054 -0.0566  1.0713
  104OSM   C13F10614   3.780   4.866   9.087  0.8314  0.4370 -0.6729
  104OSM   H13F10615   3.690   4.930   9.095  0.0252 -0.6188 -1.0041
  104OSM   H13G10616   3.754   4.759   9.069 -2.6285  0.5280  2.5246
  104OSM   C14F10617   3.865   4.914   8.973 -0.8567  0.0694  0.1380
  104OSM   H14F10618   3.800   4.914   8.883 -1.5738 -4.5526  0.3956
  104OSM   H14G10619   3.939   4.832   8.966  0.7356  1.5638 -1.5267
  104OSM   C15F10620   3.915   5.061   8.976 -0.0976 -0.1304 -0.2381
  104OSM   H15F10621   3.949   5.093   8.875 -0.8571  0.1841 -0.4029
  104OSM   H15G10622   3.999   5.075   9.047 -1.5685 -0.9653  1.7582
  104OSM   C16F10623   3.807   5.161   9.024 -0.1972 -0.0885 -1.0627
  104OSM   H16F10624   3.787   5.146   9.133  0.4555 -0.8452 -1.0364
  104OSM   H16G10625   3.711   5.153   8.969  0.6024 -1.5896 -2.3012
  104OSM   C17F10626   3.852   5.305   8.995  0.3802  1.0243 -0.2884
  104OSM   H17F10627   3.864   5.331   8.887  2.2134  0.1464 -0.3293
  104OSM   H17G10628   3.952   5.316   9.043 -1.1366 -0.7650  3.6189
  104OSM   C18F10629   3.748   5.402   9.055 -0.3224  0.4826  0.5797
  104OSM   H18F10630   3.655   5.393   8.994  0.4478 -1.6715 -0.3829
  104OSM   H18G10631   3.772   5.510   9.048  0.1254  0.2863 -2.0107
  104OSM   H18H10632   3.724   5.376   9.160  0.5937 -2.5149  0.1255
  105OSM      N10633   6.408   3.523  11.070 -0.1451  0.0676 -0.4760
  105OSM    C1510634   6.356   3.528  11.215 -0.7260  0.6866  0.1620
  105OSM   H15A10635   6.331   3.429  11.251  2.9233 -1.0752 -1.5967
  105OSM   H15B10636   6.269   3.589  11.232  0.2010  1.7632  1.2414
  105OSM   H15C10637   6.440   3.558  11.276  0.1724  0.9054 -1.1459
  105OSM    C1410638   6.516   3.427  11.064 -0.1435  0.0145  0.0468
  105OSM   H14A10639   6.589   3.445  11.142  0.2514 -1.7107  0.1091
  105OSM   H14B10640   6.574   3.451  10.976  2.8381 -2.0239  1.2901
  105OSM   H14C10641   6.483   3.325  11.061 -1.3840  0.3738  0.6807
  105OSM    C1310642   6.286   3.463  10.992 -0.6208  0.0819  0.4199
  105OSM   H13A10643   6.245   3.381  11.048  1.7547 -0.0639  2.1187
  105OSM   H13B10644   6.319   3.421  10.898 -0.1708  1.2237  0.0405
  105OSM   H13C10645   6.210   3.539  10.985 -0.0337  0.6478  0.0770
  105OSM    C1210646   6.424   3.666  11.020 -0.5338  0.3822 -0.0464
  105OSM   H12A10647   6.475   3.726  11.093 -0.8042 -0.3572  0.7706
  105OSM   H12B10648   6.326   3.710  11.007  0.1997  2.1548  0.1637
  105OSM    C1110649   6.495   3.689  10.886 -0.7485 -0.1489  0.5947
  105OSM   H11A10650   6.459   3.789  10.853 -1.2982 -0.4281  0.3279
  105OSM   H11B10651   6.444   3.621  10.814 -3.8418  1.8790  0.6548
  105OSM      P10652   6.736   3.779  10.921 -0.7460 -0.0762  0.0249
  105OSM    O1310653   6.717   3.830  11.062 -0.0187  0.5260  0.2481
  105OSM    O1410654   6.873   3.740  10.882  0.6572 -0.3818 -0.2300
  105OSM    O1110655   6.682   3.890  10.821  0.3935 -0.4557  0.0768
  105OSM    O1210656   6.635   3.656  10.887  0.0412 -0.0124 -0.2614
  105OSM    C1S10657   6.677   3.850  10.678 -0.3208  0.0358  0.2752
  105OSM    H1S10658   6.617   3.761  10.649  0.3227  0.0771 -1.3371
  105OSM    H1T10659   6.779   3.830  10.637 -0.7224 -0.8367 -0.3427
  105OSM     NF10660   6.594   3.934  10.448  0.1407 -0.0097 -0.0412
  105OSM    HNF10661   6.656   3.961  10.375  1.3836  2.5022  1.7721
  105OSM    C2S10662   6.617   3.970  10.593 -0.1211 -0.3855 -0.1043
  105OSM    H2S10663   6.521   4.001  10.638  0.8439 -0.9847  2.5255
  105OSM    C3S10664   6.723   4.092  10.611  0.1446  0.7216  0.4213
  105OSM    H3S10665   6.822   4.045  10.595 -0.4690  0.2100 -2.2856
  105OSM     O310666   6.720   4.155  10.741  0.1436 -0.2055  0.8171
  105OSM    HO310667   6.657   4.106  10.794  0.0889 -0.9797  0.0530
  105OSM    C4S10668   6.696   4.210  10.519  0.0034  0.6927 -0.2779
  105OSM    H4S10669   6.588   4.232  10.519 -0.5581 -1.7609  0.6569
  105OSM    C5S10670   6.787   4.270  10.442 -0.4518 -0.0082 -0.1735
  105OSM    H5S10671   6.890   4.231  10.436 -0.9614 -1.5135  0.6073
  105OSM    C6S10672   6.764   4.376  10.341 -0.3024  0.7054 -0.0349
  105OSM    H6S10673   6.692   4.457  10.364 -0.0354  0.3998  2.0685
  105OSM    H6T10674   6.723   4.326  10.251  0.6325  0.4484 -0.3344
  105OSM    C7S10675   6.894   4.445  10.288 -0.6403  0.0693  0.0317
  105OSM    H7S10676   6.961   4.361  10.260 -1.3417 -0.5592  0.2097
  105OSM    H7T10677   6.941   4.501  10.372 -0.0185  1.2650 -1.0825
  105OSM    C8S10678   6.878   4.547  10.176 -0.0440 -0.2550  0.9748
  105OSM    H8S10679   6.967   4.612  10.160 -0.3129 -0.2814 -0.9096
  105OSM    H8T10680   6.792   4.613  10.200  0.4103  0.6025  0.3412
  105OSM    C9S10681   6.832   4.474  10.042 -0.4413  0.2915 -0.4486
  105OSM    H9S10682   6.733   4.423  10.044 -0.5416  0.4086 -1.6477
  105OSM    H9T10683   6.903   4.397  10.004  0.0715  0.0597  0.9274
  105OSM   C10S10684   6.810   4.583   9.932  0.0281  0.0470  0.0984
  105OSM   H10S10685   6.891   4.658   9.943  0.2902 -0.5131  2.4364
  105OSM   H10T10686   6.720   4.645   9.951 -0.2336 -0.4295  0.4259
  105OSM   C11S10687   6.803   4.516   9.791 -0.2177  0.8182 -0.1760
  105OSM   H11S10688   6.715   4.448   9.790 -0.5049  1.1613  0.6340
  105OSM   H11T10689   6.881   4.441   9.771  0.3942  1.6638 -1.0744
  105OSM   C12S10690   6.796   4.628   9.684  0.0257  0.4704 -0.3039
  105OSM   H12S10691   6.859   4.711   9.723 -1.1599  0.1377  2.5685
  105OSM   H12T10692   6.692   4.663   9.697  0.7817  3.1850 -0.8708
  105OSM   C13S10693   6.835   4.591   9.538 -0.2031 -0.3780 -0.3235
  105OSM   H13S10694   6.779   4.500   9.507 -0.1944 -0.4094 -0.2478
  105OSM   H13T10695   6.940   4.556   9.539  1.3715  3.5636  2.6848
  105OSM   C14S10696   6.798   4.693   9.429  0.3053  0.7431 -0.6856
  105OSM   H14S10697   6.825   4.789   9.477  0.5047 -0.1571  1.0709
  105OSM   H14T10698   6.688   4.697   9.415 -0.1690  0.9974  2.3869
  105OSM   C15S10699   6.877   4.673   9.299 -0.1510  0.3327 -0.1376
  105OSM   H15S10700   6.985   4.685   9.324 -0.1690 -0.5480  0.4115
  105OSM   H15T10701   6.842   4.762   9.243  0.2268 -0.5727 -1.9168
  105OSM   C16S10702   6.866   4.553   9.213 -0.1212 -0.5442 -0.0111
  105OSM   H16S10703   6.759   4.539   9.185 -0.3762  1.5218 -0.1975
  105OSM   H16T10704   6.896   4.471   9.282 -2.7821  1.2542  3.6358
  105OSM   C17S10705   6.947   4.564   9.080  0.3713 -0.3491 -0.5518
  105OSM   H17S10706   6.930   4.662   9.031  3.7786  0.6540 -0.0134
  105OSM   H17T10707   6.896   4.493   9.012 -2.4934  1.3939 -0.3670
  105OSM   C18S10708   7.098   4.533   9.117 -0.1247  0.1210  0.9181
  105OSM   H18S10709   7.168   4.569   9.039  1.0779 -1.2732  1.2993
  105OSM   H18T10710   7.107   4.423   9.133  1.1152  0.3738  2.1240
  105OSM   H18U10711   7.126   4.577   9.214  1.3184 -0.5696  0.8467
  105OSM    C1F10712   6.503   3.840  10.424  0.6246  0.7682  0.5494
  105OSM     OF10713   6.429   3.805  10.509 -0.5910  0.2550 -0.2554
  105OSM    C2F10714   6.492   3.803  10.278 -0.1197  0.1860 -0.2694
  105OSM    H2F10715   6.580   3.739  10.256 -0.8258 -1.1651  0.6897
  105OSM    H2G10716   6.497   3.899  10.221 -0.3233  0.2986 -0.0977
  105OSM    C3F10717   6.368   3.719  10.233  0.4202 -0.2495 -0.0849
  105OSM    H3F10718   6.282   3.782  10.265  1.1650  1.0001 -0.4824
  105OSM    H3G10719   6.359   3.618  10.278  0.7144 -0.5878 -0.7653
  105OSM    C4F10720   6.357   3.688  10.080  0.4830 -0.3832 -0.6455
  105OSM    H4F10721   6.267   3.626  10.062  0.4523 -0.3398 -0.6438
  105OSM    H4G10722   6.438   3.623  10.041  0.6416  0.4481 -1.7373
  105OSM    C5F10723   6.343   3.795   9.976  0.1461 -0.3064 -0.5003
  105OSM    H5F10724   6.421   3.871   9.997 -1.8215  1.5176  0.6026
  105OSM    H5G10725   6.244   3.844   9.983 -0.6908 -1.9862  0.1098
  105OSM    C6F10726   6.368   3.740   9.836  0.6864  0.6203 -0.2722
  105OSM    H6F10727   6.297   3.657   9.820  1.3427  0.2457 -1.3746
  105OSM    H6G10728   6.467   3.690   9.840 -0.2428 -1.2805  3.3024
  105OSM    C7F10729   6.378   3.859   9.744 -0.2141 -0.3530  0.1654
  105OSM    H7F10730   6.448   3.938   9.778 -1.0406  1.0822 -1.2996
  105OSM    H7G10731   6.281   3.911   9.758  1.4458  3.0271  0.3244
  105OSM    C8F10732   6.408   3.803   9.594 -0.0314  0.4398  0.4285
  105OSM    H8F10733   6.319   3.748   9.558  1.2029 -0.6356 -1.1434
  105OSM    H8G10734   6.488   3.730   9.620 -0.4843  0.0745  0.8033
  105OSM    C9F10735   6.470   3.915   9.508  0.7515 -0.7737 -0.2017
  105OSM    H9F10736   6.526   3.996   9.559 -0.3973 -1.2064  1.8705
  105OSM   C10F10737   6.465   3.923   9.373  0.7317  0.2989  0.1978
  105OSM   H10F10738   6.525   3.994   9.315  0.3838  1.6952  1.4761
  105OSM   C11F10739   6.377   3.820   9.292 -0.0834  0.2929  0.3973
  105OSM   H11F10740   6.364   3.856   9.187 -0.2561 -3.4241 -0.9962
  105OSM   H11G10741   6.271   3.822   9.323 -0.3954  0.3654 -0.6418
  105OSM   C12F10742   6.415   3.677   9.272 -0.7091  0.5465 -0.3110
  105OSM   H12F10743   6.351   3.606   9.215  0.6479 -2.2481  1.4459
  105OSM   H12G10744   6.415   3.644   9.378 -1.1614  1.0537 -0.1532
  105OSM   C13F10745   6.553   3.658   9.217  0.2321  0.4395  0.3717
  105OSM   H13F10746   6.565   3.548   9.215  1.5408  0.5571 -1.9501
  105OSM   H13G10747   6.628   3.707   9.283  2.3274 -1.5983 -0.3661
  105OSM   C14F10748   6.570   3.701   9.071 -0.1676 -0.7326  0.0299
  105OSM   H14F10749   6.540   3.808   9.061  2.0642 -0.0904 -0.3717
  105OSM   H14G10750   6.500   3.644   9.006 -1.6174  2.3858 -1.3548
  105OSM   C15F10751   6.710   3.691   9.013  0.2093  0.5950  0.2463
  105OSM   H15F10752   6.751   3.588   9.020  2.6715  1.2651 -2.2053
  105OSM   H15G10753   6.779   3.750   9.077  0.0554 -0.4388  1.3966
  105OSM   C16F10754   6.731   3.745   8.864 -0.4023 -0.5059 -1.1158
  105OSM   H16F10755   6.697   3.850   8.852 -0.2499 -0.3433 -0.1706
  105OSM   H16G10756   6.666   3.686   8.796 -1.7927 -0.5257  0.1635
  105OSM   C17F10757   6.881   3.738   8.830  0.2443 -0.0591 -0.4429
  105OSM   H17F10758   6.915   3.638   8.866  1.6832  0.9374  1.1617
  105OSM   H17G10759   6.938   3.807   8.897 -0.4780 -0.2423  0.3935
  105OSM   C18F10760   6.917   3.771   8.692 -0.2422 -0.9430  0.6403
  105OSM   H18F10761   6.897   3.683   8.626 -0.1621 -1.7457  1.6696
  105OSM   H18G10762   7.024   3.798   8.680 -0.3701 -0.3906  0.7459
  105OSM   H18H10763   6.867   3.860   8.649  3.7389  0.3683 -1.9068
  106OSM      N10764   0.171   3.393  10.962  0.1000 -0.7497  0.7502
  106OSM    C1510765   0.299   3.463  10.928  0.4596 -0.0164 -0.0752
  106OSM   H15A10766   0.375   3.450  11.003  0.4546  0.0937 -0.0504
  106OSM   H15B10767   0.291   3.570  10.914 -0.4423 -0.2139 -1.2718
  106OSM   H15C10768   0.350   3.431  10.839  0.1643 -0.1040 -0.2143
  106OSM    C1410769   0.116   3.457  11.089 -0.4924  0.1419 -0.8951
  106OSM   H14A10770   0.025   3.409  11.122  1.4758 -2.5329  1.0616
  106OSM   H14B10771   0.094   3.562  11.081 -1.8307 -0.1967 -2.3281
  106OSM   H14C10772   0.187   3.446  11.169 -1.9393  1.1372  0.5882
  106OSM    C1310773   0.081   3.411  10.848  0.4178 -0.0049  0.3277
  106OSM   H13A10774  -0.005   3.345  10.853  1.1978 -1.0190  0.7724
  106OSM   H13B10775   0.120   3.391  10.749 -2.1171 -1.2759 -0.5053
  106OSM   H13C10776   0.043   3.512  10.846 -1.2442 -0.5660 -2.1429
  106OSM    C1210777   0.193   3.248  10.989  0.3015  0.4329  0.1336
  106OSM   H12A10778   0.260   3.242  11.074  1.0092 -0.4566 -0.4706
  106OSM   H12B10779   0.238   3.208  10.899 -2.4631  0.5008 -1.3979
  106OSM    C1110780   0.068   3.163  11.013 -0.9643 -0.0121  0.1259
  106OSM   H11A10781   0.019   3.149  10.914 -2.1657  1.5633  0.4545
  106OSM   H11B10782   0.014   3.228  11.084 -0.5853 -0.0367  0.4351
  106OSM      P10783   0.177   2.926  10.998  0.0919  0.3208 -0.0190
  106OSM    O1310784   0.306   2.912  11.081 -0.0155 -0.1140  0.2427
  106OSM    O1410785   0.103   2.797  10.975 -0.1711  0.2392  0.2741
  106OSM    O1110786   0.204   2.998  10.855  0.0344 -1.4312  0.2367
  106OSM    O1210787   0.088   3.033  11.067  0.1998  0.2779  0.1707
  106OSM    C1S10788   0.320   2.951  10.785  0.2077 -0.0331 -0.1884
  106OSM    H1S10789   0.310   2.841  10.777  0.9805 -0.2384  1.3014
  106OSM    H1T10790   0.411   2.973  10.845  0.8355 -1.4110 -0.6032
  106OSM     NF10791   0.451   2.947  10.582  0.4365  0.7764  0.0296
  106OSM    HNF10792   0.539   2.993  10.589  0.1040  1.4585 -0.2447
  106OSM    C2S10793   0.335   3.013  10.641  0.1278  0.5362 -0.5540
  106OSM    H2S10794   0.253   2.973  10.578  0.6675  0.5342 -1.2661
  106OSM    C3S10795   0.331   3.168  10.646 -0.1472 -0.1981 -0.8045
  106OSM    H3S10796   0.378   3.206  10.739 -0.4176 -0.1052 -0.7041
  106OSM     O310797   0.200   3.219  10.647 -0.1633 -0.1515  0.0563
  106OSM    HO310798   0.157   3.148  10.695  1.9729  0.6672  3.5040
  106OSM    C4S10799   0.407   3.218  10.517  0.5505  0.7188  0.3431
  106OSM    H4S10800   0.516   3.216  10.526  0.5153 -0.8214  0.8137
  106OSM    C5S10801   0.356   3.260  10.406  0.0267 -0.1540  0.1466
  106OSM    H5S10802   0.246   3.255  10.401 -0.1885  2.0552  1.1416
  106OSM    C6S10803   0.423   3.309  10.278 -0.4960  0.1267 -0.5438
  106OSM    H6S10804   0.533   3.315  10.284 -0.4431 -0.8432 -0.3899
  106OSM    H6T10805   0.389   3.414  10.263  3.3766  1.5914 -0.0847
  106OSM    C7S10806   0.385   3.230  10.148  0.3263  0.5081  0.3813
  106OSM    H7S10807   0.284   3.262  10.114  0.0479 -1.3567 -0.6993
  106OSM    H7T10808   0.373   3.123  10.174 -1.8003  0.7734  0.6393
  106OSM    C8S10809   0.490   3.251  10.041  0.7200  0.2076 -0.5457
  106OSM    H8S10810   0.594   3.243  10.081 -0.4782 -0.7728  2.7658
  106OSM    H8T10811   0.472   3.358  10.018 -1.7037  0.7095  2.8376
  106OSM    C9S10812   0.470   3.177   9.910 -0.1936 -0.1118 -0.3667
  106OSM    H9S10813   0.365   3.187   9.876 -0.2393  1.5542  0.2041
  106OSM    H9T10814   0.478   3.068   9.930  1.2489  0.0610  0.0872
  106OSM   C10S10815   0.554   3.219   9.795 -0.2379  0.2244  0.3904
  106OSM   H10S10816   0.662   3.226   9.819  0.5252  0.0823 -2.5766
  106OSM   H10T10817   0.536   3.328   9.779  2.1195  0.9313  2.0279
  106OSM   C11S10818   0.534   3.141   9.664 -0.1497  1.0171 -0.5814
  106OSM   H11S10819   0.425   3.125   9.650  0.0732 -2.5161  0.6298
  106OSM   H11T10820   0.576   3.040   9.682 -0.6782  1.0608  1.0641
  106OSM   C12S10821   0.601   3.212   9.543 -0.0760 -0.2981 -0.0665
  106OSM   H12S10822   0.703   3.170   9.531  0.3223  0.4139  0.7490
  106OSM   H12T10823   0.622   3.320   9.553 -1.2135  0.0677 -1.3549
  106OSM   C13S10824   0.528   3.205   9.394  0.2809 -0.0003 -0.4404
  106OSM   H13S10825   0.573   3.283   9.328  0.7182 -0.6705 -0.9587
  106OSM   H13T10826   0.433   3.249   9.430  0.3063 -0.4553  0.1963
  106OSM   C14S10827   0.511   3.063   9.337  0.2098  0.1772 -0.9361
  106OSM   H14S10828   0.422   3.009   9.376  1.0359  0.7029  1.8816
  106OSM   H14T10829   0.605   3.010   9.366 -0.5167 -2.5039 -3.0234
  106OSM   C15S10830   0.512   3.049   9.182 -0.4792 -0.4824  0.1634
  106OSM   H15S10831   0.533   2.948   9.143 -1.2393 -0.3062 -0.7440
  106OSM   H15T10832   0.592   3.117   9.144  1.0334 -1.8584  0.7563
  106OSM   C16S10833   0.384   3.103   9.126  0.0814  0.2621  0.3241
  106OSM   H16S10834   0.367   3.208   9.159  0.8059 -0.3547  2.9541
  106OSM   H16T10835   0.306   3.028   9.150  0.5334 -0.4764 -0.4462
  106OSM   C17S10836   0.404   3.113   8.970  0.0725  0.2471 -0.4799
  106OSM   H17S10837   0.440   3.012   8.940 -1.1844  0.3887 -2.6495
  106OSM   H17T10838   0.484   3.183   8.935 -0.1934  0.7358 -0.1145
  106OSM   C18S10839   0.269   3.133   8.905 -0.0150 -0.4721 -0.1401
  106OSM   H18S10840   0.225   3.231   8.933  0.0615 -0.2637 -0.7240
  106OSM   H18T10841   0.196   3.056   8.938  0.4877 -2.5922 -3.5141
  106OSM   H18U10842   0.265   3.135   8.794 -3.5469  0.3418 -0.1441
  106OSM    C1F10843   0.442   2.826  10.525 -0.5770  0.4623 -0.2450
  106OSM     OF10844   0.333   2.765  10.537 -0.6231 -0.2380 -0.0043
  106OSM    C2F10845   0.569   2.770  10.462  0.2625 -0.2143  0.0684
  106OSM    H2F10846   0.565   2.659  10.466  2.6411 -0.3901 -0.7731
  106OSM    H2G10847   0.652   2.800  10.530  0.7643 -2.4034  0.4947
  106OSM    C3F10848   0.587   2.832  10.319  0.0270  0.1133  0.0580
  106OSM    H3F10849   0.696   2.834  10.299 -0.3206  0.6750 -1.9895
  106OSM    H3G10850   0.563   2.941  10.318 -0.4583  0.0418  1.4614
  106OSM    C4F10851   0.519   2.763  10.202  0.2991  0.0846  0.2363
  106OSM    H4F10852   0.419   2.810  10.193 -0.1836 -0.9074  0.2238
  106OSM    H4G10853   0.504   2.659  10.239  0.7561 -0.0924 -0.0726
  106OSM    C5F10854   0.585   2.777  10.064 -0.1916 -0.7167  0.2331
  106OSM    H5F10855   0.687   2.732  10.059  1.3854  2.7083 -1.5604
  106OSM    H5G10856   0.605   2.885  10.048  0.6218 -0.2859  3.3782
  106OSM    C6F10857   0.505   2.744   9.939  0.5120 -0.7419  0.0818
  106OSM    H6F10858   0.422   2.817   9.933  1.4027  0.7498  3.3642
  106OSM    H6G10859   0.451   2.647   9.930 -0.7473  0.0458 -1.5012
  106OSM    C7F10860   0.573   2.749   9.807  0.5774  0.8833  0.2376
  106OSM    H7F10861   0.648   2.668   9.792 -0.4406 -0.4610  1.9532
  106OSM    H7G10862   0.621   2.849   9.795 -2.4154  2.1241 -3.0270
  106OSM    C8F10863   0.473   2.753   9.684 -0.2910  0.5940 -0.1754
  106OSM    H8F10864   0.424   2.853   9.692  0.1882  0.8126  0.0807
  106OSM    H8G10865   0.406   2.666   9.693  1.5486 -0.8776 -0.0287
  106OSM    C9F10866   0.553   2.763   9.557  0.2229  1.0177 -0.5058
  106OSM    H9F10867   0.646   2.822   9.553  0.8409  0.0349 -1.1485
  106OSM   C10F10868   0.519   2.710   9.443  0.1492  0.1530 -0.0199
  106OSM   H10F10869   0.592   2.725   9.362  1.7599 -2.1157  0.9265
  106OSM   C11F10870   0.395   2.627   9.411  0.1403  0.5335 -0.0835
  106OSM   H11F10871   0.325   2.643   9.495  2.7836 -0.6808  2.5255
  106OSM   H11G10872   0.423   2.519   9.409  0.7022  0.6793 -1.9966
  106OSM   C12F10873   0.322   2.653   9.280 -0.0498 -0.5167  0.4069
  106OSM   H12F10874   0.280   2.756   9.277 -0.3089 -0.6196  0.4588
  106OSM   H12G10875   0.229   2.593   9.266  0.7450 -1.6248 -0.2712
  106OSM   C13F10876   0.412   2.630   9.159 -0.9926  0.0231  0.0960
  106OSM   H13F10877   0.476   2.540   9.174  0.5133  1.1627  0.8555
  106OSM   H13G10878   0.489   2.709   9.169 -0.4777 -0.5920  1.2192
  106OSM   C14F10879   0.341   2.637   9.023 -0.2277  0.2816  0.7635
  106OSM   H14F10880   0.314   2.744   9.016  1.0003  0.9156  3.8269
  106OSM   H14G10881   0.249   2.575   9.012 -0.1955  0.3989 -0.2622
  106OSM   C15F10882   0.429   2.609   8.902  0.4777  0.4172  0.2476
  106OSM   H15F10883   0.372   2.612   8.806  1.0663 -2.4598 -0.2635
  106OSM   H15G10884   0.455   2.502   8.909 -2.9788 -0.6371 -0.7952
  106OSM   C16F10885   0.554   2.695   8.902 -0.6320  0.1526 -0.3551
  106OSM   H16F10886   0.633   2.666   8.974 -0.3701 -1.6428 -1.2950
  106OSM   H16G10887   0.538   2.792   8.952  1.6656  0.3437  0.1505
  106OSM   C17F10888   0.613   2.713   8.759 -0.8410 -0.2651 -0.7433
  106OSM   H17F10889   0.698   2.783   8.770 -0.6682 -0.8990  3.0084
  106OSM   H17G10890   0.540   2.779   8.706 -1.8306  0.0996  0.9854
  106OSM   C18F10891   0.656   2.598   8.673 -0.3006  0.4679 -0.3132
  106OSM   H18F10892   0.706   2.526   8.741 -1.0550 -0.6402 -0.9012
  106OSM   H18G10893   0.717   2.626   8.584  1.9020 -3.9971 -0.4950
  106OSM   H18H10894   0.574   2.539   8.626  0.5417 -0.3155 -0.8340
  107OSM      N10895   3.255   5.811  11.148  0.1656 -0.0736 -0.1126
  107OSM    C1510896   3.188   5.700  11.225  0.8142 -0.7427 -0.5765
  107OSM   H15A10897   3.113   5.735  11.294 -0.9193 -1.7986 -1.8279
  107OSM   H15B10898   3.256   5.645  11.288 -0.8783 -2.0649  0.1724
  107OSM   H15C10899   3.150   5.630  11.152 -2.6154 -0.7209  0.9980
  107OSM    C1410900   3.150   5.907  11.090 -0.6237 -0.9055  0.3882
  107OSM   H14A10901   3.078   5.852  11.031 -2.3337  1.0637  0.5233
  107OSM   H14B10902   3.194   5.990  11.038 -0.0185 -1.6410 -0.2901
  107OSM   H14C10903   3.086   5.943  11.170  0.5772  0.5686  0.7322
  107OSM    C1310904   3.341   5.889  11.248  0.0629 -0.2228  0.0703
  107OSM   H13A10905   3.400   5.963  11.195 -0.3214 -1.1868 -1.7912
  107OSM   H13B10906   3.405   5.820  11.300 -0.8004 -1.4606 -0.4620
  107OSM   H13C10907   3.271   5.941  11.311 -1.3067  1.5098 -2.6529
  107OSM    C1210908   3.339   5.759  11.041  0.2044  0.2409  0.2827
  107OSM   H12A10909   3.387   5.670  11.078  0.4151 -0.0438 -0.6461
  107OSM   H12B10910   3.415   5.827  11.006 -0.0994  0.3013 -0.2662
  107OSM    C1110911   3.280   5.702  10.912 -0.7777  0.2743  0.2563
  107OSM   H11A10912   3.350   5.669  10.833 -1.9450 -3.0305  0.4349
  107OSM   H11B10913   3.234   5.787  10.858  2.7711  0.4522 -2.9196
  107OSM      P10914   3.246   5.449  10.931  0.4024  0.0198  0.3885
  107OSM    O1310915   3.370   5.446  11.003 -0.8482 -1.0213  0.2881
  107OSM    O1410916   3.148   5.354  10.984 -0.1525 -0.4120 -0.3240
  107OSM    O1110917   3.264   5.410  10.773 -0.2390 -0.6126  0.0910
  107OSM    O1210918   3.188   5.599  10.934  0.6933  0.3476 -0.0303
  107OSM    C1S10919   3.170   5.463  10.673 -0.3659 -0.1518 -0.7554
  107OSM    H1S10920   3.152   5.570  10.697 -1.0576 -0.5566  0.6700
  107OSM    H1T10921   3.076   5.404  10.679 -0.1576 -0.5312 -1.1446
  107OSM     NF10922   3.115   5.495  10.445  0.1253  0.5296 -0.1570
  107OSM    HNF10923   3.051   5.437  10.396  0.4199  0.1457 -0.0843
  107OSM    C2S10924   3.219   5.452  10.528 -0.1961 -0.3694  0.3856
  107OSM    H2S10925   3.316   5.505  10.514 -1.7156  2.8589  1.2622
  107OSM    C3S10926   3.250   5.302  10.497 -0.4762 -0.2129 -0.7422
  107OSM    H3S10927   3.152   5.250  10.490  0.0793 -1.4689  0.2310
  107OSM     O310928   3.310   5.231  10.607  0.5145 -0.2280 -0.2486
  107OSM    HO310929   3.291   5.292  10.678 -2.6392  0.6485 -1.6521
  107OSM    C4S10930   3.333   5.277  10.372  0.4960 -0.4703 -0.4290
  107OSM    H4S10931   3.423   5.338  10.358 -1.3830  2.8839  0.9038
  107OSM    C5S10932   3.307   5.181  10.290  0.9695 -0.8391  0.9765
  107OSM    H5S10933   3.217   5.119  10.307 -0.8863  1.4122 -0.0452
  107OSM    C6S10934   3.372   5.156  10.159 -0.0735 -0.1019 -0.0077
  107OSM    H6S10935   3.329   5.061  10.121 -2.1764  0.9626 -0.4717
  107OSM    H6T10936   3.482   5.147  10.171 -0.2980 -0.1031  2.5246
  107OSM    C7S10937   3.349   5.263  10.045 -0.2494 -1.0774  0.2453
  107OSM    H7S10938   3.386   5.361  10.081 -4.6681  0.4168  1.2665
  107OSM    H7T10939   3.240   5.277  10.037 -0.2050 -1.7349 -2.1016
  107OSM    C8S10940   3.393   5.226   9.907 -0.0320 -0.3136 -0.2987
  107OSM    H8S10941   3.356   5.121   9.900 -1.2214 -0.0309  1.3524
  107OSM    H8T10942   3.503   5.214   9.901 -0.2134 -2.4735 -0.2922
  107OSM    C9S10943   3.349   5.321   9.794 -0.1046 -0.1631 -0.8128
  107OSM    H9S10944   3.405   5.416   9.810 -0.9620  0.1388  0.5761
  107OSM    H9T10945   3.241   5.341   9.809 -0.1905 -1.4167  0.4178
  107OSM   C10S10946   3.370   5.261   9.655 -0.2603  0.1902 -0.8643
  107OSM   H10S10947   3.304   5.173   9.639  0.3433 -0.9557  2.2009
  107OSM   H10T10948   3.471   5.215   9.661 -0.3409 -0.1328 -1.8149
  107OSM   C11S10949   3.355   5.362   9.542 -0.9793 -0.5920  0.2558
  107OSM   H11S10950   3.432   5.441   9.545 -1.3598 -0.2239  0.4667
  107OSM   H11T10951   3.260   5.419   9.558  0.8010  1.8902  3.1370
  107OSM   C12S10952   3.366   5.302   9.395 -0.2654 -0.0561 -0.1215
  107OSM   H12S10953   3.307   5.210   9.377  2.1535 -1.8574  0.5285
  107OSM   H12T10954   3.469   5.267   9.374 -0.3124 -1.7309  2.0172
  107OSM   C13S10955   3.336   5.400   9.279 -0.5364  0.5912  0.5911
  107OSM   H13S10956   3.399   5.492   9.278 -2.4051  1.9367 -0.3142
  107OSM   H13T10957   3.233   5.435   9.300 -1.0536  0.3918 -1.4157
  107OSM   C14S10958   3.342   5.329   9.138  0.4622  0.1368 -0.2234
  107OSM   H14S10959   3.273   5.242   9.138  0.1635  0.2929  2.2375
  107OSM   H14T10960   3.446   5.291   9.123  0.0910 -0.7993 -0.4950
  107OSM   C15S10961   3.287   5.429   9.037 -0.5643  0.6738  0.2107
  107OSM   H15S10962   3.372   5.501   9.036 -0.6892  1.0307 -4.3861
  107OSM   H15T10963   3.192   5.477   9.069 -0.8478  1.7237 -2.0477
  107OSM   C16S10964   3.269   5.361   8.902  0.4582 -0.2926 -0.0435
  107OSM   H16S10965   3.224   5.432   8.829 -0.6937 -0.4568  0.4764
  107OSM   H16T10966   3.196   5.277   8.907  0.3659 -0.2103  0.0006
  107OSM   C17S10967   3.396   5.321   8.825 -0.2678  0.1707  0.7188
  107OSM   H17S10968   3.440   5.226   8.864 -1.0086 -0.8800 -0.8931
  107OSM   H17T10969   3.479   5.395   8.833 -0.3795  0.6408 -1.6315
  107OSM   C18S10970   3.369   5.297   8.676 -0.3301  0.0351  0.4585
  107OSM   H18S10971   3.302   5.212   8.652  2.1981 -1.8807 -0.1842
  107OSM   H18T10972   3.464   5.279   8.622 -1.2825 -0.1666 -1.2250
  107OSM   H18U10973   3.326   5.390   8.633 -0.0058  0.7231  1.5814
  107OSM    C1F10974   3.109   5.626  10.425  0.7076  0.2262  0.0433
  107OSM     OF10975   3.211   5.691  10.448  0.3534  0.6460  0.4230
  107OSM    C2F10976   2.984   5.684  10.370  0.1660  0.0475  0.3207
  107OSM    H2F10977   2.925   5.749  10.438  2.0835  1.3666  0.8051
  107OSM    H2G10978   2.923   5.593  10.351 -0.2444  0.3457  0.1825
  107OSM    C3F10979   3.005   5.770  10.239  0.1464  0.4003  0.2925
  107OSM    H3F10980   3.064   5.713  10.164 -0.2180 -0.7048  0.8229
  107OSM    H3G10981   3.051   5.864  10.276 -1.9239  2.2627 -1.5573
  107OSM    C4F10982   2.872   5.800  10.164 -0.4284 -0.1376  0.0214
  107OSM    H4F10983   2.802   5.823  10.248  2.7209  0.4109  2.6925
  107OSM    H4G10984   2.825   5.727  10.096  0.6329 -1.0070  0.1899
  107OSM    C5F10985   2.881   5.929  10.079 -0.1842  0.7705 -0.3922
  107OSM    H5F10986   2.926   6.007  10.144 -3.2677  1.6975  0.8432
  107OSM    H5G10987   2.776   5.962  10.065 -0.4699  1.4461  2.6292
  107OSM    C6F10988   2.941   5.914   9.937  0.0801 -0.5787 -0.0970
  107OSM    H6F10989   3.037   5.857   9.935  0.9934  0.9416 -0.6619
  107OSM    H6G10990   2.967   6.020   9.919  0.5863 -0.7914 -0.6924
  107OSM    C7F10991   2.840   5.870   9.828 -0.1153  0.7429  0.4333
  107OSM    H7F10992   2.760   5.946   9.818  0.2785  1.0372 -0.6461
  107OSM    H7G10993   2.793   5.783   9.876  0.5282  1.1380  1.8423
  107OSM    C8F10994   2.891   5.846   9.686 -0.5873  0.0704 -0.0998
  107OSM    H8F10995   2.820   5.778   9.633  1.3726 -2.2767  0.0850
  107OSM    H8G10996   2.986   5.789   9.691  0.8313  2.3752  0.5444
  107OSM    C9F10997   2.929   5.967   9.604  0.6331 -0.1510  0.1528
  107OSM    H9F10998   3.008   6.026   9.652  0.3026 -0.7821  1.5298
  107OSM   C10F10999   2.894   6.006   9.479  0.4253 -0.3629 -0.1136
  107OSM   H10F11000   2.938   6.091   9.425 -2.3116  0.9846 -0.3884
  107OSM   C11F11001   2.792   5.931   9.394 -0.0164 -0.1902  0.1709
  107OSM   H11F11002   2.725   6.009   9.352 -2.0876 -2.5427 -1.1206
  107OSM   H11G11003   2.731   5.872   9.465  1.5397 -1.2405  0.6818
  107OSM   C12F11004   2.850   5.855   9.277  0.5049 -0.3781  0.2551
  107OSM   H12F11005   2.881   5.757   9.319 -0.8144 -0.7941  0.2971
  107OSM   H12G11006   2.944   5.905   9.244 -0.5467  0.0175 -2.4095
  107OSM   C13F11007   2.765   5.837   9.147 -0.7301 -0.3124 -0.8619
  107OSM   H13F11008   2.738   5.935   9.104  0.4473  0.3994 -0.0376
  107OSM   H13G11009   2.676   5.777   9.176 -0.9789 -0.7952 -2.5036
  107OSM   C14F11010   2.835   5.750   9.049 -0.1555 -0.7849 -0.0772
  107OSM   H14F11011   2.875   5.663   9.104  3.8193  1.2823  0.7044
  107OSM   H14G11012   2.922   5.811   9.015  0.2790 -1.5475 -0.3546
  107OSM   C15F11013   2.745   5.699   8.934  0.2017 -0.7356  0.8575
  107OSM   H15F11014   2.725   5.779   8.859  1.7074 -2.2757 -1.2994
  107OSM   H15G11015   2.648   5.674   8.981 -1.0690  0.4448 -0.9660
  107OSM   C16F11016   2.809   5.572   8.865  0.8698 -0.3571 -0.2129
  107OSM   H16F11017   2.855   5.506   8.942  0.2762 -2.1975 -1.3864
  107OSM   H16G11018   2.901   5.613   8.819  1.0403  0.3225  0.6945
  107OSM   C17F11019   2.711   5.519   8.760 -0.0201  0.2556 -0.2429
  107OSM   H17F11020   2.664   5.596   8.695 -2.1936  0.3018  1.2594
  107OSM   H17G11021   2.629   5.476   8.823 -0.8136 -0.7343 -1.8809
  107OSM   C18F11022   2.766   5.410   8.672 -0.5333  0.3756  0.0194
  107OSM   H18F11023   2.686   5.350   8.624  1.1610 -4.4321  2.5330
  107OSM   H18G11024   2.812   5.338   8.742 -1.0066 -0.5100 -0.5596
  107OSM   H18H11025   2.846   5.442   8.601  0.5038 -3.2218 -0.6304
  108OSM      N11026   5.302   2.119  10.666  0.5163 -0.2817 -0.1886
  108OSM    C1511027   5.341   2.133  10.812 -0.2797  0.6462  0.1437
  108OSM   H15A11028   5.431   2.191  10.829  0.1694 -0.2030  0.7541
  108OSM   H15B11029   5.372   2.036  10.849  0.8325  1.5873  1.7851
  108OSM   H15C11030   5.257   2.164  10.872 -1.1040  3.4506 -2.2496
  108OSM    C1411031   5.414   2.075  10.583 -0.1524  0.1678 -0.0054
  108OSM   H14A11032   5.386   2.090  10.480  0.7576 -1.0199 -0.4503
  108OSM   H14B11033   5.440   1.972  10.601 -2.7123 -0.5163  0.0645
  108OSM   H14C11034   5.501   2.138  10.601  0.2341 -0.5879  0.8659
  108OSM    C1311035   5.194   2.022  10.652  0.7229  0.2918  0.1832
  108OSM   H13A11036   5.229   1.937  10.710  1.2936  0.5375  0.1994
  108OSM   H13B11037   5.176   1.995  10.549 -0.9729 -0.1238  0.5471
  108OSM   H13C11038   5.099   2.053  10.693  0.4152 -1.6170  1.0718
  108OSM    C1211039   5.251   2.247  10.608 -0.6862 -0.3102  0.2104
  108OSM   H12A11040   5.226   2.229  10.504  2.0303  0.0935 -0.5890
  108OSM   H12B11041   5.337   2.312  10.611 -0.5576 -0.5286  1.9536
  108OSM    C1111042   5.148   2.326  10.684 -0.9931  0.2032 -0.7513
  108OSM   H11A11043   5.143   2.432  10.651  1.2975  1.0859  1.4213
  108OSM   H11B11044   5.184   2.342  10.788 -1.7942  0.2832 -0.4772
  108OSM      P11045   4.882   2.323  10.642 -0.3294 -0.1589  0.2007
  108OSM    O1311046   4.777   2.218  10.656  0.1415  0.0194 -0.8034
  108OSM    O1411047   4.869   2.451  10.713 -0.1324 -0.1858 -0.6045
  108OSM    O1111048   4.907   2.359  10.485 -0.2075  0.1250 -0.3123
  108OSM    O1211049   5.020   2.260  10.687 -0.2002  0.6251  0.1555
  108OSM    C1S11050   4.949   2.257  10.399 -0.4253 -0.4944  0.1507
  108OSM    H1S11051   4.858   2.198  10.376 -0.8320  0.3634 -0.4859
  108OSM    H1T11052   5.034   2.194  10.434  0.1066  0.6141  0.9222
  108OSM     NF11053   4.999   2.214  10.164 -0.3179 -0.0327  0.2223
  108OSM    HNF11054   5.069   2.143  10.171 -0.7933 -0.3595  2.8785
  108OSM    C2S11055   4.996   2.320  10.267 -0.1593  0.2359  0.4553
  108OSM    H2S11056   4.916   2.393  10.242  0.6941  1.3102  0.7581
  108OSM    C3S11057   5.129   2.399  10.287  0.5889  0.2462 -0.2700
  108OSM    H3S11058   5.202   2.322  10.320 -0.1571 -0.9314 -1.2756
  108OSM     O311059   5.106   2.491  10.385  0.2619 -0.2393  0.1161
  108OSM    HO311060   5.018   2.469  10.417  0.4244  0.3195  0.9776
  108OSM    C4S11061   5.187   2.470  10.167  0.2330  0.4869  0.7625
  108OSM    H4S11062   5.134   2.556  10.124  0.4232 -0.7055 -2.0088
  108OSM    C5S11063   5.309   2.441  10.115 -0.2387 -0.0639 -0.4157
  108OSM    H5S11064   5.372   2.370  10.170 -1.8729 -0.9958  0.3171
  108OSM    C6S11065   5.368   2.496   9.989  0.2778  0.0738  0.1673
  108OSM    H6S11066   5.406   2.412   9.928  0.2656  0.0056  0.2532
  108OSM    H6T11067   5.455   2.563  10.004  1.1411 -1.1933  0.9684
  108OSM    C7S11068   5.270   2.571   9.895  0.1467  0.6888 -0.8342
  108OSM    H7S11069   5.248   2.676   9.925 -1.6356  0.3026 -0.7137
  108OSM    H7T11070   5.181   2.506   9.883 -0.7299  1.3430  1.4476
  108OSM    C8S11071   5.339   2.593   9.764 -0.2983  0.2277  0.2976
  108OSM    H8S11072   5.389   2.502   9.724 -1.2176  0.3848 -1.2798
  108OSM    H8T11073   5.414   2.675   9.759 -0.9859  0.7841 -2.1941
  108OSM    C9S11074   5.249   2.643   9.645 -0.1997  0.0205  0.0791
  108OSM    H9S11075   5.194   2.726   9.694  0.3258  0.8877 -0.7572
  108OSM    H9T11076   5.171   2.569   9.617  0.6052 -1.3908  1.3977
  108OSM   C10S11077   5.328   2.705   9.534  0.0073  0.1214 -0.0415
  108OSM   H10S11078   5.384   2.617   9.496 -1.5546 -1.6350  1.4996
  108OSM   H10T11079   5.390   2.795   9.557 -1.6124  1.3565 -0.3706
  108OSM   C11S11080   5.221   2.748   9.431 -0.4378 -0.3866  0.3111
  108OSM   H11S11081   5.133   2.799   9.476 -0.4107 -0.8198  0.8680
  108OSM   H11T11082   5.164   2.662   9.387 -0.5731 -0.6692  1.0157
  108OSM   C12S11083   5.286   2.821   9.310  0.1035 -0.2123 -0.2052
  108OSM   H12S11084   5.316   2.917   9.356 -0.1985 -0.2840  0.1507
  108OSM   H12T11085   5.207   2.853   9.239  1.6678  0.7870 -1.5711
  108OSM   C13S11086   5.401   2.741   9.249 -0.7524  0.5024  0.0596
  108OSM   H13S11087   5.377   2.633   9.246 -2.1299  0.6328  2.8038
  108OSM   H13T11088   5.494   2.757   9.309 -1.1455 -0.1807  0.8642
  108OSM   C14S11089   5.445   2.790   9.109 -0.3781 -0.0306  0.2931
  108OSM   H14S11090   5.457   2.900   9.111 -3.6479  0.4985 -1.8776
  108OSM   H14T11091   5.357   2.782   9.041 -0.3073  1.1453  0.0440
  108OSM   C15S11092   5.565   2.720   9.038  0.6139  0.2013 -0.6034
  108OSM   H15S11093   5.551   2.612   9.060 -1.0156  0.4181 -0.4595
  108OSM   H15T11094   5.663   2.744   9.084  0.6600 -0.8279 -0.1377
  108OSM   C16S11095   5.585   2.736   8.879 -0.2571  0.3907  0.4200
  108OSM   H16S11096   5.626   2.837   8.857 -0.2989  0.2550 -0.3116
  108OSM   H16T11097   5.483   2.739   8.836 -0.3315  1.2499  0.6399
  108OSM   C17S11098   5.663   2.626   8.809 -0.1903 -0.3195  0.1435
  108OSM   H17S11099   5.606   2.531   8.820 -0.2578 -0.5019 -1.5102
  108OSM   H17T11100   5.753   2.595   8.866  1.5617 -0.7364 -2.6362
  108OSM   C18S11101   5.709   2.655   8.669  0.6640 -0.3809  0.3720
  108OSM   H18S11102   5.799   2.599   8.634  0.0998  0.2078 -2.3072
  108OSM   H18T11103   5.744   2.760   8.676  0.3663 -0.3576  1.5358
  108OSM   H18U11104   5.628   2.643   8.594  0.8458 -1.9852  0.3834
  108OSM    C1F11105   4.888   2.163  10.105  0.1734 -0.3840  0.1380
  108OSM     OF11106   4.774   2.200  10.137  0.2774 -0.2625 -0.2488
  108OSM    C2F11107   4.910   2.071   9.991 -0.6543 -0.1706 -0.0571
  108OSM    H2F11108   4.890   1.964  10.014 -0.5156 -0.2304 -0.2161
  108OSM    H2G11109   5.017   2.078   9.961 -1.0373  0.6124 -1.2909
  108OSM    C3F11110   4.816   2.122   9.882  0.0609  0.4143 -0.3165
  108OSM    H3F11111   4.823   2.231   9.866 -0.2397  0.1133 -3.0894
  108OSM    H3G11112   4.710   2.101   9.910 -0.5775  3.8025  0.1964
  108OSM    C4F11113   4.844   2.051   9.741  0.1572  0.0215 -0.0164
  108OSM    H4F11114   4.841   1.941   9.753  2.3861 -0.3180 -1.6904
  108OSM    H4G11115   4.949   2.061   9.703 -0.6332  1.6165 -2.0181
  108OSM    C5F11116   4.757   2.092   9.618 -0.0320  0.1644  0.0069
  108OSM    H5F11117   4.736   2.201   9.612 -0.8423 -0.0676 -2.1030
  108OSM    H5G11118   4.652   2.057   9.628 -0.6725  2.3557  1.8293
  108OSM    C6F11119   4.814   2.038   9.490 -0.3108 -0.2636  0.4119
  108OSM    H6F11120   4.835   1.929   9.485  0.0905 -0.1280 -1.8097
  108OSM    H6G11121   4.909   2.089   9.465 -0.2031 -1.1212 -1.0552
  108OSM    C7F11122   4.711   2.060   9.376  0.1837 -0.2881  0.2035
  108OSM    H7F11123   4.674   2.164   9.386 -2.5002 -1.1996  0.5196
  108OSM    H7G11124   4.626   1.991   9.393 -0.1089  0.1275  0.4655
  108OSM    C8F11125   4.770   2.041   9.228 -0.0498 -0.3770 -0.3643
  108OSM    H8F11126   4.685   2.022   9.160  0.6165 -2.8874 -0.6032
  108OSM    H8G11127   4.836   1.951   9.227  1.2697  0.4501 -4.5479
  108OSM    C9F11128   4.855   2.152   9.170  0.2996  0.2550  0.6316
  108OSM    H9F11129   4.851   2.248   9.223 -1.3532  0.8540 -0.4628
  108OSM   C10F11130   4.937   2.140   9.060  0.7214  0.3438  0.3990
  108OSM   H10F11131   5.001   2.225   9.033  0.1041  0.1173 -1.9778
  108OSM   C11F11132   4.966   2.018   8.979 -0.1309  0.0038  0.2733
  108OSM   H11F11133   4.890   1.942   9.008  0.7587  0.3609  4.1153
  108OSM   H11G11134   5.068   1.976   8.997  1.2959  1.6901 -2.9922
  108OSM   C12F11135   4.951   2.043   8.828 -0.5484  0.4173 -1.1348
  108OSM   H12F11136   5.019   2.127   8.804  0.8792  0.0597  1.3492
  108OSM   H12G11137   4.847   2.077   8.808 -0.6569  1.3496  0.7664
  108OSM   C13F11138   4.987   1.932   8.728  0.0247 -0.5096  0.6948
  108OSM   H13F11139   4.968   1.985   8.632 -1.0447 -1.0391  0.5914
  108OSM   H13G11140   4.914   1.852   8.755 -1.4413  0.9330  1.1465
  108OSM   C14F11141   5.139   1.914   8.730  0.3083 -0.6238  0.0619
  108OSM   H14F11142   5.146   1.832   8.805 -0.6516 -1.7110 -0.9868
  108OSM   H14G11143   5.187   2.003   8.776 -3.3277 -0.0194  3.2566
  108OSM   C15F11144   5.194   1.878   8.594 -0.4408  0.1175 -0.0079
  108OSM   H15F11145   5.129   1.798   8.553 -1.2950  1.1875 -0.7980
  108OSM   H15G11146   5.287   1.817   8.605  0.3322  1.2289 -0.1574
  108OSM   C16F11147   5.223   1.987   8.492  0.3736  0.4970 -0.7523
  108OSM   H16F11148   5.293   2.064   8.532  0.8723 -0.3916  0.1268
  108OSM   H16G11149   5.124   2.033   8.476  0.2427  0.0842 -1.1469
  108OSM   C17F11150   5.292   1.938   8.364 -0.3047 -0.4242  0.6550
  108OSM   H17F11151   5.381   1.879   8.394  1.0341  1.4981  0.7003
  108OSM   H17G11152   5.319   2.027   8.302 -2.0406  0.4765  1.1291
  108OSM   C18F11153   5.195   1.856   8.274 -0.4836  0.2126 -0.1728
  108OSM   H18F11154   5.153   1.775   8.337 -0.6446 -0.1181 -0.6983
  108OSM   H18G11155   5.245   1.824   8.180 -0.3942  1.1422 -0.4543
  108OSM   H18H11156   5.105   1.917   8.247  0.6058  1.1016 -1.9559
  109OSM      N11157   3.350   3.197  10.763 -0.2982 -0.5879  0.1177
  109OSM    C1511158   3.311   3.159  10.901 -0.3350  0.6905 -0.2704
  109OSM   H15A11159   3.311   3.051  10.903 -0.5395  0.6844 -0.5725
  109OSM   H15B11160   3.211   3.195  10.922 -1.1507 -0.6582 -1.6932
  109OSM   H15C11161   3.370   3.192  10.986 -1.6907  2.0580  0.1844
  109OSM    C1411162   3.475   3.127  10.726 -0.0134  0.4709 -0.1533
  109OSM   H14A11163   3.495   3.117  10.621 -0.3310  1.7724 -0.3597
  109OSM   H14B11164   3.476   3.025  10.761 -1.6275  0.9277  1.3720
  109OSM   H14C11165   3.557   3.180  10.773  1.6706 -1.4559 -0.8062
  109OSM    C1311166   3.255   3.147  10.661 -0.0449 -0.1326  0.3968
  109OSM   H13A11167   3.171   3.213  10.643  0.8523  0.5251 -1.7499
  109OSM   H13B11168   3.220   3.046  10.675 -1.2671  0.1283 -0.5851
  109OSM   H13C11169   3.304   3.157  10.565 -2.5317  1.8539 -0.8092
  109OSM    C1211170   3.358   3.350  10.757 -0.5785 -0.3537  0.5239
  109OSM   H12A11171   3.420   3.389  10.837 -1.0596  0.5772  0.4603
  109OSM   H12B11172   3.260   3.394  10.767 -1.0317 -0.4653 -2.6233
  109OSM    C1111173   3.421   3.409  10.627  0.1396 -0.5582 -0.5913
  109OSM   H11A11174   3.389   3.514  10.609  0.8452 -0.2170  0.0973
  109OSM   H11B11175   3.383   3.347  10.543 -2.5819  0.6002 -0.3406
  109OSM      P11176   3.650   3.498  10.718 -0.1354  0.1839  0.1481
  109OSM    O1311177   3.584   3.502  10.849  0.2764 -0.3953  0.1043
  109OSM    O1411178   3.786   3.445  10.712  0.0415  0.0252 -0.1957
  109OSM    O1111179   3.644   3.640  10.653  0.1213 -0.0838  0.4171
  109OSM    O1211180   3.568   3.395  10.628  0.3624 -0.3952  0.3180
  109OSM    C1S11181   3.708   3.660  10.526  0.8913 -0.3041 -0.6373
  109OSM    H1S11182   3.776   3.576  10.498  0.5447 -0.2652 -1.6307
  109OSM    H1T11183   3.759   3.759  10.527 -0.1612  0.3992 -3.6971
  109OSM     NF11184   3.661   3.690  10.283  0.7775 -0.2470 -0.3818
  109OSM    HNF11185   3.641   3.780  10.244 -3.0389 -0.6190  0.3399
  109OSM    C2S11186   3.603   3.663  10.412  0.0807  0.4104  0.1327
  109OSM    H2S11187   3.551   3.566  10.407  0.0140  0.5055 -1.8644
  109OSM    C3S11188   3.494   3.772  10.440 -0.4542  0.4451  0.2168
  109OSM    H3S11189   3.544   3.872  10.436  2.8060 -1.0630 -1.3568
  109OSM     O311190   3.437   3.764  10.570  0.6021  1.0147 -0.6904
  109OSM    HO311191   3.508   3.715  10.612 -1.1841 -0.6359  0.5861
  109OSM    C4S11192   3.390   3.774  10.331 -0.2831  0.2467  0.5519
  109OSM    H4S11193   3.406   3.842  10.247  1.4685  0.8308  1.3030
  109OSM    C5S11194   3.278   3.696  10.330  0.1999 -0.1010  0.0007
  109OSM    H5S11195   3.257   3.631  10.416 -1.5565 -1.3844 -1.3162
  109OSM    C6S11196   3.162   3.690  10.229 -0.0683 -0.0043  0.1544
  109OSM    H6S11197   3.071   3.730  10.279 -1.0429 -0.8039 -0.9333
  109OSM    H6T11198   3.132   3.586  10.205  1.7624 -0.2131 -1.3906
  109OSM    C7S11199   3.192   3.763  10.099 -0.0492 -0.4828 -0.3295
  109OSM    H7S11200   3.241   3.691  10.030 -0.8368 -1.9840  0.6354
  109OSM    H7T11201   3.268   3.844  10.096  3.1268 -3.2206  0.9047
  109OSM    C8S11202   3.070   3.814  10.037  0.6963 -0.7004  0.0142
  109OSM    H8S11203   3.026   3.892  10.103  1.0499  0.3380 -0.9447
  109OSM    H8T11204   2.991   3.739  10.016 -0.7626  1.3967 -2.6338
  109OSM    C9S11205   3.102   3.878   9.903  0.5559  0.3152 -0.0908
  109OSM    H9S11206   3.161   3.803   9.845 -0.9548  0.3101 -1.6948
  109OSM    H9T11207   3.176   3.960   9.920  1.6445 -0.6126 -0.2045
  109OSM   C10S11208   2.980   3.929   9.825 -0.1136  0.4040  0.2205
  109OSM   H10S11209   2.957   4.036   9.843 -2.0155  0.0449  0.1108
  109OSM   H10T11210   2.892   3.883   9.875  0.0767 -0.3270 -0.0943
  109OSM   C11S11211   2.970   3.893   9.677 -0.6585  0.2325 -0.3813
  109OSM   H11S11212   2.871   3.909   9.629 -1.9397 -1.3524  1.6035
  109OSM   H11T11213   2.985   3.783   9.674  0.3718  0.3429  0.2834
  109OSM   C12S11214   3.076   3.966   9.590  0.1497  0.2130  0.5964
  109OSM   H12S11215   3.184   3.949   9.610  0.2487  0.7553  0.5571
  109OSM   H12T11216   3.053   4.074   9.604 -0.7536 -0.0933  1.6530
  109OSM   C13S11217   3.048   3.933   9.445 -0.1798 -0.2100  0.4821
  109OSM   H13S11218   2.942   3.958   9.423 -0.9270 -4.3637 -1.5873
  109OSM   H13T11219   3.057   3.826   9.418  2.3258  0.6215 -2.5605
  109OSM   C14S11220   3.146   4.001   9.350  0.2760  0.0177  0.7143
  109OSM   H14S11221   3.249   3.965   9.371  0.8725 -0.0908 -1.9817
  109OSM   H14T11222   3.152   4.108   9.379  0.6231 -0.3627  2.1042
  109OSM   C15S11223   3.115   3.983   9.199  0.3592 -0.8893 -0.0271
  109OSM   H15S11224   3.021   4.038   9.175 -1.1518 -2.9118  0.8770
  109OSM   H15T11225   3.089   3.876   9.179 -1.8391 -0.4710  0.3537
  109OSM   C16S11226   3.242   4.031   9.121  0.7327  0.5487 -0.7019
  109OSM   H16S11227   3.332   4.010   9.182  1.0681  1.1568 -0.9732
  109OSM   H16T11228   3.237   4.142   9.113 -2.4768  0.7624  1.8957
  109OSM   C17S11229   3.268   3.970   8.980  0.3281 -0.2698 -0.3625
  109OSM   H17S11230   3.181   3.992   8.914 -0.2568 -0.1199  0.4384
  109OSM   H17T11231   3.276   3.860   8.991 -1.3191 -0.2921  1.0680
  109OSM   C18S11232   3.396   4.035   8.925  0.8489 -0.0054 -0.5335
  109OSM   H18S11233   3.422   3.983   8.830 -1.9825 -0.6276 -1.0410
  109OSM   H18T11234   3.474   4.029   9.003  0.9829  0.8416 -0.5917
  109OSM   H18U11235   3.381   4.141   8.894  0.2171 -0.2323 -1.0226
  109OSM    C1F11236   3.751   3.611  10.231 -0.3849  0.3882 -0.0861
  109OSM     OF11237   3.739   3.492  10.241  0.2118 -0.1129  0.4387
  109OSM    C2F11238   3.857   3.679  10.144 -0.6566  0.4846 -0.1469
  109OSM    H2F11239   3.954   3.671  10.196 -1.0683  1.4066  0.8048
  109OSM    H2G11240   3.841   3.789  10.145  0.3784  0.6725 -1.4254
  109OSM    C3F11241   3.863   3.637  10.000  0.7381  0.2159  0.5457
  109OSM    H3F11242   3.758   3.637   9.962  1.1324  0.1169 -0.5854
  109OSM    H3G11243   3.893   3.530   9.998 -0.3541 -0.1259 -2.5517
  109OSM    C4F11244   3.943   3.720   9.896 -0.0200 -0.2093 -0.3600
  109OSM    H4F11245   4.048   3.718   9.932  0.0898 -1.9965 -0.6585
  109OSM    H4G11246   3.896   3.820   9.896 -0.9209 -0.5877  1.1414
  109OSM    C5F11247   3.935   3.677   9.749 -0.1566 -0.2105  0.2975
  109OSM    H5F11248   3.941   3.566   9.751  1.1661 -0.1602  0.0070
  109OSM    H5G11249   4.032   3.714   9.710 -0.8507 -0.1864 -1.5095
  109OSM    C6F11250   3.828   3.747   9.675  0.0033 -0.2494  0.4665
  109OSM    H6F11251   3.832   3.857   9.685  1.1995 -0.1118 -1.2442
  109OSM    H6G11252   3.730   3.717   9.720 -0.2461 -2.5672 -1.3832
  109OSM    C7F11253   3.805   3.718   9.519 -0.9680  0.1521 -0.4045
  109OSM    H7F11254   3.752   3.620   9.524  1.3081 -1.2063 -1.4494
  109OSM    H7G11255   3.901   3.700   9.466 -1.7983 -1.5958 -1.3891
  109OSM    C8F11256   3.717   3.820   9.439 -0.4456  0.7193 -0.0352
  109OSM    H8F11257   3.633   3.851   9.505 -1.2857 -1.2952 -0.0600
  109OSM    H8G11258   3.666   3.762   9.359  0.8330  0.8367 -0.9536
  109OSM    C9F11259   3.802   3.933   9.384 -0.3951 -0.1444  0.0784
  109OSM    H9F11260   3.875   3.966   9.460  2.1175 -1.1454 -1.7643
  109OSM   C10F11261   3.819   3.982   9.259  0.2523  0.2414 -1.2450
  109OSM   H10F11262   3.892   4.061   9.236  0.5712  0.5541  0.6886
  109OSM   C11F11263   3.741   3.935   9.145 -0.0750  0.5276 -0.1935
  109OSM   H11F11264   3.732   4.013   9.067 -0.5490 -1.3939 -2.1696
  109OSM   H11G11265   3.637   3.907   9.174  0.9063 -1.9347  1.3630
  109OSM   C12F11266   3.801   3.815   9.068  0.4206  0.0578  0.1670
  109OSM   H12F11267   3.814   3.728   9.136  1.5417 -0.1300 -0.2679
  109OSM   H12G11268   3.901   3.843   9.029 -0.1632 -0.7991 -2.0883
  109OSM   C13F11269   3.723   3.763   8.944  0.1080  0.1421 -0.7074
  109OSM   H13F11270   3.616   3.778   8.971  0.7212  0.4519  1.8421
  109OSM   H13G11271   3.764   3.662   8.923  2.3521  0.8378  0.0143
  109OSM   C14F11272   3.745   3.849   8.814 -0.0680 -0.4132  0.2234
  109OSM   H14F11273   3.850   3.861   8.780  0.1941 -0.9121  0.8223
  109OSM   H14G11274   3.706   3.949   8.844 -2.1368 -1.0104 -0.2813
  109OSM   C15F11275   3.666   3.805   8.688  0.7178 -0.9744 -0.0387
  109OSM   H15F11276   3.560   3.832   8.710  1.5014  2.1507  0.4157
  109OSM   H15G11277   3.676   3.696   8.670  0.6092 -0.8804 -0.7025
  109OSM   C16F11278   3.708   3.886   8.567 -0.0995 -0.0102  0.0023
  109OSM   H16F11279   3.793   3.831   8.520  0.4121 -2.1586  3.1155
  109OSM   H16G11280   3.736   3.986   8.606  1.8972 -1.3288  2.2338
  109OSM   C17F11281   3.587   3.911   8.470  0.0925  0.0618 -0.2820
  109OSM   H17F11282   3.519   3.981   8.523 -0.7390 -1.2920  0.4881
  109OSM   H17G11283   3.536   3.812   8.469 -0.6204  0.4262 -1.0433
  109OSM   C18F11284   3.617   3.958   8.328  0.2883  0.7402  0.0755
  109OSM   H18F11285   3.658   4.061   8.324 -2.0667  1.7269 -0.5084
  109OSM   H18G11286   3.530   3.959   8.258  0.5503  2.0169 -0.2497
  109OSM   H18H11287   3.684   3.886   8.276 -3.2731 -0.5698 -3.2521
  110OSM      N11288   5.697   3.835  11.243  0.4608  0.2978 -0.0538
  110OSM    C1511289   5.831   3.869  11.292  0.2328  0.9894 -0.4642
  110OSM   H15A11290   5.862   3.835  11.390  3.5334  1.9005 -1.0715
  110OSM   H15B11291   5.853   3.974  11.308  0.7290  0.5490  2.4164
  110OSM   H15C11292   5.898   3.827  11.218  0.3287 -1.5271  0.9496
  110OSM    C1411293   5.692   3.683  11.247  1.5194 -0.8936  0.4098
  110OSM   H14A11294   5.726   3.642  11.341  1.0534 -0.3104  0.8489
  110OSM   H14B11295   5.746   3.643  11.163 -1.5250 -0.0666 -2.1324
  110OSM   H14C11296   5.589   3.654  11.234  2.2195 -3.0884 -0.6674
  110OSM    C1311297   5.594   3.879  11.345  0.7457 -0.0672  0.4770
  110OSM   H13A11298   5.590   3.986  11.360 -0.3163 -0.0924  0.4928
  110OSM   H13B11299   5.608   3.831  11.440 -1.8320  0.5325  1.2385
  110OSM   H13C11300   5.497   3.834  11.326  0.1802 -0.1577  3.1963
  110OSM    C1211301   5.676   3.888  11.102  0.5199  0.2386  0.1434
  110OSM   H12A11302   5.703   3.993  11.096 -1.3551  0.7223 -0.6255
  110OSM   H12B11303   5.569   3.892  11.087  0.4917  0.9178  0.4670
  110OSM    C1111304   5.760   3.829  10.989 -0.0901  0.4691  0.9337
  110OSM   H11A11305   5.722   3.873  10.895 -2.6374  1.5479  2.3608
  110OSM   H11B11306   5.734   3.721  10.981 -0.7934  0.5323  2.0744
  110OSM      P11307   6.009   3.750  10.990 -0.3603  0.2853  0.0126
  110OSM    O1311308   6.130   3.821  10.949 -0.1720 -0.1879  0.0710
  110OSM    O1411309   6.016   3.676  11.114 -0.0080 -0.1575 -0.4812
  110OSM    O1111310   5.958   3.657  10.872  0.2750  1.3878  1.1425
  110OSM    O1211311   5.901   3.861  11.010 -0.1173 -0.0051 -0.8751
  110OSM    C1S11312   5.956   3.703  10.731  0.2444 -0.5724 -0.1147
  110OSM    H1S11313   6.059   3.728  10.698  0.4686 -2.1680 -0.6892
  110OSM    H1T11314   5.885   3.786  10.708  0.1678 -1.4324 -3.5242
  110OSM     NF11315   5.894   3.672  10.497  0.1737  0.1258  0.1267
  110OSM    HNF11316   5.808   3.709  10.463  0.4034  0.6570  0.1029
  110OSM    C2S11317   5.902   3.598  10.617 -0.1661 -0.1869  0.0671
  110OSM    H2S11318   5.983   3.523  10.606 -0.4220 -0.5675  0.7636
  110OSM    C3S11319   5.772   3.529  10.661  0.2777 -0.1149 -1.1834
  110OSM    H3S11320   5.689   3.595  10.695 -1.6831 -2.3272 -1.3573
  110OSM     O311321   5.780   3.444  10.780 -0.3908 -0.0368 -0.7185
  110OSM    HO311322   5.857   3.482  10.823  0.7398  0.0367 -2.6571
  110OSM    C4S11323   5.715   3.442  10.553  0.2821 -0.3402 -0.0628
  110OSM    H4S11324   5.788   3.371  10.512 -1.0879 -1.2072 -1.0726
  110OSM    C5S11325   5.583   3.441  10.518  0.1326 -0.1887  0.1807
  110OSM    H5S11326   5.510   3.497  10.577  1.5485  0.1046  1.7330
  110OSM    C6S11327   5.530   3.355  10.409 -0.1605 -0.6781 -0.4082
  110OSM    H6S11328   5.434   3.302  10.431 -0.8397  1.0501  1.0649
  110OSM    H6T11329   5.602   3.276  10.380 -0.7746 -1.7139  0.7723
  110OSM    C7S11330   5.484   3.427  10.277  0.4048 -0.2948 -0.7573
  110OSM    H7S11331   5.412   3.508  10.302 -0.5136 -0.7580 -1.8174
  110OSM    H7T11332   5.440   3.357  10.203 -0.2762  1.0824 -1.6945
  110OSM    C8S11333   5.594   3.507  10.216 -0.2848 -0.6014  0.0588
  110OSM    H8S11334   5.685   3.444  10.204  0.6167  0.5007  0.8995
  110OSM    H8T11335   5.611   3.587  10.291  0.6029  0.1052 -0.8609
  110OSM    C9S11336   5.561   3.576  10.083 -0.1535 -0.4512  0.4508
  110OSM    H9S11337   5.617   3.670  10.070 -2.4950  0.8806 -0.6416
  110OSM    H9T11338   5.453   3.601  10.088 -0.0116  0.2467  0.0401
  110OSM   C10S11339   5.592   3.490   9.965 -0.0901  0.7320  0.3673
  110OSM   H10S11340   5.540   3.393   9.973  0.8923  0.2210  0.7071
  110OSM   H10T11341   5.701   3.470   9.964 -0.4308 -1.3228 -0.1932
  110OSM   C11S11342   5.551   3.560   9.841 -0.0233  0.0293 -0.1171
  110OSM   H11S11343   5.608   3.656   9.840  1.5177 -0.8299 -1.6895
  110OSM   H11T11344   5.441   3.579   9.838  0.3586  2.5357 -2.7257
  110OSM   C12S11345   5.587   3.487   9.703 -0.7680 -0.0046 -0.0784
  110OSM   H12S11346   5.535   3.390   9.692  0.6582 -0.6117 -1.9926
  110OSM   H12T11347   5.694   3.463   9.720 -1.0830 -1.5001 -0.1452
  110OSM   C13S11348   5.560   3.584   9.583 -0.4832  0.4751 -0.2848
  110OSM   H13S11349   5.596   3.684   9.617  2.0393 -1.2648  2.6868
  110OSM   H13T11350   5.449   3.580   9.577 -0.4251 -0.8489 -0.5914
  110OSM   C14S11351   5.618   3.527   9.452 -0.0033  0.0400 -0.2986
  110OSM   H14S11352   5.614   3.610   9.379  1.8983  2.0145  1.6819
  110OSM   H14T11353   5.556   3.444   9.412 -0.6700  0.4961 -0.2324
  110OSM   C15S11354   5.765   3.478   9.468  0.3127 -0.2448  0.3249
  110OSM   H15S11355   5.775   3.376   9.510 -0.1133 -0.2386  0.4448
  110OSM   H15T11356   5.829   3.544   9.530 -0.4407 -0.9923  1.9561
  110OSM   C16S11357   5.834   3.467   9.338  0.4553 -0.5081 -0.2422
  110OSM   H16S11358   5.778   3.405   9.265  0.1650  0.4598 -0.8636
  110OSM   H16T11359   5.921   3.402   9.362  0.9399  0.8462  1.9766
  110OSM   C17S11360   5.905   3.593   9.289  0.7168 -0.1313  0.2104
  110OSM   H17S11361   5.975   3.631   9.366 -1.0765 -0.0671  1.8607
  110OSM   H17T11362   5.827   3.670   9.273 -0.0218 -0.4493  2.0543
  110OSM   C18S11363   5.979   3.573   9.157 -0.3091  0.4243  0.7213
  110OSM   H18S11364   5.927   3.504   9.088 -1.3843  0.3097  1.6265
  110OSM   H18T11365   6.075   3.520   9.176 -1.0401 -1.0073  0.5993
  110OSM   H18U11366   5.997   3.669   9.106 -1.3139 -0.2725 -1.0355
  110OSM    C1F11367   5.990   3.715  10.426 -0.6546 -0.4702  0.0559
  110OSM     OF11368   6.107   3.676  10.450 -0.1177 -0.0057 -0.4199
  110OSM    C2F11369   5.973   3.824  10.323 -0.7216  0.2101 -0.1114
  110OSM    H2F11370   6.070   3.878  10.317 -0.0652 -0.6957  1.4669
  110OSM    H2G11371   5.889   3.892  10.348 -0.9542  0.5715 -1.7844
  110OSM    C3F11372   5.941   3.757  10.184  0.1424 -0.2531  0.0933
  110OSM    H3F11373   5.854   3.687  10.187 -1.5124  1.7150  1.2538
  110OSM    H3G11374   6.019   3.679  10.171  0.1438 -0.6749  2.2434
  110OSM    C4F11375   5.951   3.850  10.059 -0.6873 -0.0174  0.2720
  110OSM    H4F11376   6.036   3.920  10.072 -0.3160  0.2531 -2.7872
  110OSM    H4G11377   5.860   3.913  10.051 -0.6449 -0.0328 -0.4208
  110OSM    C5F11378   5.977   3.770   9.935  0.0542  0.0276  0.5582
  110OSM    H5F11379   5.905   3.688   9.915  0.6175 -0.2668 -0.3448
  110OSM    H5G11380   6.075   3.717   9.939  0.1255 -0.5743 -3.7771
  110OSM    C6F11381   5.981   3.868   9.820  0.4352 -0.1175  0.0770
  110OSM    H6F11382   6.059   3.944   9.841 -0.8203  1.0877  0.4919
  110OSM    H6G11383   5.888   3.927   9.804  2.0031  2.5530  0.3305
  110OSM    C7F11384   6.011   3.809   9.679 -0.4597 -0.2546  0.7981
  110OSM    H7F11385   5.953   3.715   9.674 -0.2403 -0.3432 -0.4417
  110OSM    H7G11386   6.117   3.777   9.684 -0.8240 -1.2611  3.9890
  110OSM    C8F11387   5.980   3.897   9.552 -0.1467 -0.5117  0.0044
  110OSM    H8F11388   5.873   3.924   9.559  0.2682  2.0525 -2.1760
  110OSM    H8G11389   5.998   3.834   9.463 -2.3776  1.6608 -2.1257
  110OSM    C9F11390   6.083   4.013   9.548  0.0061 -0.3017 -0.4793
  110OSM    H9F11391   6.184   3.987   9.582 -0.5792  0.0233  1.6634
  110OSM   C10F11392   6.055   4.137   9.512 -0.2082  0.3128  0.2928
  110OSM   H10F11393   6.139   4.208   9.515  1.2147 -1.2619 -0.2753
  110OSM   C11F11394   5.921   4.195   9.465 -0.5069 -0.2599  0.5187
  110OSM   H11F11395   5.874   4.261   9.541 -1.8387  0.0009 -0.4890
  110OSM   H11G11396   5.847   4.114   9.450 -0.3769 -0.1048 -1.1932
  110OSM   C12F11397   5.941   4.255   9.324  0.6158  0.0249  0.0867
  110OSM   H12F11398   6.026   4.326   9.328 -0.5938  1.4956  1.2763
  110OSM   H12G11399   5.852   4.315   9.294  0.4009 -0.3008  0.0764
  110OSM   C13F11400   5.965   4.144   9.220  0.6789  0.3754  0.0735
  110OSM   H13F11401   5.884   4.073   9.244 -0.8992  2.2872  0.6544
  110OSM   H13G11402   6.070   4.107   9.218  0.6496  0.2976 -0.0103
  110OSM   C14F11403   5.927   4.189   9.081 -0.1696 -0.8041 -0.0798
  110OSM   H14F11404   6.000   4.270   9.058  0.3671 -0.5861  2.1557
  110OSM   H14G11405   5.824   4.229   9.089  0.0975  0.5349 -2.5712
  110OSM   C15F11406   5.939   4.077   8.984  0.2442 -0.2117  0.4438
  110OSM   H15F11407   5.871   3.996   9.018  1.9238 -1.6644  0.4611
  110OSM   H15G11408   6.035   4.025   9.002 -0.3920 -1.7975 -0.4869
  110OSM   C16F11409   5.915   4.122   8.834 -0.2618  0.5195 -0.5080
  110OSM   H16F11410   5.981   4.200   8.791 -2.2512  2.3723 -0.3670
  110OSM   H16G11411   5.812   4.159   8.813 -0.1760 -0.7509 -3.8378
  110OSM   C17F11412   5.929   3.996   8.741  0.2756  0.4000  0.2671
  110OSM   H17F11413   5.870   4.029   8.653 -0.6259 -0.6341  0.4570
  110OSM   H17G11414   5.872   3.917   8.794 -0.2351  0.7403  0.2276
  110OSM   C18F11415   6.079   3.961   8.709  0.0740 -0.5225  0.7163
  110OSM   H18F11416   6.111   4.030   8.629 -1.3510 -1.3197 -0.6089
  110OSM   H18G11417   6.085   3.854   8.679  1.8894  0.0890 -1.4344
  110OSM   H18H11418   6.133   3.962   8.806 -0.5068 -4.1414  1.2272
  111OSM      N11419   6.528   2.966  11.280 -0.0031 -0.3349  0.2268
  111OSM    C1511420   6.574   2.824  11.266 -0.4471 -0.0192  0.0186
  111OSM   H15A11421   6.533   2.772  11.180 -3.0234 -0.7714  1.5735
  111OSM   H15B11422   6.530   2.783  11.355 -4.7124  0.4153 -1.6332
  111OSM   H15C11423   6.681   2.814  11.256 -0.6299 -1.6558 -0.6247
  111OSM    C1411424   6.383   2.977  11.310 -0.5150  0.1241 -0.1389
  111OSM   H14A11425   6.332   2.911  11.241  0.4531 -0.8984  0.0984
  111OSM   H14B11426   6.345   3.078  11.302 -2.1829 -0.2660  1.8496
  111OSM   H14C11427   6.357   2.930  11.404 -0.2192 -0.9669 -0.5891
  111OSM    C1311428   6.607   3.035  11.395  0.5995  0.2221  0.1176
  111OSM   H13A11429   6.619   2.975  11.484  1.7644  0.2098 -0.0348
  111OSM   H13B11430   6.550   3.123  11.421  1.2924  1.0685 -1.1099
  111OSM   H13C11431   6.704   3.064  11.357  1.0010 -0.7141  0.3878
  111OSM    C1211432   6.556   3.052  11.165  0.2120  0.2100 -0.2047
  111OSM   H12A11433   6.659   3.079  11.182  0.6848 -1.6056  0.0577
  111OSM   H12B11434   6.487   3.134  11.173  0.4948  0.3399  1.1367
  111OSM    C1111435   6.540   2.998  11.021  0.3531  0.0305 -0.1690
  111OSM   H11A11436   6.605   2.909  11.008  3.1839  2.1235 -1.2920
  111OSM   H11B11437   6.584   3.070  10.949 -1.7862  1.0800 -0.5146
  111OSM      P11438   6.313   3.093  10.960  0.0751 -0.8114 -0.0472
  111OSM    O1311439   6.182   3.045  10.920 -0.2060 -0.1936 -0.2942
  111OSM    O1411440   6.312   3.172  11.084 -0.0373 -0.2836 -0.4451
  111OSM    O1111441   6.392   3.159  10.842 -0.2961 -0.2565  0.3906
  111OSM    O1211442   6.400   2.971  10.986 -0.6223 -0.7471 -0.8903
  111OSM    C1S11443   6.408   3.076  10.723 -0.3258 -0.2968 -0.4724
  111OSM    H1S11444   6.320   3.038  10.667  0.4466 -0.6242 -1.5081
  111OSM    H1T11445   6.472   2.989  10.749  0.1937  0.6336  1.5067
  111OSM     NF11446   6.494   3.093  10.493 -0.3541 -0.8799  0.4686
  111OSM    HNF11447   6.581   3.059  10.460  0.2337 -0.7187  1.7813
  111OSM    C2S11448   6.485   3.164  10.620  0.0080  0.2873 -0.3953
  111OSM    H2S11449   6.427   3.258  10.609  0.6842  1.0950  2.2043
  111OSM    C3S11450   6.630   3.219  10.676 -0.1869 -0.2041 -0.4134
  111OSM    H3S11451   6.684   3.124  10.696 -1.1670 -0.5551  0.6548
  111OSM     O311452   6.617   3.280  10.807  0.6505 -0.5973 -0.3194
  111OSM    HO311453   6.528   3.255  10.833 -0.0645 -0.2800 -2.3494
  111OSM    C4S11454   6.701   3.311  10.581 -0.0241  0.4952 -1.1088
  111OSM    H4S11455   6.787   3.264  10.531 -0.8188 -0.4357 -1.6340
  111OSM    C5S11456   6.670   3.438  10.554 -0.3778 -0.3213  0.3928
  111OSM    H5S11457   6.581   3.483  10.601  0.7925  3.2828 -0.4895
  111OSM    C6S11458   6.745   3.531  10.461 -1.0033  0.3331  0.4176
  111OSM    H6S11459   6.825   3.592  10.506  0.0169  0.6646 -1.6964
  111OSM    H6T11460   6.670   3.604  10.422 -2.2534  0.0553  2.1862
  111OSM    C7S11461   6.821   3.467  10.336  0.2661  0.5950  0.7240
  111OSM    H7S11462   6.907   3.408  10.373 -0.8806 -2.1726 -0.7273
  111OSM    H7T11463   6.861   3.551  10.276 -0.7575  0.1400 -0.6310
  111OSM    C8S11464   6.722   3.383  10.252 -0.3797  0.6500 -0.0594
  111OSM    H8S11465   6.631   3.445  10.243 -0.2682  1.0214  1.1664
  111OSM    H8T11466   6.696   3.294  10.314 -2.5871  0.5220 -1.1047
  111OSM    C9S11467   6.772   3.320  10.124 -0.3879 -1.0069 -0.3391
  111OSM    H9S11468   6.689   3.260  10.081  1.1379 -3.1452 -0.4698
  111OSM    H9T11469   6.863   3.261  10.149 -0.2300 -0.8780 -0.6063
  111OSM   C10S11470   6.803   3.432  10.018 -0.0809 -0.4965  0.5158
  111OSM   H10S11471   6.894   3.477  10.064 -0.4143  0.7240  0.0024
  111OSM   H10T11472   6.722   3.507  10.006  0.5389  0.0855 -0.0758
  111OSM   C11S11473   6.845   3.371   9.884  0.2707  0.3376  0.4135
  111OSM   H11S11474   6.765   3.297   9.862  0.4771  0.5077 -1.0285
  111OSM   H11T11475   6.943   3.320   9.897  0.5596  0.5368 -0.7969
  111OSM   C12S11476   6.841   3.461   9.769  0.3010 -0.2659  0.0731
  111OSM   H12S11477   6.901   3.547   9.806  0.3485  0.3375 -1.3345
  111OSM   H12T11478   6.741   3.507   9.753  0.5868  0.1702 -0.5223
  111OSM   C13S11479   6.887   3.413   9.626 -0.4042 -0.3377 -0.4965
  111OSM   H13S11480   6.809   3.343   9.589 -1.6512 -1.1330  3.2272
  111OSM   H13T11481   6.993   3.380   9.635 -0.4767 -0.8816 -1.4610
  111OSM   C14S11482   6.899   3.540   9.535 -0.4600  0.5220  0.2027
  111OSM   H14S11483   6.982   3.605   9.571  0.2385 -0.9258  1.2963
  111OSM   H14T11484   6.807   3.596   9.561 -0.4033  0.3289  0.8307
  111OSM   C15S11485   6.894   3.512   9.381  0.5375  0.7642 -0.3624
  111OSM   H15S11486   6.844   3.607   9.354 -1.8766  0.6220  2.9235
  111OSM   H15T11487   6.816   3.435   9.364 -1.1131  2.0543  1.0435
  111OSM   C16S11488   7.018   3.474   9.303 -0.8239 -0.5335 -0.7249
  111OSM   H16S11489   7.062   3.376   9.330  0.6469  0.4341  0.5837
  111OSM   H16T11490   7.092   3.551   9.335 -0.5897  0.0442 -2.5189
  111OSM   C17S11491   7.013   3.491   9.154  0.1677 -0.4903  0.6907
  111OSM   H17S11492   6.951   3.580   9.133  3.7765  2.5055  1.5971
  111OSM   H17T11493   6.973   3.394   9.118 -0.6749 -0.2160  0.8655
  111OSM   C18S11494   7.151   3.504   9.084  0.5525 -0.0992  0.8878
  111OSM   H18S11495   7.216   3.578   9.136  0.9130  0.8743 -0.8646
  111OSM   H18T11496   7.135   3.530   8.977  0.6315 -0.7201  0.7228
  111OSM   H18U11497   7.208   3.409   9.089  0.8672 -0.0290 -0.7359
  111OSM    C1F11498   6.387   3.082  10.411  0.1845 -0.5062  0.1643
  111OSM     OF11499   6.289   3.160  10.424 -0.2644  0.0056 -0.6595
  111OSM    C2F11500   6.380   2.961  10.323  0.8579  0.5973  0.4908
  111OSM    H2F11501   6.288   2.902  10.343  0.3122  1.5755  0.9339
  111OSM    H2G11502   6.467   2.897  10.349 -0.3688 -0.7240  1.5526
  111OSM    C3F11503   6.407   2.994  10.174  0.1278  0.3483 -0.5502
  111OSM    H3F11504   6.477   3.081  10.162  0.0903  0.1144 -3.0006
  111OSM    H3G11505   6.317   3.038  10.126 -0.5363 -2.5450 -2.1737
  111OSM    C4F11506   6.438   2.880  10.080  0.2015 -0.8999 -0.3802
  111OSM    H4F11507   6.345   2.820  10.063 -2.5574  2.2969  2.0057
  111OSM    H4G11508   6.520   2.810  10.104  0.0804 -1.4240 -1.4450
  111OSM    C5F11509   6.475   2.936   9.940 -0.5598 -1.1322 -0.2326
  111OSM    H5F11510   6.570   2.993   9.949 -1.5892  0.4940  0.9777
  111OSM    H5G11511   6.401   3.010   9.907  1.2199  0.5129 -0.7050
  111OSM    C6F11512   6.475   2.822   9.835 -0.0370  0.0670 -0.6185
  111OSM    H6F11513   6.379   2.766   9.836  0.9139 -1.6249  0.4577
  111OSM    H6G11514   6.549   2.744   9.862  0.6869  0.2785 -1.8834
  111OSM    C7F11515   6.507   2.871   9.693 -0.6757  0.2041 -0.4980
  111OSM    H7F11516   6.615   2.866   9.667 -0.7990 -1.9599 -0.7878
  111OSM    H7G11517   6.486   2.980   9.683  1.0286  0.6082  0.0530
  111OSM    C8F11518   6.416   2.808   9.578  0.0743 -0.1670  0.6111
  111OSM    H8F11519   6.312   2.824   9.614 -1.1226 -0.8366 -2.3260
  111OSM    H8G11520   6.430   2.698   9.585  1.2537  0.0190  1.7109
  111OSM    C9F11521   6.447   2.867   9.449 -0.1934 -0.6713 -0.0880
  111OSM    H9F11522   6.525   2.945   9.447 -0.0373 -0.8222  0.0732
  111OSM   C10F11523   6.389   2.834   9.332 -0.0610 -0.8822 -0.3210
  111OSM   H10F11524   6.435   2.882   9.245 -0.0984  1.2436  0.7646
  111OSM   C11F11525   6.269   2.741   9.310 -0.0144 -0.1086  0.4296
  111OSM   H11F11526   6.176   2.792   9.278 -0.5218 -0.2217  1.6513
  111OSM   H11G11527   6.231   2.687   9.400 -3.1859 -1.7020 -1.6788
  111OSM   C12F11528   6.284   2.623   9.203  0.4842 -0.8390  0.4918
  111OSM   H12F11529   6.336   2.665   9.114  0.5016 -0.9926  0.4292
  111OSM   H12G11530   6.189   2.571   9.180 -0.2294  0.0018  1.4555
  111OSM   C13F11531   6.385   2.528   9.262 -0.1272  0.8055  0.1570
  111OSM   H13F11532   6.334   2.486   9.351  0.8483  1.1236  0.8928
  111OSM   H13G11533   6.474   2.582   9.301 -0.1026  0.9949 -0.1628
  111OSM   C14F11534   6.414   2.409   9.168  0.3000 -0.2035  0.5619
  111OSM   H14F11535   6.514   2.365   9.189  0.5782  0.6299  1.0417
  111OSM   H14G11536   6.419   2.450   9.064  0.7873  2.3369  1.5199
  111OSM   C15F11537   6.312   2.304   9.179 -0.0105 -0.3779  0.6679
  111OSM   H15F11538   6.212   2.351   9.161  0.1284  0.0418  0.9856
  111OSM   H15G11539   6.308   2.266   9.283  1.5655 -0.8174  0.5885
  111OSM   C16F11540   6.332   2.177   9.091 -0.1414  0.6508  0.4025
  111OSM   H16F11541   6.241   2.120   9.121 -0.1260 -0.0887 -0.8666
  111OSM   H16G11542   6.420   2.123   9.133  0.2881  0.3499 -0.8157
  111OSM   C17F11543   6.338   2.206   8.937 -0.0394  0.0023 -0.1219
  111OSM   H17F11544   6.423   2.271   8.904 -1.1957  1.1930 -0.8564
  111OSM   H17G11545   6.246   2.264   8.914 -1.1453 -1.9874 -0.9403
  111OSM   C18F11546   6.355   2.089   8.837  0.2045 -0.7799  0.0441
  111OSM   H18F11547   6.455   2.042   8.843 -0.0911 -1.3020  4.4801
  111OSM   H18G11548   6.331   2.139   8.741 -0.1945 -1.0614 -0.0072
  111OSM   H18H11549   6.270   2.020   8.859 -0.2169 -0.8574 -1.6976
  112OSM      N11550   6.727   1.618  10.968  0.6303 -0.0504 -0.0285
  112OSM    C1511551   6.833   1.537  11.026  0.6038  0.2106  0.2349
  112OSM   H15A11552   6.918   1.528  10.960  1.7031 -1.2706  1.7767
  112OSM   H15B11553   6.807   1.440  11.066 -1.5354  0.7289  0.2353
  112OSM   H15C11554   6.870   1.585  11.115 -1.3094  0.4239  0.9624
  112OSM    C1411555   6.593   1.581  11.028  0.3324 -0.3443  0.8950
  112OSM   H14A11556   6.514   1.613  10.961  1.2673 -4.1182 -2.4380
  112OSM   H14B11557   6.570   1.619  11.126 -1.9511 -0.7243  0.5649
  112OSM   H14C11558   6.575   1.475  11.025  0.3539 -0.3459  0.8072
  112OSM    C1311559   6.747   1.764  11.001 -0.5267 -0.3285 -0.2510
  112OSM   H13A11560   6.839   1.799  10.956 -0.1367  0.6466  1.2488
  112OSM   H13B11561   6.751   1.781  11.107  1.0128  2.5913 -0.6895
  112OSM   H13C11562   6.672   1.831  10.960 -0.4834  0.1947  0.4991
  112OSM    C1211563   6.722   1.596  10.813  0.3521 -0.8114 -0.1271
  112OSM   H12A11564   6.817   1.619  10.768 -0.7764  1.5729 -1.4416
  112OSM   H12B11565   6.661   1.674  10.770  1.8764  0.7820  0.4954
  112OSM    C1111566   6.676   1.462  10.756  0.0461  0.1452  0.4491
  112OSM   H11A11567   6.721   1.382  10.820  0.7946 -0.0285 -0.2819
  112OSM   H11B11568   6.702   1.465  10.648 -0.6003 -3.3371  0.0852
  112OSM      P11569   6.422   1.515  10.699  0.5413  0.3814  0.2003
  112OSM    O1311570   6.285   1.477  10.749  0.6038  0.1825 -0.2000
  112OSM    O1411571   6.448   1.657  10.708  0.2103 -0.4500  0.0449
  112OSM    O1111572   6.444   1.468  10.548 -0.0558 -0.0445  0.8275
  112OSM    O1211573   6.537   1.445  10.783  0.0079 -0.8473  0.2143
  112OSM    C1S11574   6.453   1.327  10.517 -0.1582  0.0410 -0.4368
  112OSM    H1S11575   6.365   1.281  10.568 -0.3354  1.2013  0.3532
  112OSM    H1T11576   6.554   1.295  10.548 -0.3781  0.5039  0.8251
  112OSM     NF11577   6.433   1.180  10.320  0.4722 -0.5668 -0.2122
  112OSM    HNF11578   6.518   1.139  10.286  0.2230  0.1465 -1.7993
  112OSM    C2S11579   6.428   1.313  10.366  0.3691  1.1841 -0.1177
  112OSM    H2S11580   6.330   1.365  10.357  0.6035  1.9570  1.5191
  112OSM    C3S11581   6.529   1.396  10.278 -0.4346 -0.7966 -0.1302
  112OSM    H3S11582   6.624   1.342  10.294 -1.0709 -2.5408 -1.7644
  112OSM     O311583   6.537   1.529  10.320 -0.6630 -0.5161  0.1401
  112OSM    HO311584   6.525   1.516  10.414 -1.0519 -1.5061 -0.0301
  112OSM    C4S11585   6.501   1.388  10.120 -0.0232 -0.0177 -0.7986
  112OSM    H4S11586   6.434   1.471  10.092  1.3574  1.0198 -1.0974
  112OSM    C5S11587   6.568   1.319  10.025 -0.1091  0.6595  0.6957
  112OSM    H5S11588   6.659   1.269  10.062 -1.3638 -2.0943  0.2487
  112OSM    C6S11589   6.536   1.313   9.876  0.2906 -0.1173 -0.7873
  112OSM    H6S11590   6.506   1.412   9.835 -2.1916 -0.4083  0.1563
  112OSM    H6T11591   6.448   1.247   9.859  0.0056  0.0158  0.1697
  112OSM    C7S11592   6.666   1.264   9.808  0.1549 -0.3103  0.0499
  112OSM    H7S11593   6.716   1.186   9.869  0.0063 -0.7402 -0.3654
  112OSM    H7T11594   6.746   1.341   9.811 -0.0319 -0.1566  1.4494
  112OSM    C8S11595   6.622   1.204   9.674 -0.2669  0.0051  0.5655
  112OSM    H8S11596   6.532   1.140   9.677  0.0127 -0.4074  4.4295
  112OSM    H8T11597   6.699   1.139   9.626 -0.5996  1.1978 -1.7847
  112OSM    C9S11598   6.596   1.321   9.570  0.9109  0.4139 -1.0478
  112OSM    H9S11599   6.657   1.403   9.614  2.1879 -0.3978 -1.2348
  112OSM    H9T11600   6.491   1.355   9.583  0.3603 -1.2174 -0.9773
  112OSM   C10S11601   6.637   1.279   9.432 -0.3182  0.5944  0.0312
  112OSM   H10S11602   6.579   1.190   9.398  1.0977  0.4983 -2.3842
  112OSM   H10T11603   6.744   1.250   9.431 -0.8603 -1.6139 -1.0643
  112OSM   C11S11604   6.600   1.376   9.323 -0.1285 -0.0838  0.1203
  112OSM   H11S11605   6.666   1.463   9.344 -0.0423 -0.0560 -0.2557
  112OSM   H11T11606   6.495   1.412   9.336 -1.0825 -3.0197  1.4974
  112OSM   C12S11607   6.637   1.330   9.186  0.4223  0.2206 -0.3995
  112OSM   H12S11608   6.728   1.266   9.176 -1.0190 -1.9182 -0.5482
  112OSM   H12T11609   6.651   1.423   9.127 -0.6195  2.3677  2.5247
  112OSM   C13S11610   6.532   1.243   9.122  0.4488 -0.1322  0.2621
  112OSM   H13S11611   6.445   1.308   9.102  1.7475  0.9043 -2.6461
  112OSM   H13T11612   6.496   1.167   9.195 -1.4327  0.7699  0.3111
  112OSM   C14S11613   6.572   1.175   8.983 -0.4342 -0.2375 -0.5688
  112OSM   H14S11614   6.511   1.084   8.963 -0.0194 -0.5289 -0.5066
  112OSM   H14T11615   6.672   1.131   9.002 -1.6362 -2.6082  0.7894
  112OSM   C15S11616   6.563   1.274   8.864 -0.2152 -0.3658 -0.2666
  112OSM   H15S11617   6.624   1.364   8.889  1.2355 -1.3308 -0.2538
  112OSM   H15T11618   6.458   1.311   8.852 -0.3169  0.3452  2.2149
  112OSM   C16S11619   6.608   1.210   8.731 -0.1526 -0.1855 -0.1728
  112OSM   H16S11620   6.543   1.124   8.707  0.4205 -0.6741 -0.0164
  112OSM   H16T11621   6.710   1.166   8.745  0.9754  2.3007 -0.0457
  112OSM   C17S11622   6.620   1.315   8.613  0.2820  0.1218 -0.0877
  112OSM   H17S11623   6.520   1.361   8.614 -0.0112 -0.4690  1.6336
  112OSM   H17T11624   6.628   1.250   8.523 -2.1825  0.1379 -0.3804
  112OSM   C18S11625   6.729   1.418   8.629 -0.0205 -0.3436  0.5045
  112OSM   H18S11626   6.722   1.483   8.539  0.3144 -1.1848 -0.1533
  112OSM   H18T11627   6.834   1.383   8.618 -0.7607 -2.2758 -1.2939
  112OSM   H18U11628   6.720   1.474   8.724 -1.6518 -0.9016  0.7152
  112OSM    C1F11629   6.324   1.102  10.328  0.3268 -0.1931 -0.4834
  112OSM     OF11630   6.226   1.145  10.386  0.3064  0.1713  0.0546
  112OSM    C2F11631   6.319   0.964  10.266 -0.2142 -0.3199 -0.3053
  112OSM    H2F11632   6.279   0.898  10.346  2.4815  0.1653  1.5671
  112OSM    H2G11633   6.417   0.927  10.229 -0.6536 -0.0889 -1.7602
  112OSM    C3F11634   6.230   0.960  10.142  0.1789 -0.4199  0.4576
  112OSM    H3F11635   6.132   1.007  10.163  0.3651 -0.1433  0.7136
  112OSM    H3G11636   6.203   0.852  10.139  0.9049 -0.6207  1.0227
  112OSM    C4F11637   6.298   0.979  10.006  0.4753  0.3846  0.1135
  112OSM    H4F11638   6.384   0.910   9.988 -1.9508 -2.1328 -3.1412
  112OSM    H4G11639   6.340   1.082  10.007  0.1456  0.5206  0.7916
  112OSM    C5F11640   6.195   0.946   9.896 -0.0044 -0.2471 -0.3102
  112OSM    H5F11641   6.110   1.018   9.898 -0.4676 -0.7963  0.3577
  112OSM    H5G11642   6.145   0.850   9.918 -0.9768  0.6972  1.9935
  112OSM    C6F11643   6.255   0.954   9.754  0.3402 -0.2030 -0.1016
  112OSM    H6F11644   6.300   0.854   9.735 -0.4792 -0.5093 -0.5073
  112OSM    H6G11645   6.336   1.030   9.750 -0.6050  0.9213  1.3148
  112OSM    C7F11646   6.142   0.970   9.645 -0.7799 -0.5667  0.1565
  112OSM    H7F11647   6.091   1.064   9.674  1.1879  0.3201  0.8759
  112OSM    H7G11648   6.065   0.890   9.650 -0.6162 -0.8698 -1.5362
  112OSM    C8F11649   6.200   0.971   9.498 -0.2303  0.0056  0.8295
  112OSM    H8F11650   6.111   0.959   9.432  0.5588  0.2833 -0.3093
  112OSM    H8G11651   6.252   0.874   9.480 -1.0969 -0.5089  1.0358
  112OSM    C9F11652   6.278   1.097   9.468 -0.1316 -0.1097 -0.3761
  112OSM    H9F11653   6.362   1.122   9.535  1.9628 -2.4763 -1.8929
  112OSM   C10F11654   6.257   1.172   9.357  0.1336  0.4359 -0.0610
  112OSM   H10F11655   6.328   1.254   9.336  0.9641 -1.2354 -5.3596
  112OSM   C11F11656   6.158   1.146   9.244  0.3758 -0.7850 -1.1134
  112OSM   H11F11657   6.128   1.247   9.209 -1.0118 -0.4354  0.9465
  112OSM   H11G11658   6.073   1.093   9.291  0.7121  0.2380  0.7130
  112OSM   C12F11659   6.213   1.062   9.125 -0.1307 -0.3445  0.5319
  112OSM   H12F11660   6.312   1.089   9.082 -1.9252  2.3474 -2.3412
  112OSM   H12G11661   6.143   1.073   9.040 -1.3497 -2.9627  1.0807
  112OSM   C13F11662   6.216   0.911   9.144 -0.4528  0.4301  0.1100
  112OSM   H13F11663   6.143   0.887   9.224 -1.6333  0.9934 -0.7753
  112OSM   H13G11664   6.316   0.882   9.183 -0.4565  1.2036  0.7016
  112OSM   C14F11665   6.165   0.831   9.016 -0.3905 -0.2077 -0.3405
  112OSM   H14F11666   6.067   0.870   8.981  0.3477  1.1776 -0.9454
  112OSM   H14G11667   6.136   0.729   9.050  1.6795 -0.6428  0.2540
  112OSM   C15F11668   6.268   0.827   8.907 -0.4667  0.3026 -0.2160
  112OSM   H15F11669   6.358   0.776   8.948  1.9045  2.3020 -2.5465
  112OSM   H15G11670   6.304   0.928   8.876 -0.9337 -0.0712 -2.0978
  112OSM   C16F11671   6.223   0.760   8.771 -0.3646  0.0993  0.2520
  112OSM   H16F11672   6.171   0.663   8.787 -1.8154  1.0137  1.2202
  112OSM   H16G11673   6.320   0.734   8.722  0.0526  1.5897  0.2520
  112OSM   C17F11674   6.150   0.853   8.674 -0.1831  0.2880  0.5659
  112OSM   H17F11675   6.184   0.957   8.693  0.2963  0.1201  0.6435
  112OSM   H17G11676   6.044   0.850   8.706 -0.3019 -1.2887  0.1231
  112OSM   C18F11677   6.170   0.807   8.526 -0.5979 -0.1839  0.2400
  112OSM   H18F11678   6.092   0.857   8.464  0.2108  3.4153  1.8759
  112OSM   H18G11679   6.151   0.698   8.516 -2.2264  0.2001 -1.5495
  112OSM   H18H11680   6.274   0.821   8.490  0.2191 -3.4550  1.0065
  113OSM      N11681   5.480   0.208  10.964  0.7369 -0.3216  0.4870
  113OSM    C1511682   5.391   0.296  11.052 -0.7127  0.2015  0.1128
  113OSM   H15A11683   5.289   0.262  11.055 -1.5406  2.5564  1.2416
  113OSM   H15B11684   5.386   0.400  11.023  2.0979  0.2175 -0.6263
  113OSM   H15C11685   5.432   0.298  11.152 -0.9880 -1.4421  0.2875
  113OSM    C1411686   5.503   0.071  11.020 -0.1325  0.3482 -0.2950
  113OSM   H14A11687   5.586   0.025  10.969 -0.7141  0.8409 -1.7459
  113OSM   H14B11688   5.410   0.015  11.018 -1.0810  1.8814 -0.7569
  113OSM   H14C11689   5.525   0.077  11.126  1.9123  2.7688 -0.7511
  113OSM    C1311690   5.406   0.189  10.837 -0.6593 -0.7359 -0.8243
  113OSM   H13A11691   5.468   0.131  10.770  0.9354 -0.9546  0.7533
  113OSM   H13B11692   5.366   0.279  10.793  1.5107  0.3012 -0.7882
  113OSM   H13C11693   5.312   0.141  10.861 -0.2541 -1.1712 -0.0452
  113OSM    C1211694   5.613   0.280  10.933  0.3504 -0.2017 -0.4905
  113OSM   H12A11695   5.660   0.318  11.022 -0.9881  1.6865 -0.5185
  113OSM   H12B11696   5.588   0.367  10.874 -0.4201 -1.2415 -1.7406
  113OSM    C1111697   5.714   0.192  10.861  0.9432  0.2291 -0.0199
  113OSM   H11A11698   5.790   0.257  10.813 -0.2670  0.4712 -1.7128
  113OSM   H11B11699   5.655   0.152  10.775 -1.4091 -0.0419  1.6385
  113OSM      P11700   5.856  -0.024  10.863  0.0362 -0.0155 -0.2374
  113OSM    O1311701   5.981   0.037  10.811  0.3434  0.3422  0.5294
  113OSM    O1411702   5.880  -0.139  10.954 -0.6672  0.3631  0.5105
  113OSM    O1111703   5.758  -0.065  10.742 -0.3917 -0.2321 -0.0498
  113OSM    O1211704   5.767   0.082  10.939 -0.4039 -0.0083  0.3439
  113OSM    C1S11705   5.817  -0.048  10.611 -0.2114  0.0684  0.6287
  113OSM    H1S11706   5.916  -0.096  10.599  0.2659  1.3585 -0.9664
  113OSM    H1T11707   5.832   0.060  10.589 -0.0331 -0.0215  0.2960
  113OSM     NF11708   5.800  -0.111  10.368 -0.3753 -0.4482  0.5815
  113OSM    HNF11709   5.762  -0.050  10.299  2.5348 -0.6967 -1.3942
  113OSM    C2S11710   5.740  -0.121  10.502  0.5441  0.8054  0.7524
  113OSM    H2S11711   5.740  -0.231  10.517 -0.0874  0.4106 -1.6724
  113OSM    C3S11712   5.603  -0.051  10.498 -0.3777  0.2566 -0.2121
  113OSM    H3S11713   5.623   0.053  10.464 -1.0558  0.0609 -1.2476
  113OSM     O311714   5.532  -0.038  10.617  0.0015  0.0180 -0.1116
  113OSM    HO311715   5.604  -0.044  10.680  0.4331 -0.7925 -0.6816
  113OSM    C4S11716   5.523  -0.124  10.392  0.8036  0.1915  0.5091
  113OSM    H4S11717   5.509  -0.069  10.298  0.7428 -0.9317 -0.1594
  113OSM    C5S11718   5.478  -0.254  10.407 -0.0038 -0.0699  0.2928
  113OSM    H5S11719   5.500  -0.312  10.497 -1.5190  0.6413  1.1515
  113OSM    C6S11720   5.401  -0.311  10.299 -0.7548  0.5717  0.4823
  113OSM    H6S11721   5.292  -0.309  10.323 -1.1517 -1.0576 -0.9899
  113OSM    H6T11722   5.430  -0.419  10.300 -0.2517  0.6841 -0.9228
  113OSM    C7S11723   5.429  -0.267  10.147 -0.4819  0.1160  0.3533
  113OSM    H7S11724   5.536  -0.260  10.120  0.4202 -1.7968  3.0218
  113OSM    H7T11725   5.371  -0.175  10.123 -1.7828 -0.7723 -0.0740
  113OSM    C8S11726   5.370  -0.366  10.046  0.6643  0.7719 -0.0666
  113OSM    H8S11727   5.260  -0.368  10.060  0.9103  1.2286  2.3831
  113OSM    H8T11728   5.409  -0.466  10.074 -1.7614 -0.5561 -1.1125
  113OSM    C9S11729   5.393  -0.334   9.901 -0.3228 -0.0255 -0.7360
  113OSM    H9S11730   5.499  -0.303   9.900  0.2482 -1.8236  0.2228
  113OSM    H9T11731   5.333  -0.242   9.884  0.8329  0.6589 -1.1612
  113OSM   C10S11732   5.367  -0.432   9.792 -0.2271  0.1666  0.1619
  113OSM   H10S11733   5.262  -0.467   9.794 -0.5337  1.0212  2.7430
  113OSM   H10T11734   5.419  -0.530   9.802 -2.2364 -0.8662  1.0830
  113OSM   C11S11735   5.384  -0.379   9.657  0.2680 -0.2911  0.2077
  113OSM   H11S11736   5.456  -0.441   9.599  2.5711  1.8105  0.6643
  113OSM   H11T11737   5.425  -0.276   9.663 -2.0038  0.7643 -1.3670
  113OSM   C12S11738   5.264  -0.374   9.564  0.3806 -0.0254 -0.0260
  113OSM   H12S11739   5.172  -0.351   9.621  0.1924 -0.0267 -0.3247
  113OSM   H12T11740   5.251  -0.470   9.510 -0.1724  1.3265 -2.4391
  113OSM   C13S11741   5.278  -0.272   9.450 -0.2589 -0.3465  0.5631
  113OSM   H13S11742   5.373  -0.296   9.397 -1.3790  2.2273 -3.0594
  113OSM   H13T11743   5.293  -0.173   9.499 -1.3022  0.0728  0.0729
  113OSM   C14S11744   5.170  -0.269   9.346  0.5915 -0.3516 -0.7991
  113OSM   H14S11745   5.186  -0.177   9.285  0.0134  1.1521  1.2248
  113OSM   H14T11746   5.073  -0.255   9.398  0.7230  0.1293 -0.6747
  113OSM   C15S11747   5.177  -0.392   9.257 -0.1128  0.8824  0.7137
  113OSM   H15S11748   5.167  -0.484   9.318  0.5237 -0.4470 -1.1158
  113OSM   H15T11749   5.276  -0.409   9.212 -1.6703 -0.6036 -2.4898
  113OSM   C16S11750   5.080  -0.391   9.134 -0.0495 -0.0628  0.2958
  113OSM   H16S11751   5.112  -0.311   9.064 -3.0461 -0.0367 -1.2260
  113OSM   H16T11752   4.976  -0.371   9.168 -0.5405 -0.8532 -0.6533
  113OSM   C17S11753   5.072  -0.525   9.050 -0.3319 -0.4052 -0.8266
  113OSM   H17S11754   5.052  -0.615   9.112 -0.2023 -1.0967 -1.7648
  113OSM   H17T11755   5.177  -0.545   9.020  0.2371  1.2870 -0.0747
  113OSM   C18S11756   4.974  -0.520   8.931  0.2843  0.3564 -0.2116
  113OSM   H18S11757   4.982  -0.429   8.868 -0.1259 -1.9393 -3.8519
  113OSM   H18T11758   4.872  -0.526   8.975  1.0735  2.1381  2.0765
  113OSM   H18U11759   4.989  -0.611   8.869  0.4292  0.4719 -0.3475
  113OSM    C1F11760   5.909  -0.168  10.329 -0.1376 -0.6420 -0.3100
  113OSM     OF11761   5.969  -0.246  10.404  0.2303  0.0609 -0.2499
  113OSM    C2F11762   5.935  -0.167  10.183 -0.8890  0.0849 -0.7742
  113OSM    H2F11763   6.033  -0.127  10.148 -1.6537  1.1213 -1.7740
  113OSM    H2G11764   5.871  -0.090  10.136  1.1292  1.9697 -0.6098
  113OSM    C3F11765   5.912  -0.300  10.125  0.5638  0.3955 -0.4460
  113OSM    H3F11766   5.805  -0.321  10.144  0.7662  1.2870  1.9372
  113OSM    H3G11767   5.979  -0.371  10.177 -0.9690  0.4039  1.6599
  113OSM    C4F11768   5.949  -0.310   9.972  0.4118  0.1308 -0.6703
  113OSM    H4F11769   6.058  -0.293   9.963  0.2722  1.2308 -0.4220
  113OSM    H4G11770   5.890  -0.235   9.914 -0.1957  1.3900  1.4515
  113OSM    C5F11771   5.911  -0.455   9.917  0.2007 -0.3816  0.2543
  113OSM    H5F11772   5.801  -0.463   9.930  0.1926 -0.5242  0.0969
  113OSM    H5G11773   5.966  -0.524   9.986 -0.1814 -2.1302 -1.1190
  113OSM    C6F11774   5.952  -0.477   9.768  0.1374  0.4732 -0.6483
  113OSM    H6F11775   5.913  -0.580   9.747 -1.0711  0.7425  0.1607
  113OSM    H6G11776   6.063  -0.474   9.771  0.1961 -0.6654 -1.0201
  113OSM    C7F11777   5.891  -0.376   9.667 -0.5290  0.0513  0.2067
  113OSM    H7F11778   5.954  -0.401   9.579 -0.6427 -2.7368  0.8286
  113OSM    H7G11779   5.916  -0.275   9.704  0.0512  0.1092 -0.3234
  113OSM    C8F11780   5.747  -0.395   9.635  0.4132  0.4916 -0.1401
  113OSM    H8F11781   5.680  -0.396   9.724 -1.5636  1.0313 -1.5459
  113OSM    H8G11782   5.730  -0.499   9.599  3.0424 -0.3949  0.9679
  113OSM    C9F11783   5.682  -0.296   9.538 -0.2096  0.0912 -0.3213
  113OSM    H9F11784   5.675  -0.189   9.562 -0.0609 -0.0310  0.3011
  113OSM   C10F11785   5.639  -0.331   9.415  0.7242 -0.2438  0.1173
  113OSM   H10F11786   5.600  -0.250   9.351 -1.6210 -1.5745 -0.2404
  113OSM   C11F11787   5.643  -0.470   9.352 -0.1333  0.0154  0.0852
  113OSM   H11F11788   5.567  -0.480   9.271 -1.3406  2.5367  0.7802
  113OSM   H11G11789   5.625  -0.539   9.438  0.5369  0.0954  0.2979
  113OSM   C12F11790   5.778  -0.516   9.288  0.1895  0.2764 -0.4221
  113OSM   H12F11791   5.765  -0.615   9.239  0.4514 -0.5273  1.0752
  113OSM   H12G11792   5.849  -0.528   9.373  0.6228  0.0881 -0.8047
  113OSM   C13F11793   5.845  -0.418   9.178 -0.1293  0.2697 -0.3389
  113OSM   H13F11794   5.926  -0.473   9.126  0.1026  0.6660 -0.4027
  113OSM   H13G11795   5.897  -0.340   9.237 -1.6005 -0.2643  1.7874
  113OSM   C14F11796   5.757  -0.337   9.072 -0.7014 -0.1315 -0.6930
  113OSM   H14F11797   5.825  -0.270   9.015 -1.6108  0.5335 -1.0180
  113OSM   H14G11798   5.677  -0.275   9.117  0.1449  0.5297 -0.0486
  113OSM   C15F11799   5.698  -0.435   8.974  0.7637 -0.0951  0.4726
  113OSM   H15F11800   5.655  -0.381   8.887 -0.2731 -0.3059  0.8388
  113OSM   H15G11801   5.617  -0.494   9.023  0.7710 -1.5907 -1.2032
  113OSM   C16F11802   5.802  -0.535   8.920 -0.4507  0.6619  0.0873
  113OSM   H16F11803   5.799  -0.616   8.995  0.8679 -0.7687 -1.3342
  113OSM   H16G11804   5.903  -0.489   8.910 -1.5404  3.4807  0.9295
  113OSM   C17F11805   5.772  -0.598   8.786 -0.0480  0.8902  0.4988
  113OSM   H17F11806   5.758  -0.517   8.711 -1.2837 -0.3450 -0.6512
  113OSM   H17G11807   5.672  -0.646   8.797 -1.3826  3.5050  0.7646
  113OSM   C18F11808   5.885  -0.684   8.717 -0.5323  0.3659  1.2893
  113OSM   H18F11809   5.983  -0.635   8.735  0.0064 -0.5574  0.9058
  113OSM   H18G11810   5.862  -0.679   8.609 -0.7000  0.4315  1.3261
  113OSM   H18H11811   5.897  -0.790   8.748  1.0619 -0.5052 -1.8973
  114OSM      N11812   5.199   6.455  11.407  0.4888  0.1735 -0.1871
  114OSM    C1511813   5.117   6.526  11.310 -0.2525  0.1083 -0.5846
  114OSM   H15A11814   5.158   6.520  11.211 -0.2925  1.6118 -0.7105
  114OSM   H15B11815   5.110   6.629  11.340  2.3932  1.3577 -3.7407
  114OSM   H15C11816   5.015   6.493  11.322  0.5245 -2.4393 -0.2645
  114OSM    C1411817   5.342   6.478  11.384  0.1165  0.3714  0.7280
  114OSM   H14A11818   5.408   6.409  11.434  0.3096 -0.2537 -0.3495
  114OSM   H14B11819   5.380   6.579  11.384 -2.8447  1.6229 -1.0990
  114OSM   H14C11820   5.362   6.452  11.281  1.8984 -1.2188  1.4123
  114OSM    C1311821   5.161   6.513  11.544  0.0900  0.1962  0.1205
  114OSM   H13A11822   5.066   6.472  11.576  1.9532 -2.6955  2.4740
  114OSM   H13B11823   5.171   6.620  11.534 -0.8622  0.0849 -3.2272
  114OSM   H13C11824   5.229   6.481  11.622 -0.0681  1.0250  0.6124
  114OSM    C1211825   5.162   6.304  11.406 -0.6196  0.3529  0.6172
  114OSM   H12A11826   5.193   6.242  11.489 -0.7320 -1.6306 -0.7287
  114OSM   H12B11827   5.216   6.262  11.322 -0.3433 -1.3417  1.5821
  114OSM    C1111828   5.022   6.261  11.373  0.6773 -0.6699  0.7062
  114OSM   H11A11829   4.950   6.331  11.421  1.1540 -0.2376  0.8023
  114OSM   H11B11830   5.006   6.157  11.409  0.5980 -0.7402  0.4753
  114OSM      P11831   4.892   6.176  11.158  0.2365  0.0980 -0.1186
  114OSM    O1311832   4.936   6.034  11.175  0.1574  0.9695 -0.4017
  114OSM    O1411833   4.756   6.204  11.216 -0.1154 -0.2714 -0.1238
  114OSM    O1111834   4.908   6.224  11.007  0.4455  0.2322 -0.2006
  114OSM    O1211835   5.008   6.263  11.231  0.0387 -0.2433 -0.0216
  114OSM    C1S11836   5.033   6.268  10.950 -0.5963 -0.0744 -0.1580
  114OSM    H1S11837   5.119   6.215  10.996 -0.1291  0.6425 -0.1824
  114OSM    H1T11838   5.043   6.377  10.969  0.8111  0.0619 -1.5304
  114OSM     NF11839   5.172   6.265  10.746  0.0094 -0.3090 -0.0355
  114OSM    HNF11840   5.208   6.350  10.709 -1.8416 -0.3219 -2.0854
  114OSM    C2S11841   5.033   6.257  10.800  0.0168  0.2595 -0.7577
  114OSM    H2S11842   4.991   6.161  10.765  1.4637 -0.4958 -0.4938
  114OSM    C3S11843   4.935   6.366  10.740 -0.0837 -0.0359  0.4129
  114OSM    H3S11844   4.980   6.466  10.759 -0.7615  0.3047  0.2749
  114OSM     O311845   4.802   6.374  10.804  0.5701  0.8612  0.1338
  114OSM    HO311846   4.808   6.314  10.878  1.4647 -0.1743 -0.7463
  114OSM    C4S11847   4.920   6.340  10.589 -0.0474 -0.8765 -0.5599
  114OSM    H4S11848   5.016   6.362  10.539  0.5812 -0.9171  0.5812
  114OSM    C5S11849   4.817   6.290  10.524  0.0127 -0.2848 -1.1276
  114OSM    H5S11850   4.724   6.273  10.580  1.0668 -0.2128  0.7199
  114OSM    C6S11851   4.810   6.272  10.378  0.4004 -0.0756 -0.0729
  114OSM    H6S11852   4.707   6.285  10.339 -0.3666 -0.3550  1.7729
  114OSM    H6T11853   4.849   6.172  10.352 -0.6316 -0.2798 -0.8979
  114OSM    C7S11854   4.898   6.368  10.293  0.5532  0.6186 -0.1006
  114OSM    H7S11855   5.007   6.354  10.308  1.0044  0.3765 -3.0763
  114OSM    H7T11856   4.867   6.470  10.322 -0.9386 -0.1165  1.0501
  114OSM    C8S11857   4.876   6.357  10.136  0.8341  0.0852 -0.2212
  114OSM    H8S11858   4.779   6.407  10.115  0.1653 -2.2201 -3.3457
  114OSM    H8T11859   4.863   6.251  10.107  2.4199 -0.1069 -0.3248
  114OSM    C9S11860   4.998   6.416  10.065 -0.0302 -0.0496  1.1933
  114OSM    H9S11861   5.082   6.351  10.097  1.8881  2.7301  2.2905
  114OSM    H9T11862   5.011   6.519  10.106 -2.3247  0.3245  1.1175
  114OSM   C10S11863   4.980   6.427   9.912  0.4347  0.1894  0.2980
  114OSM   H10S11864   4.959   6.331   9.860 -0.9008 -0.8929  2.6794
  114OSM   H10T11865   5.072   6.471   9.866 -0.5397 -1.0477 -3.1319
  114OSM   C11S11866   4.855   6.518   9.878 -0.5639 -0.1719 -0.0942
  114OSM   H11S11867   4.871   6.613   9.934 -0.9260 -0.8968  1.3015
  114OSM   H11T11868   4.759   6.475   9.914 -1.3315  1.2274 -0.3813
  114OSM   C12S11869   4.845   6.555   9.731  0.0835 -0.1429 -0.1643
  114OSM   H12S11870   4.823   6.461   9.677  1.3787 -0.8119  0.4351
  114OSM   H12T11871   4.947   6.587   9.699  0.0381 -0.6922 -0.8822
  114OSM   C13S11872   4.754   6.679   9.707 -0.5204 -0.3635  0.1397
  114OSM   H13S11873   4.757   6.760   9.783 -3.8971  0.7367 -0.6836
  114OSM   H13T11874   4.650   6.642   9.725 -0.0238 -0.9766  1.9453
  114OSM   C14S11875   4.761   6.728   9.560  0.5197 -0.0211  0.6576
  114OSM   H14S11876   4.848   6.791   9.532  0.1156 -0.2637 -1.2507
  114OSM   H14T11877   4.670   6.790   9.543  0.4330 -0.4507 -0.5096
  114OSM   C15S11878   4.757   6.613   9.462 -0.1331  0.7453  0.0798
  114OSM   H15S11879   4.675   6.545   9.495  0.4803 -0.4135 -0.7047
  114OSM   H15T11880   4.854   6.560   9.461  0.3986  1.6961 -1.2220
  114OSM   C16S11881   4.728   6.640   9.311  0.0056  0.7625 -0.2796
  114OSM   H16S11882   4.632   6.695   9.304 -1.0935 -1.0373  0.0770
  114OSM   H16T11883   4.710   6.548   9.252  1.2361  1.0620 -1.1804
  114OSM   C17S11884   4.830   6.727   9.245  0.0886 -0.5790 -0.4075
  114OSM   H17S11885   4.933   6.696   9.270 -0.1014 -1.6514 -0.8513
  114OSM   H17T11886   4.822   6.833   9.275  1.1206  0.4955 -3.5162
  114OSM   C18S11887   4.809   6.731   9.094  0.6714  0.6510 -0.4463
  114OSM   H18S11888   4.862   6.645   9.047 -0.1240 -0.9528  1.4473
  114OSM   H18T11889   4.857   6.827   9.066  0.4907  1.9870  3.2566
  114OSM   H18U11890   4.705   6.743   9.057  1.6443  2.2426 -2.8931
  114OSM    C1F11891   5.256   6.166  10.753 -0.5042 -0.3515 -0.0811
  114OSM     OF11892   5.219   6.069  10.819 -0.3857  0.3873 -0.7524
  114OSM    C2F11893   5.393   6.180  10.692 -0.2989  0.0712  0.6711
  114OSM    H2F11894   5.466   6.138  10.765  0.2477  0.9856  0.6630
  114OSM    H2G11895   5.422   6.285  10.671  1.3366 -0.3691  0.5799
  114OSM    C3F11896   5.403   6.096  10.562  0.0471  0.2926 -1.0457
  114OSM    H3F11897   5.381   5.988  10.581 -1.1487  0.0888 -3.1899
  114OSM    H3G11898   5.506   6.101  10.522  0.6153 -2.6005 -0.1929
  114OSM    C4F11899   5.299   6.155  10.462 -0.0696 -0.7690  0.3289
  114OSM    H4F11900   5.288   6.266  10.464  2.2470 -0.4854  2.3296
  114OSM    H4G11901   5.201   6.109  10.486 -0.5933 -0.7720 -1.6141
  114OSM    C5F11902   5.341   6.113  10.319 -0.7099 -0.4214 -0.3729
  114OSM    H5F11903   5.351   6.002  10.321 -1.8224 -0.5797 -1.9135
  114OSM    H5G11904   5.443   6.152  10.300 -0.7044  0.0598  0.5829
  114OSM    C6F11905   5.240   6.157  10.212  0.5505  0.1123  0.4252
  114OSM    H6F11906   5.227   6.267  10.215  1.2745  0.1956  2.8395
  114OSM    H6G11907   5.147   6.106  10.242 -0.3074  1.2503 -0.2141
  114OSM    C7F11908   5.266   6.099  10.074 -0.3312  0.1169 -0.5018
  114OSM    H7F11909   5.283   5.992  10.099 -3.5732  0.4257  4.6197
  114OSM    H7G11910   5.355   6.149  10.031  0.7533 -0.5449  0.8840
  114OSM    C8F11911   5.147   6.102   9.973 -0.3217 -0.1273 -0.0864
  114OSM    H8F11912   5.133   6.203   9.928  0.6922 -0.0768 -0.3280
  114OSM    H8G11913   5.059   6.076  10.036 -0.9566 -1.4537 -1.4488
  114OSM    C9F11914   5.148   5.995   9.861 -0.0903  0.2057 -0.0217
  114OSM    H9F11915   5.153   5.892   9.899  0.0124  0.3778  0.4357
  114OSM   C10F11916   5.141   6.008   9.726  0.0783  0.3298 -0.6285
  114OSM   H10F11917   5.129   5.925   9.655  1.1577  0.5602 -1.1015
  114OSM   C11F11918   5.128   6.134   9.647 -0.1920 -0.4645 -0.2206
  114OSM   H11F11919   5.172   6.140   9.545 -0.1026 -1.5812 -0.2610
  114OSM   H11G11920   5.179   6.223   9.690 -0.6912 -0.4373  0.3189
  114OSM   C12F11921   4.972   6.161   9.622 -0.2328 -0.2191 -0.0525
  114OSM   H12F11922   4.959   6.268   9.595  0.0992  0.7277  3.1683
  114OSM   H12G11923   4.916   6.157   9.717 -0.3079 -0.4360 -0.1057
  114OSM   C13F11924   4.902   6.070   9.522 -0.5848  0.1306 -0.0141
  114OSM   H13F11925   4.892   5.977   9.583  1.8316 -0.4555 -0.3890
  114OSM   H13G11926   4.978   6.044   9.444 -1.9977 -1.8335 -0.8392
  114OSM   C14F11927   4.774   6.123   9.448  0.6597  0.1616 -0.2238
  114OSM   H14F11928   4.802   6.222   9.406  5.2934 -1.5638 -1.8770
  114OSM   H14G11929   4.698   6.149   9.524  1.6550 -2.3383  1.7748
  114OSM   C15F11930   4.714   6.029   9.339 -0.3487 -0.3318 -0.8638
  114OSM   H15F11931   4.712   5.929   9.388  1.6791 -0.1322 -0.2878
  114OSM   H15G11932   4.786   6.037   9.255  0.6005  0.2683 -0.0206
  114OSM   C16F11933   4.571   6.067   9.293  0.7371 -0.0319  0.2939
  114OSM   H16F11934   4.504   6.059   9.382  2.3498  1.3188  1.6908
  114OSM   H16G11935   4.542   5.986   9.223  0.7670  1.4173 -1.4681
  114OSM   C17F11936   4.557   6.208   9.240 -0.3147  0.1108  0.0000
  114OSM   H17F11937   4.615   6.286   9.293  1.6459 -0.1567 -1.6122
  114OSM   H17G11938   4.453   6.236   9.216 -1.5425 -1.8762  2.5809
  114OSM   C18F11939   4.633   6.224   9.100  0.9782 -0.2306  0.3189
  114OSM   H18F11940   4.608   6.321   9.051 -2.3667 -1.1583 -0.0004
  114OSM   H18G11941   4.592   6.143   9.037  0.2274  0.8358 -0.6008
  114OSM   H18H11942   4.742   6.205   9.109  1.1334 -0.1648 -1.1321
  115OSM      N11943   0.862   1.275   5.789 -0.0825 -0.6097  0.2412
  115OSM    C1511944   0.850   1.128   5.792 -0.1114 -0.0049 -0.0947
  115OSM   H15A11945   0.817   1.102   5.692  2.1163  0.4541 -1.0236
  115OSM   H15B11946   0.773   1.093   5.859  1.1432 -2.7732  0.0472
  115OSM   H15C11947   0.945   1.080   5.813  0.2525  0.4546 -0.6406
  115OSM    C1411948   0.977   1.309   5.691  0.0376 -0.2041  0.2167
  115OSM   H14A11949   1.002   1.411   5.666 -0.5467 -0.3030 -0.8434
  115OSM   H14B11950   0.952   1.277   5.591  0.1687 -1.3213  0.5301
  115OSM   H14C11951   1.071   1.257   5.707 -0.5795 -1.3413  0.2506
  115OSM    C1311952   0.725   1.325   5.744  0.7124  0.1447 -0.0381
  115OSM   H13A11953   0.736   1.426   5.707  0.0383 -0.8004 -3.0158
  115OSM   H13B11954   0.654   1.325   5.826  0.7671  0.2914  0.0108
  115OSM   H13C11955   0.691   1.272   5.657 -2.0017  1.0457  0.3897
  115OSM    C1211956   0.896   1.340   5.925  0.1207  1.2738 -0.2832
  115OSM   H12A11957   0.905   1.447   5.915  1.1997  1.1197 -1.0954
  115OSM   H12B11958   0.998   1.312   5.946  0.4074  0.1774 -2.7678
  115OSM    C1111959   0.807   1.310   6.052  0.0515  0.0964 -0.5675
  115OSM   H11A11960   0.857   1.371   6.131 -0.1331 -1.3178  0.6909
  115OSM   H11B11961   0.811   1.204   6.082 -1.7667 -0.5276 -2.2860
  115OSM      P11962   0.538   1.280   6.070 -0.2586  0.6809 -0.2391
  115OSM    O1311963   0.423   1.359   6.035 -0.2278 -0.0699 -0.2982
  115OSM    O1411964   0.538   1.144   6.001 -0.0255  0.0460  0.4173
  115OSM    O1111965   0.547   1.249   6.230  0.2884  0.4403  0.2218
  115OSM    O1211966   0.672   1.357   6.030 -0.7745  0.2552 -0.6395
  115OSM    C1S11967   0.583   1.363   6.316 -0.4616  0.2487  0.4170
  115OSM    H1S11968   0.524   1.455   6.297  0.8881  1.7324  2.8456
  115OSM    H1T11969   0.690   1.387   6.297 -0.0790 -2.5688 -1.7949
  115OSM     NF11970   0.571   1.440   6.556  0.1372  0.3521 -0.1929
  115OSM    HNF11971   0.666   1.443   6.586 -0.6203 -1.4405  2.7430
  115OSM    C2S11972   0.559   1.321   6.467  0.3911  0.3103 -0.2787
  115OSM    H2S11973   0.454   1.285   6.472 -0.3001  1.5532 -3.4793
  115OSM    C3S11974   0.652   1.205   6.502  0.6140  0.7615 -0.3034
  115OSM    H3S11975   0.755   1.244   6.491  1.1990 -0.5448  0.3381
  115OSM     O311976   0.640   1.096   6.412  0.2259 -0.2471 -0.7771
  115OSM    HO311977   0.619   1.141   6.330 -0.9363  1.9460  0.6096
  115OSM    C4S11978   0.619   1.161   6.647  0.2292 -0.1207 -0.3349
  115OSM    H4S11979   0.517   1.182   6.680  0.1844  1.5854 -1.4008
  115OSM    C5S11980   0.701   1.105   6.735 -0.5491 -0.1226 -0.4009
  115OSM    H5S11981   0.807   1.085   6.715  0.7480  2.7764  2.6722
  115OSM    C6S11982   0.654   1.067   6.874  0.7712 -0.0785  0.1244
  115OSM    H6S11983   0.727   1.112   6.944 -0.3180 -1.0678  1.9879
  115OSM    H6T11984   0.664   0.958   6.896 -0.4621 -0.3245 -0.4337
  115OSM    C7S11985   0.512   1.102   6.919  1.2225  0.2282 -0.4051
  115OSM    H7S11986   0.435   1.072   6.846  1.5938  3.0717 -2.0990
  115OSM    H7T11987   0.502   1.212   6.928  0.1640  0.0528  0.9869
  115OSM    C8S11988   0.480   1.044   7.059  0.4986  0.1568  0.2464
  115OSM    H8S11989   0.557   1.085   7.129  1.2070 -1.5747  0.5335
  115OSM    H8T11990   0.481   0.933   7.054 -0.1073  0.1944 -1.9693
  115OSM    C9S11991   0.342   1.079   7.097  0.0155  0.2042  0.0083
  115OSM    H9S11992   0.279   1.054   7.009  1.0789 -1.3835 -0.3409
  115OSM    H9T11993   0.344   1.190   7.091 -1.9086  0.2178 -1.0116
  115OSM   C10S11994   0.285   1.020   7.228  0.1285 -0.8526  0.4005
  115OSM   H10S11995   0.329   0.918   7.238  0.2463 -0.6704  2.1086
  115OSM   H10T11996   0.175   1.025   7.239  0.3516 -0.6396  3.1664
  115OSM   C11S11997   0.318   1.084   7.367  0.4442 -0.6213  0.3328
  115OSM   H11S11998   0.276   1.187   7.378 -1.7880 -1.4646  0.2375
  115OSM   H11T11999   0.429   1.095   7.371  0.4920 -1.4420  1.6377
  115OSM   C12S12000   0.274   0.999   7.489 -0.5819 -0.5010  0.6028
  115OSM   H12S12001   0.306   0.898   7.456  1.3672  0.5255 -0.8263
  115OSM   H12T12002   0.163   0.996   7.489 -0.6008 -0.4847 -0.9333
  115OSM   C13S12003   0.333   1.035   7.627 -0.4339  0.1080 -0.7499
  115OSM   H13S12004   0.270   1.121   7.658  1.2003  2.4884 -3.5623
  115OSM   H13T12005   0.440   1.067   7.634 -0.2233 -0.8578  1.3885
  115OSM   C14S12006   0.306   0.908   7.718 -0.4884 -0.0022 -0.9080
  115OSM   H14S12007   0.392   0.839   7.730  0.6292  1.5834  0.6327
  115OSM   H14T12008   0.216   0.865   7.668  0.3132  0.6669 -3.0083
  115OSM   C15S12009   0.247   0.959   7.852  0.1296  0.4319 -0.6877
  115OSM   H15S12010   0.156   1.020   7.837 -0.7074 -0.8657 -1.0189
  115OSM   H15T12011   0.317   1.033   7.898 -0.9704  0.3594  1.2030
  115OSM   C16S12012   0.195   0.865   7.961 -0.5926 -0.1635  0.1756
  115OSM   H16S12013   0.100   0.826   7.919 -0.6016 -1.3469  1.2309
  115OSM   H16T12014   0.162   0.919   8.053  3.3830  2.2964  0.3724
  115OSM   C17S12015   0.284   0.741   7.990 -0.2412  0.3771 -0.5034
  115OSM   H17S12016   0.300   0.676   7.901  1.6642  1.0844 -0.7285
  115OSM   H17T12017   0.222   0.687   8.065 -2.1610  2.3973 -0.5689
  115OSM   C18S12018   0.416   0.775   8.060  0.8047  0.1289 -0.3107
  115OSM   H18S12019   0.398   0.835   8.152  1.2957 -0.6442  0.3050
  115OSM   H18T12020   0.483   0.835   7.995  1.9270 -0.9506 -0.1915
  115OSM   H18U12021   0.462   0.679   8.090 -0.8994 -0.5902  0.1317
  115OSM    C1F12022   0.472   1.525   6.583  0.5624 -0.1726 -0.0057
  115OSM     OF12023   0.356   1.505   6.541  0.5368  0.0367 -0.2071
  115OSM    C2F12024   0.498   1.642   6.669 -0.1299  0.8684  0.0699
  115OSM    H2F12025   0.431   1.728   6.650 -2.5505 -0.5435  1.6220
  115OSM    H2G12026   0.603   1.675   6.654  0.0419  1.6334  2.5029
  115OSM    C3F12027   0.456   1.592   6.814  0.6432 -0.4470 -0.0383
  115OSM    H3F12028   0.355   1.547   6.814 -0.5023  1.9301 -1.1770
  115OSM    H3G12029   0.444   1.681   6.880 -1.4320 -0.6031 -0.1358
  115OSM    C4F12030   0.554   1.489   6.881 -1.0145 -0.1831 -0.1406
  115OSM    H4F12031   0.651   1.538   6.857 -0.6924 -0.3593  0.7530
  115OSM    H4G12032   0.555   1.397   6.820 -1.5290  0.7021 -1.5339
  115OSM    C5F12033   0.533   1.475   7.031 -0.3711  0.0500 -0.5414
  115OSM    H5F12034   0.474   1.385   7.059  1.1558 -0.1114  2.6286
  115OSM    H5G12035   0.494   1.570   7.073  1.4520  0.9899 -0.8612
  115OSM    C6F12036   0.668   1.479   7.110 -0.2776 -0.1972  1.1208
  115OSM    H6F12037   0.708   1.581   7.090 -4.2161  0.9484 -2.2006
  115OSM    H6G12038   0.726   1.401   7.057  0.6711  0.0520  1.7510
  115OSM    C7F12039   0.655   1.463   7.265 -0.3984  0.1355 -0.3902
  115OSM    H7F12040   0.626   1.357   7.282  2.9970 -0.7670  0.6661
  115OSM    H7G12041   0.577   1.533   7.300 -0.5992 -0.9481  1.4608
  115OSM    C8F12042   0.788   1.494   7.336  0.3642 -0.6030  0.1866
  115OSM    H8F12043   0.764   1.494   7.444 -0.7846 -3.8781  0.0487
  115OSM    H8G12044   0.824   1.594   7.306  2.7943 -0.3973  3.2815
  115OSM    C9F12045   0.882   1.383   7.295  0.5576 -0.1966 -0.4513
  115OSM    H9F12046   0.902   1.387   7.187 -0.9439  0.0950 -0.7371
  115OSM   C10F12047   0.938   1.292   7.375 -0.4454  0.2285 -0.1887
  115OSM   H10F12048   0.984   1.205   7.324 -0.7439 -0.1592  0.1923
  115OSM   C11F12049   0.921   1.280   7.526 -0.9507 -0.2227  0.3388
  115OSM   H11F12050   0.876   1.181   7.548 -0.7088 -0.5220 -0.4844
  115OSM   H11G12051   0.859   1.357   7.575 -0.0227  0.8214 -0.0803
  115OSM   C12F12052   1.056   1.293   7.600  0.2664  0.4564 -0.3892
  115OSM   H12F12053   1.099   1.395   7.595 -1.7040  1.3240 -0.3179
  115OSM   H12G12054   1.130   1.219   7.560 -1.2422 -1.8582  0.8607
  115OSM   C13F12055   1.040   1.278   7.753 -0.7354  0.2908 -0.5375
  115OSM   H13F12056   1.002   1.177   7.776 -0.9298  0.5541  0.3568
  115OSM   H13G12057   0.966   1.348   7.796  0.4873  0.7285  0.9692
  115OSM   C14F12058   1.170   1.299   7.830 -0.0914  0.3377 -0.1707
  115OSM   H14F12059   1.205   1.405   7.828  1.2617 -0.0972 -0.2625
  115OSM   H14G12060   1.257   1.250   7.783  0.0281 -0.6086  0.9827
  115OSM   C15F12061   1.160   1.255   7.974  0.6012  0.2057  0.0313
  115OSM   H15F12062   1.149   1.145   7.979 -1.9570  0.4353  3.0842
  115OSM   H15G12063   1.064   1.297   8.010  2.0524  0.5288  4.0426
  115OSM   C16F12064   1.270   1.296   8.074 -0.8948  0.4110 -0.5472
  115OSM   H16F12065   1.294   1.405   8.068 -0.1226  0.2460 -0.4812
  115OSM   H16G12066   1.358   1.236   8.043 -0.8969  0.4599 -0.6511
  115OSM   C17F12067   1.225   1.254   8.216 -0.7675  0.2947  0.0085
  115OSM   H17F12068   1.216   1.143   8.220  0.5924  0.1739  0.3648
  115OSM   H17G12069   1.124   1.296   8.237 -0.3871  1.4815 -0.4529
  115OSM   C18F12070   1.333   1.290   8.321  0.3302 -0.1344 -0.5456
  115OSM   H18F12071   1.322   1.242   8.421  1.2752  0.4572 -0.1444
  115OSM   H18G12072   1.329   1.400   8.338  0.1353 -0.4152  1.5581
  115OSM   H18H12073   1.437   1.262   8.296  0.0237 -1.6425 -0.2259
  116OSM      N12074   6.223   4.199   6.002  0.2394 -0.7030  0.5413
  116OSM    C1512075   6.091   4.255   5.987  0.3817 -0.8266 -0.1773
  116OSM   H15A12076   6.023   4.242   6.070 -0.4296 -0.1674 -0.7161
  116OSM   H15B12077   6.035   4.230   5.898  0.6202  3.5127 -1.7558
  116OSM   H15C12078   6.112   4.360   5.978  0.8885 -0.6372  2.4430
  116OSM    C1412079   6.299   4.237   5.878  0.3342  0.6202  0.4954
  116OSM   H14A12080   6.294   4.344   5.867 -2.1999  0.5633  0.4909
  116OSM   H14B12081   6.257   4.193   5.789  1.1753  1.1814 -0.1954
  116OSM   H14C12082   6.402   4.204   5.884  0.3070 -0.0225 -1.6850
  116OSM    C1312083   6.291   4.257   6.123  0.0357  0.0099 -0.0339
  116OSM   H13A12084   6.301   4.364   6.123  2.8228 -0.1542 -1.6299
  116OSM   H13B12085   6.394   4.224   6.126  0.6079  1.7437  1.6479
  116OSM   H13C12086   6.233   4.222   6.207 -1.7203  1.3601 -0.6338
  116OSM    C1212087   6.222   4.046   6.010  0.1869 -0.4261  0.3216
  116OSM   H12A12088   6.328   4.028   6.006  0.5844  1.6716  0.3506
  116OSM   H12B12089   6.164   4.008   5.927  0.5316 -0.7303  0.2194
  116OSM    C1112090   6.157   3.983   6.137 -0.8646 -0.0155  0.6801
  116OSM   H11A12091   6.213   4.020   6.226 -0.8640 -0.0323  0.6872
  116OSM   H11B12092   6.167   3.873   6.147  1.0994  0.1806  1.2612
  116OSM      P12093   5.965   4.070   6.287 -0.3219 -0.3465 -0.1715
  116OSM    O1312094   5.823   4.098   6.269 -0.0111 -0.2237  0.2217
  116OSM    O1412095   5.993   3.967   6.387  0.5826  0.0322  0.3318
  116OSM    O1112096   6.048   4.206   6.311 -0.7393 -0.2930 -0.3336
  116OSM    O1212097   6.023   4.024   6.151  0.4210  0.2031  0.4735
  116OSM    C1S12098   6.006   4.291   6.414  0.4043 -0.2096 -0.1269
  116OSM    H1S12099   5.899   4.286   6.445  0.4442  1.6815  0.4060
  116OSM    H1T12100   6.020   4.395   6.380  1.3363  0.5644  2.3958
  116OSM     NF12101   6.036   4.338   6.660 -0.6686 -0.4214  0.2848
  116OSM    HNF12102   6.061   4.435   6.665 -0.9895 -0.1154 -2.4418
  116OSM    C2S12103   6.091   4.271   6.545 -0.0681  0.2766  0.3515
  116OSM    H2S12104   6.073   4.163   6.566 -2.8881  0.8674  1.5575
  116OSM    C3S12105   6.236   4.298   6.526  0.2987 -0.6556  0.3633
  116OSM    H3S12106   6.252   4.402   6.489  0.2146 -0.2646  1.3959
  116OSM     O312107   6.294   4.217   6.426 -0.4003 -0.1083 -0.6991
  116OSM    HO312108   6.223   4.159   6.398 -0.4768  0.1093 -0.9626
  116OSM    C4S12109   6.312   4.274   6.659 -0.3355  0.5028  0.5679
  116OSM    H4S12110   6.295   4.179   6.712  2.5877  0.7895  2.2190
  116OSM    C5S12111   6.395   4.364   6.710  0.0228 -0.6820 -0.8333
  116OSM    H5S12112   6.415   4.461   6.662 -1.8103 -0.1166 -0.5440
  116OSM    C6S12113   6.464   4.347   6.844  0.2423  0.0460  0.3134
  116OSM    H6S12114   6.567   4.388   6.851  0.0835  0.1674  2.4105
  116OSM    H6T12115   6.477   4.240   6.868 -0.0746  0.7259  4.1090
  116OSM    C7S12116   6.375   4.403   6.958  0.0832  0.3804 -0.1559
  116OSM    H7S12117   6.368   4.513   6.968 -2.2310  0.1493  1.6584
  116OSM    H7T12118   6.406   4.367   7.058 -0.4019 -0.7582 -0.3971
  116OSM    C8S12119   6.233   4.359   6.961  0.1734  0.3223 -0.1211
  116OSM    H8S12120   6.224   4.249   6.948 -0.6791 -0.2169  3.7264
  116OSM    H8T12121   6.172   4.393   6.874 -0.7630 -3.2615 -1.0335
  116OSM    C9S12122   6.152   4.386   7.092 -0.2925 -0.2120 -0.2860
  116OSM    H9S12123   6.203   4.322   7.168  1.8345 -1.5353 -2.6906
  116OSM    H9T12124   6.049   4.347   7.085 -0.6337  0.5696  0.2724
  116OSM   C10S12125   6.147   4.531   7.137  0.0362 -0.3548 -0.0251
  116OSM   H10S12126   6.092   4.588   7.059 -1.5627 -0.4228  1.0112
  116OSM   H10T12127   6.249   4.575   7.143 -0.0311  0.0152 -1.3340
  116OSM   C11S12128   6.070   4.556   7.273  0.0410  0.4745  0.1315
  116OSM   H11S12129   5.998   4.476   7.301 -1.2372  1.4005 -0.4335
  116OSM   H11T12130   6.008   4.648   7.263  0.6323  0.7448 -1.2250
  116OSM   C12S12131   6.177   4.576   7.386  0.2282  0.9849  0.6423
  116OSM   H12S12132   6.243   4.660   7.354 -0.0268  0.4951 -1.2796
  116OSM   H12T12133   6.239   4.485   7.400 -0.5610  0.4177  0.4872
  116OSM   C13S12134   6.116   4.618   7.522  0.3609 -0.1629 -0.0873
  116OSM   H13S12135   6.025   4.556   7.538  0.2926  0.1993  1.0101
  116OSM   H13T12136   6.101   4.728   7.520  1.6971  0.1119  2.2229
  116OSM   C14S12137   6.204   4.588   7.642 -0.3375 -0.7774  0.2653
  116OSM   H14S12138   6.301   4.640   7.624 -0.7728 -0.7989 -2.6172
  116OSM   H14T12139   6.224   4.479   7.640 -0.9502 -0.8875 -1.1749
  116OSM   C15S12140   6.145   4.624   7.779  0.2939  0.5612  0.7888
  116OSM   H15S12141   6.048   4.576   7.805  0.1322 -0.5560 -1.5987
  116OSM   H15T12142   6.106   4.728   7.776 -1.5512 -0.0139  2.3939
  116OSM   C16S12143   6.249   4.613   7.895  0.3178 -0.0834 -0.1566
  116OSM   H16S12144   6.344   4.668   7.880  1.5509 -1.8896  0.5805
  116OSM   H16T12145   6.268   4.505   7.916  1.1385  0.3499  1.4671
  116OSM   C17S12146   6.188   4.672   8.032 -0.4276  0.7161  0.3717
  116OSM   H17S12147   6.081   4.649   8.053  0.0384 -2.4195 -0.1548
  116OSM   H17T12148   6.198   4.782   8.026 -0.5817  1.1969  5.1239
  116OSM   C18S12149   6.261   4.630   8.163  0.7888  0.2853  0.0933
  116OSM   H18S12150   6.359   4.683   8.155  1.9333 -1.3003  2.4709
  116OSM   H18T12151   6.279   4.521   8.173 -0.2668  0.1854  1.0635
  116OSM   H18U12152   6.197   4.671   8.244 -0.7888  1.7589 -1.7864
  116OSM    C1F12153   5.937   4.298   6.737 -0.1941  0.5327 -0.1072
  116OSM     OF12154   5.906   4.178   6.746  0.7619  0.5312 -0.1759
  116OSM    C2F12155   5.858   4.404   6.816  0.0198 -0.4545  0.5316
  116OSM    H2F12156   5.842   4.496   6.755  1.0362  0.4154  1.5429
  116OSM    H2G12157   5.916   4.421   6.909 -0.9963 -2.1646  1.5375
  116OSM    C3F12158   5.730   4.356   6.876 -0.0012  0.4501 -0.1329
  116OSM    H3F12159   5.763   4.281   6.951 -0.3398  1.4673  1.0625
  116OSM    H3G12160   5.673   4.316   6.789  0.2226  1.4219 -0.7427
  116OSM    C4F12161   5.655   4.456   6.953  1.0046 -0.3247  0.0563
  116OSM    H4F12162   5.552   4.414   6.959  0.9295 -0.2506 -0.6442
  116OSM    H4G12163   5.636   4.556   6.909 -3.2286 -0.1248  1.7976
  116OSM    C5F12164   5.727   4.490   7.088 -0.6076 -0.4100 -0.6108
  116OSM    H5F12165   5.822   4.540   7.057 -0.2468 -0.2964  0.5915
  116OSM    H5G12166   5.759   4.397   7.139  0.8956  0.2955 -0.1728
  116OSM    C6F12167   5.647   4.584   7.170 -0.9311  0.8203 -0.6133
  116OSM    H6F12168   5.544   4.543   7.176 -1.5397  2.4440  2.9128
  116OSM    H6G12169   5.657   4.681   7.118 -1.8548  0.6394 -1.1620
  116OSM    C7F12170   5.693   4.602   7.316  0.2738 -0.3873  0.0873
  116OSM    H7F12171   5.790   4.656   7.316 -0.8246  1.7310 -1.5894
  116OSM    H7G12172   5.702   4.499   7.355  0.5606  0.5498  2.6391
  116OSM    C8F12173   5.586   4.686   7.397 -0.5491  0.0997 -0.1161
  116OSM    H8F12174   5.534   4.756   7.330 -0.8666 -0.4957 -0.4988
  116OSM    H8G12175   5.631   4.743   7.481  0.4828  3.1188 -2.5281
  116OSM    C9F12176   5.489   4.580   7.454 -0.3949  0.0702  0.2350
  116OSM    H9F12177   5.457   4.497   7.389 -1.2340 -0.8896  1.8004
  116OSM   C10F12178   5.439   4.590   7.575  0.0075  0.2671 -0.4942
  116OSM   H10F12179   5.378   4.504   7.606  2.1706 -1.0401  0.3604
  116OSM   C11F12180   5.463   4.694   7.686 -0.2194  0.7393  0.3367
  116OSM   H11F12181   5.365   4.726   7.727 -0.2550  1.4479 -0.2662
  116OSM   H11G12182   5.509   4.786   7.645 -0.6602 -0.1310 -2.3308
  116OSM   C12F12183   5.549   4.637   7.805  0.1661 -0.2966 -0.1871
  116OSM   H12F12184   5.582   4.719   7.872 -2.1096 -0.5623  1.3809
  116OSM   H12G12185   5.639   4.588   7.764 -1.2277 -1.4008 -2.0744
  116OSM   C13F12186   5.466   4.547   7.909 -0.1304 -0.3544  1.1807
  116OSM   H13F12187   5.427   4.466   7.844  0.2818 -0.8128  1.5000
  116OSM   H13G12188   5.382   4.608   7.948 -0.9249 -1.6933  1.6227
  116OSM   C14F12189   5.553   4.476   8.018 -0.5930  0.4667  1.1753
  116OSM   H14F12190   5.629   4.430   7.951 -0.0155  3.2479 -0.2443
  116OSM   H14G12191   5.489   4.396   8.060 -1.3478  0.0263 -0.6962
  116OSM   C15F12192   5.616   4.572   8.116 -0.1680 -0.0668 -0.2154
  116OSM   H15F12193   5.677   4.649   8.063 -0.1979  0.6049  0.6918
  116OSM   H15G12194   5.691   4.519   8.179  0.5853 -0.5108 -1.4389
  116OSM   C16F12195   5.517   4.648   8.205 -0.0124 -0.7229 -0.4365
  116OSM   H16F12196   5.464   4.567   8.259  3.0785 -0.7453  2.8947
  116OSM   H16G12197   5.461   4.716   8.136  1.6379 -4.1890 -5.7886
  116OSM   C17F12198   5.579   4.725   8.317  0.7453 -0.2251  0.6423
  116OSM   H17F12199   5.500   4.787   8.366 -1.1719 -1.7201 -0.4293
  116OSM   H17G12200   5.654   4.795   8.274 -1.4718  1.7152 -0.3080
  116OSM   C18F12201   5.644   4.644   8.425  1.2952 -0.1129 -0.2587
  116OSM   H18F12202   5.711   4.712   8.483  1.8336  0.4281 -1.4850
  116OSM   H18G12203   5.700   4.555   8.387  1.3553  0.1280 -0.7411
  116OSM   H18H12204   5.573   4.598   8.497  1.1949  3.1543  1.9386
  117OSM      N12205   1.489   1.763   6.051 -1.1593  0.4268 -0.4241
  117OSM    C1512206   1.604   1.719   6.145 -0.9515 -0.4421  0.2067
  117OSM   H15A12207   1.657   1.806   6.181 -0.7305 -0.4237 -0.1540
  117OSM   H15B12208   1.657   1.636   6.100 -2.4579 -0.9108 -0.7819
  117OSM   H15C12209   1.564   1.666   6.230 -1.2879 -3.3556 -1.6428
  117OSM    C1412210   1.404   1.859   6.128  0.8991  0.2097 -0.0153
  117OSM   H14A12211   1.349   1.928   6.065  0.6952  0.4711  0.4409
  117OSM   H14B12212   1.458   1.924   6.196 -1.9319  2.0696  0.6192
  117OSM   H14C12213   1.334   1.802   6.187 -0.4696 -0.7741 -2.4351
  117OSM    C1312214   1.551   1.836   5.936 -0.6573 -0.9559 -0.2213
  117OSM   H13A12215   1.617   1.915   5.968  1.3042 -2.2864 -0.7464
  117OSM   H13B12216   1.470   1.883   5.884 -0.9776 -2.4009 -1.1112
  117OSM   H13C12217   1.600   1.767   5.867 -0.5264  1.7602 -3.0579
  117OSM    C1212218   1.424   1.639   5.996 -0.1751 -1.1894 -1.0381
  117OSM   H12A12219   1.505   1.586   5.950  1.4351 -0.6869  1.0571
  117OSM   H12B12220   1.358   1.679   5.921  0.3479 -0.7772 -1.2826
  117OSM    C1112221   1.334   1.549   6.092 -0.1084 -0.2374  0.4628
  117OSM   H11A12222   1.400   1.500   6.167  0.5776  0.2678  0.2011
  117OSM   H11B12223   1.287   1.477   6.022 -0.2186  0.0209  0.2685
  117OSM      P12224   1.082   1.600   6.148 -0.1808  0.3247  0.0676
  117OSM    O1312225   1.010   1.713   6.215  0.0471  0.1564  0.0532
  117OSM    O1412226   1.060   1.577   6.002 -0.2092 -0.0679 -0.2262
  117OSM    O1112227   1.047   1.470   6.226 -0.0519  0.4039  0.2197
  117OSM    O1212228   1.237   1.622   6.163  0.3468  0.7395 -0.0833
  117OSM    C1S12229   1.079   1.459   6.363  0.2836  0.1134 -0.6340
  117OSM    H1S12230   1.029   1.548   6.409 -0.6028 -0.7916  0.2001
  117OSM    H1T12231   1.190   1.464   6.370  0.3939 -1.1271 -1.2601
  117OSM     NF12232   1.019   1.344   6.577 -0.0404  0.4307  0.6192
  117OSM    HNF12233   1.101   1.312   6.624 -1.4719 -0.6402  2.5592
  117OSM    C2S12234   1.019   1.331   6.429  0.0729 -0.1544 -0.4164
  117OSM    H2S12235   0.916   1.325   6.390 -1.0986  1.3182  2.2004
  117OSM    C3S12236   1.105   1.214   6.375 -0.2455  0.6439  0.4287
  117OSM    H3S12237   1.212   1.238   6.393  0.3907 -2.4011  1.1126
  117OSM     O312238   1.080   1.188   6.243  0.0751 -0.3911  0.1415
  117OSM    HO312239   1.027   1.263   6.214  0.6263  0.0778  0.3222
  117OSM    C4S12240   1.078   1.083   6.451  0.5787  0.0195 -0.4957
  117OSM    H4S12241   0.975   1.046   6.437  0.4399  0.8653 -1.9226
  117OSM    C5S12242   1.158   1.021   6.534  0.1557 -1.2196  0.1738
  117OSM    H5S12243   1.259   1.062   6.551 -1.0107  1.5741  0.7968
  117OSM    C6S12244   1.125   0.901   6.613  0.4594 -0.2854  0.5757
  117OSM    H6S12245   1.168   0.907   6.716  1.4617  0.7257  0.1209
  117OSM    H6T12246   1.187   0.816   6.576 -0.5966 -0.6566 -0.3883
  117OSM    C7S12247   0.987   0.856   6.620  0.5683 -0.0906  0.3635
  117OSM    H7S12248   0.938   0.846   6.520  0.1093 -2.8977  0.8137
  117OSM    H7T12249   0.928   0.925   6.684 -1.0819 -1.4235  0.3499
  117OSM    C8S12250   0.976   0.719   6.693 -0.6714  0.0946  0.6603
  117OSM    H8S12251   1.036   0.645   6.636 -0.0784  0.3773  0.9116
  117OSM    H8T12252   0.871   0.684   6.683 -0.6142  0.1601 -0.3177
  117OSM    C9S12253   1.008   0.710   6.843  0.1340  0.0202  0.1983
  117OSM    H9S12254   1.109   0.755   6.851  1.1053 -1.7036 -1.5173
  117OSM    H9T12255   1.000   0.601   6.867  2.8373 -0.5721 -1.2147
  117OSM   C10S12256   0.917   0.805   6.930 -0.1502  0.4211  0.5898
  117OSM   H10S12257   0.812   0.778   6.905 -0.1750  1.6121 -0.7514
  117OSM   H10T12258   0.938   0.910   6.900 -1.6446  0.1884 -1.5335
  117OSM   C11S12259   0.943   0.777   7.076  0.2210 -0.5536 -0.4410
  117OSM   H11S12260   1.041   0.825   7.097 -1.5002  3.3113 -0.4946
  117OSM   H11T12261   0.950   0.667   7.094 -1.9673 -0.5724  0.5831
  117OSM   C12S12262   0.835   0.838   7.170 -0.0625 -0.1344  0.7554
  117OSM   H12S12263   0.737   0.792   7.146  0.4694 -2.4441  2.6800
  117OSM   H12T12264   0.813   0.945   7.146 -1.7574 -0.6208 -0.0196
  117OSM   C13S12265   0.870   0.816   7.317  0.6243 -0.4290  0.6764
  117OSM   H13S12266   0.975   0.848   7.332  0.1183  0.5920  2.1965
  117OSM   H13T12267   0.860   0.707   7.337 -0.3723 -0.8324 -1.6416
  117OSM   C14S12268   0.784   0.896   7.409  0.4993  0.0443  0.1535
  117OSM   H14S12269   0.679   0.864   7.388  0.6003  1.2804 -2.6262
  117OSM   H14T12270   0.789   1.003   7.382 -1.4096  0.2115  0.3308
  117OSM   C15S12271   0.808   0.869   7.556  0.3058  0.7395 -0.0597
  117OSM   H15S12272   0.748   0.937   7.620  0.4081  1.5615 -0.8235
  117OSM   H15T12273   0.915   0.891   7.575  0.9699 -0.3146 -2.1462
  117OSM   C16S12274   0.798   0.726   7.616  0.0122 -0.5333  0.1721
  117OSM   H16S12275   0.884   0.669   7.574 -0.4927 -0.5739 -0.8372
  117OSM   H16T12276   0.702   0.680   7.584 -0.5029 -0.3221  1.3282
  117OSM   C17S12277   0.797   0.725   7.767  0.5795 -0.5704 -0.4798
  117OSM   H17S12278   0.772   0.625   7.808  2.8679 -1.5963 -1.3929
  117OSM   H17T12279   0.713   0.789   7.799  1.1505  0.2883 -0.6594
  117OSM   C18S12280   0.926   0.772   7.826  0.6415  0.7080 -0.0255
  117OSM   H18S12281   0.918   0.736   7.931  2.6357 -2.6869 -0.9005
  117OSM   H18T12282   0.929   0.883   7.829 -0.6413  0.7618 -0.2737
  117OSM   H18U12283   1.020   0.734   7.782  1.3466 -2.3366  3.5867
  117OSM    C1F12284   0.927   1.410   6.640  0.3314 -0.3015  0.0781
  117OSM     OF12285   0.848   1.478   6.571 -0.0751  0.6460 -0.1176
  117OSM    C2F12286   0.905   1.415   6.788  0.0711  0.4173 -0.2261
  117OSM    H2F12287   0.820   1.346   6.805  1.4690 -2.0129 -2.3941
  117OSM    H2G12288   0.868   1.515   6.819 -0.4170  0.6043 -1.3590
  117OSM    C3F12289   1.024   1.365   6.864 -0.5618  0.4684  0.7580
  117OSM    H3F12290   1.013   1.408   6.966 -0.2712 -0.8056  1.3498
  117OSM    H3G12291   1.122   1.403   6.829 -0.9232 -0.5099 -1.4567
  117OSM    C4F12292   1.027   1.211   6.872 -0.5323 -0.3535  0.6119
  117OSM    H4F12293   1.042   1.177   6.767 -1.9458 -1.7309  0.8260
  117OSM    H4G12294   0.940   1.162   6.920  1.1360 -0.0594  4.2152
  117OSM    C5F12295   1.146   1.156   6.939  0.2012 -0.9091  0.0796
  117OSM    H5F12296   1.235   1.192   6.883 -0.6317  0.3440 -0.4944
  117OSM    H5G12297   1.149   1.045   6.932  0.4683 -0.8730 -0.4618
  117OSM    C6F12298   1.161   1.194   7.088 -0.1352  0.4846 -0.5891
  117OSM    H6F12299   1.062   1.169   7.133 -1.4592  3.5140 -1.5225
  117OSM    H6G12300   1.161   1.303   7.109 -1.8626  0.4893 -0.4605
  117OSM    C7F12301   1.287   1.132   7.150 -0.0213 -0.3448 -0.6346
  117OSM    H7F12302   1.378   1.158   7.091  1.1123  0.2347  1.2676
  117OSM    H7G12303   1.269   1.022   7.150 -0.6662 -0.2406 -0.9767
  117OSM    C8F12304   1.291   1.168   7.296  0.2333 -0.2764  0.2044
  117OSM    H8F12305   1.348   1.096   7.358 -0.5038  0.7738  2.1786
  117OSM    H8G12306   1.191   1.156   7.340  0.2382 -0.8790  0.0620
  117OSM    C9F12307   1.350   1.310   7.313  0.1453 -0.2666  0.0905
  117OSM    H9F12308   1.287   1.381   7.258  0.0592 -0.3297  0.1055
  117OSM   C10F12309   1.459   1.364   7.367  0.7765 -0.0608 -0.3707
  117OSM   H10F12310   1.473   1.473   7.361  0.3985 -0.0173 -0.4841
  117OSM   C11F12311   1.564   1.277   7.424 -0.1772 -0.3300  0.0780
  117OSM   H11F12312   1.654   1.278   7.359  0.9215 -0.9814  1.5234
  117OSM   H11G12313   1.538   1.171   7.445  0.2395 -0.7213 -1.3109
  117OSM   C12F12314   1.613   1.343   7.551  0.2394  0.0990 -0.3617
  117OSM   H12F12315   1.647   1.448   7.535 -1.1014  0.7207  0.6653
  117OSM   H12G12316   1.698   1.278   7.582 -0.8503 -0.0738  2.4991
  117OSM   C13F12317   1.522   1.349   7.678 -0.5019  0.3636 -0.0240
  117OSM   H13F12318   1.498   1.241   7.687  0.3521  0.2134  0.6790
  117OSM   H13G12319   1.428   1.402   7.652 -0.2547 -0.0896 -1.9943
  117OSM   C14F12320   1.600   1.380   7.806  0.3058  0.2500  0.4939
  117OSM   H14F12321   1.680   1.303   7.815  0.9525  0.1282 -4.1728
  117OSM   H14G12322   1.538   1.352   7.894  0.8323 -0.9254  0.5176
  117OSM   C15F12323   1.650   1.526   7.816 -0.2220 -0.3974 -0.7674
  117OSM   H15F12324   1.585   1.607   7.777  0.9037 -0.0616 -2.0602
  117OSM   H15G12325   1.738   1.542   7.750 -0.3105  2.1424 -0.3837
  117OSM   C16F12326   1.691   1.564   7.959  0.3515 -0.5885  0.3423
  117OSM   H16F12327   1.735   1.666   7.958  0.6456 -0.7095 -0.9945
  117OSM   H16G12328   1.777   1.500   7.991  1.1580  0.1606 -0.2812
  117OSM   C17F12329   1.582   1.578   8.064  0.1932 -0.4956  0.3868
  117OSM   H17F12330   1.510   1.655   8.028  0.4353 -0.5176 -0.1600
  117OSM   H17G12331   1.525   1.483   8.065 -0.0255 -0.3809 -0.2551
  117OSM   C18F12332   1.638   1.619   8.205 -0.2659  0.0512  0.8136
  117OSM   H18F12333   1.668   1.725   8.194 -0.2795  0.0969  1.1900
  117OSM   H18G12334   1.726   1.562   8.244  1.4382  0.8943 -1.5508
  117OSM   H18H12335   1.561   1.608   8.284  0.4459 -0.2026  1.4957
  118OSM      N12336   2.846   4.097   6.053  0.4250 -0.2797  0.0226
  118OSM    C1512337   2.852   4.211   6.151  0.0951 -0.2132 -0.0541
  118OSM   H15A12338   2.950   4.210   6.196 -0.2314 -0.1691  0.6694
  118OSM   H15B12339   2.774   4.198   6.224 -0.3241 -0.8187 -0.5915
  118OSM   H15C12340   2.844   4.305   6.099  0.2422 -0.3867 -0.3957
  118OSM    C1412341   2.707   4.077   6.014 -0.3652 -0.6489  0.5473
  118OSM   H14A12342   2.651   4.032   6.094 -2.7006  0.2038 -0.5398
  118OSM   H14B12343   2.698   4.013   5.927 -0.9965 -0.4351  0.4505
  118OSM   H14C12344   2.666   4.175   5.997 -0.4585 -0.7506  0.1823
  118OSM    C1312345   2.930   4.136   5.942 -0.6418 -0.7697  0.3831
  118OSM   H13A12346   2.895   4.219   5.882  0.7336  0.0125  0.6244
  118OSM   H13B12347   2.946   4.056   5.870 -0.9423  1.0567 -1.8375
  118OSM   H13C12348   3.028   4.165   5.976 -0.5901 -1.4434  0.8248
  118OSM    C1212349   2.913   3.973   6.112  0.2648  0.0602 -0.5658
  118OSM   H12A12350   3.018   3.994   6.120 -0.0997  1.5989  0.6578
  118OSM   H12B12351   2.903   3.899   6.035  2.0461 -1.0260  0.1962
  118OSM    C1112352   2.853   3.915   6.243  0.0242 -0.1179  0.1234
  118OSM   H11A12353   2.848   3.990   6.325 -0.4718  0.6790 -0.6086
  118OSM   H11B12354   2.913   3.830   6.279 -1.7426 -0.8286  1.5928
  118OSM      P12355   2.693   3.735   6.156 -0.6447  0.1627  0.1792
  118OSM    O1312356   2.564   3.736   6.086 -0.3182  0.1572  0.3478
  118OSM    O1412357   2.812   3.694   6.072 -0.2256  0.0313 -0.1937
  118OSM    O1112358   2.676   3.655   6.291 -0.2295 -0.4065 -0.8211
  118OSM    O1212359   2.715   3.879   6.213 -0.0026  0.5996 -0.7283
  118OSM    C1S12360   2.594   3.712   6.400 -0.1672 -0.7324  0.4801
  118OSM    H1S12361   2.485   3.717   6.378 -0.5360 -0.2114  2.2584
  118OSM    H1T12362   2.625   3.816   6.422 -2.1071 -0.1577  0.6794
  118OSM     NF12363   2.512   3.679   6.629 -0.5295 -0.2020 -0.4863
  118OSM    HNF12364   2.542   3.750   6.693 -0.1729  0.1801 -1.0715
  118OSM    C2S12365   2.607   3.636   6.532  0.5247 -0.6047  0.0393
  118OSM    H2S12366   2.589   3.528   6.513 -2.4110 -0.2320  0.2138
  118OSM    C3S12367   2.754   3.651   6.581 -0.1001 -0.3762  0.1868
  118OSM    H3S12368   2.772   3.759   6.601 -2.2948 -0.3956  2.7621
  118OSM     O312369   2.858   3.602   6.486  0.4861 -0.4919  0.2840
  118OSM    HO312370   2.837   3.643   6.402  0.2211  0.2843  0.7207
  118OSM    C4S12371   2.779   3.582   6.714 -0.1308  0.0360  0.1337
  118OSM    H4S12372   2.787   3.649   6.801 -0.4384 -1.5238  1.4274
  118OSM    C5S12373   2.795   3.452   6.738  0.6435  0.6958 -0.0994
  118OSM    H5S12374   2.795   3.378   6.656  0.7993  1.0186 -0.3892
  118OSM    C6S12375   2.825   3.393   6.878  0.1327 -0.3479  0.3583
  118OSM    H6S12376   2.935   3.374   6.879  0.2585  0.3171  0.1277
  118OSM    H6T12377   2.791   3.289   6.894  1.0251 -0.3397  2.6095
  118OSM    C7S12378   2.799   3.471   7.009  0.7828  0.0705 -1.1776
  118OSM    H7S12379   2.692   3.492   7.027  0.9456  0.1812 -0.2851
  118OSM    H7T12380   2.853   3.568   7.014  3.7497 -1.5091  2.0146
  118OSM    C8S12381   2.856   3.392   7.124 -0.4070  0.4404 -0.3420
  118OSM    H8S12382   2.966   3.384   7.111 -0.4652  2.6492 -3.0450
  118OSM    H8T12383   2.815   3.289   7.127 -0.6836  0.4952 -1.6750
  118OSM    C9S12384   2.820   3.445   7.264 -0.3283 -0.3864 -0.1033
  118OSM    H9S12385   2.709   3.443   7.260 -0.3207 -0.8614 -0.1319
  118OSM    H9T12386   2.864   3.546   7.275  1.7049 -1.2418  0.2455
  118OSM   C10S12387   2.866   3.356   7.383 -0.4924  0.2627  0.3758
  118OSM   H10S12388   2.974   3.335   7.368 -0.3913  0.9573  0.0684
  118OSM   H10T12389   2.808   3.263   7.367  2.7685 -1.7928 -0.5531
  118OSM   C11S12390   2.847   3.423   7.518 -0.5258  0.6987  0.1800
  118OSM   H11S12391   2.738   3.431   7.540 -0.7033  0.3547 -0.5331
  118OSM   H11T12392   2.893   3.524   7.512 -1.3485  1.2215  1.8840
  118OSM   C12S12393   2.898   3.346   7.642  0.3889 -0.6645  0.5144
  118OSM   H12S12394   3.009   3.341   7.641  0.4568  0.1211 -1.7503
  118OSM   H12T12395   2.850   3.248   7.624  0.8885 -0.6983 -0.7275
  118OSM   C13S12396   2.873   3.406   7.775 -0.0070 -0.5884  0.1489
  118OSM   H13S12397   2.766   3.418   7.802 -0.7773 -1.7578 -2.1817
  118OSM   H13T12398   2.909   3.511   7.762  0.1094 -0.6759 -0.2459
  118OSM   C14S12399   2.949   3.337   7.889 -0.1969 -0.0323 -0.4814
  118OSM   H14S12400   2.928   3.395   7.981  0.0014 -2.2268  1.0400
  118OSM   H14T12401   3.058   3.342   7.871 -0.4526  1.8223 -1.8389
  118OSM   C15S12402   2.900   3.196   7.907 -1.3392  0.0075  0.0915
  118OSM   H15S12403   2.932   3.126   7.826  2.0654 -0.1652  1.4160
  118OSM   H15T12404   2.790   3.206   7.920 -1.2943  1.5792 -0.5615
  118OSM   C16S12405   2.963   3.151   8.042 -0.6690  0.9797  0.5025
  118OSM   H16S12406   2.940   3.220   8.126  0.2346  1.0855  0.6738
  118OSM   H16T12407   3.073   3.151   8.029 -0.7727 -0.7563 -0.7390
  118OSM   C17S12408   2.914   3.012   8.088  0.2479  0.2389 -0.0895
  118OSM   H17S12409   2.806   3.015   8.116 -0.0212 -1.3173 -0.8604
  118OSM   H17T12410   2.960   2.985   8.185  1.4294  0.1713 -0.6536
  118OSM   C18S12411   2.908   2.905   7.980  0.2733 -0.9748 -0.6074
  118OSM   H18S12412   3.014   2.879   7.955  0.2630  0.0921 -1.8324
  118OSM   H18T12413   2.852   2.939   7.890  0.9119  0.0886 -0.6195
  118OSM   H18U12414   2.861   2.817   8.029 -1.3848  0.9128  1.3883
  118OSM    C1F12415   2.388   3.652   6.632 -0.2044 -0.0338 -0.3756
  118OSM     OF12416   2.337   3.590   6.543  0.1129  0.2988 -0.5119
  118OSM    C2F12417   2.316   3.697   6.752  0.5608  0.1269  0.0810
  118OSM    H2F12418   2.348   3.797   6.789  0.4415 -0.1387  0.9309
  118OSM    H2G12419   2.329   3.621   6.832 -0.5499  0.0933  0.2567
  118OSM    C3F12420   2.163   3.702   6.726  0.5728 -0.9866 -0.2839
  118OSM    H3F12421   2.130   3.601   6.694 -1.5183 -1.2096  2.1970
  118OSM    H3G12422   2.130   3.779   6.653  0.5074 -0.2729  0.4836
  118OSM    C4F12423   2.098   3.736   6.862  1.2886  0.0846 -0.6603
  118OSM    H4F12424   1.997   3.770   6.830  1.4505 -0.1825 -1.4722
  118OSM    H4G12425   2.144   3.825   6.911 -2.8142 -0.0443  4.2676
  118OSM    C5F12426   2.092   3.630   6.971 -0.2276  0.0094 -0.4307
  118OSM    H5F12427   2.193   3.603   7.011 -1.4684 -1.6191  1.8803
  118OSM    H5G12428   2.038   3.537   6.944  0.8907 -0.8099  0.0426
  118OSM    C6F12429   2.032   3.682   7.104 -0.7605 -0.3959  0.1405
  118OSM    H6F12430   1.925   3.705   7.083 -0.3232  1.6865 -0.0390
  118OSM    H6G12431   2.072   3.783   7.125 -0.7234 -0.5238  0.6881
  118OSM    C7F12432   2.053   3.583   7.218  0.7163 -0.2552  0.9830
  118OSM    H7F12433   2.154   3.537   7.217  0.3835 -1.0055  1.0338
  118OSM    H7G12434   1.976   3.503   7.223 -0.9257  1.3430  3.0390
  118OSM    C8F12435   2.032   3.654   7.354  0.3863  0.1530  0.3622
  118OSM    H8F12436   2.012   3.563   7.414 -2.0647 -0.0277 -0.5793
  118OSM    H8G12437   1.929   3.696   7.349 -0.0080 -0.6284  1.5749
  118OSM    C9F12438   2.142   3.736   7.412  1.0952 -0.1238  0.2571
  118OSM    H9F12439   2.240   3.738   7.362  0.6258 -1.2016 -0.7602
  118OSM   C10F12440   2.144   3.798   7.536  0.4351 -0.5404  0.4768
  118OSM   H10F12441   2.231   3.859   7.564  0.8429 -1.3792  1.0651
  118OSM   C11F12442   2.023   3.803   7.636 -0.7623 -0.4648 -0.3557
  118OSM   H11F12443   1.946   3.743   7.583 -0.0170 -2.4383  0.6609
  118OSM   H11G12444   1.986   3.905   7.657  0.8689  0.2622 -0.8886
  118OSM   C12F12445   2.057   3.727   7.759  0.1383  0.3682 -0.9997
  118OSM   H12F12446   2.147   3.780   7.799 -0.4059  0.5061  0.0771
  118OSM   H12G12447   2.082   3.619   7.753 -1.8038 -0.1267 -0.9200
  118OSM   C13F12448   1.945   3.728   7.873 -0.5819 -0.0663  0.4603
  118OSM   H13F12449   1.858   3.676   7.826 -0.1007 -0.5464  0.0964
  118OSM   H13G12450   1.905   3.828   7.898 -0.6488 -0.4767  2.1921
  118OSM   C14F12451   1.985   3.647   7.994 -0.1005  0.2027  0.4803
  118OSM   H14F12452   2.052   3.564   7.961 -1.5482 -1.8380  2.3188
  118OSM   H14G12453   1.895   3.607   8.045 -1.2960  2.3297  0.1231
  118OSM   C15F12454   2.077   3.728   8.097  0.0906 -0.6593 -0.3394
  118OSM   H15F12455   2.009   3.794   8.155  0.7365 -0.2016 -0.0970
  118OSM   H15G12456   2.157   3.792   8.055  2.0673 -2.9620 -0.2859
  118OSM   C16F12457   2.160   3.635   8.185 -0.2973 -0.1857  0.1869
  118OSM   H16F12458   2.229   3.576   8.121  0.8949  1.1434  0.2142
  118OSM   H16G12459   2.108   3.562   8.252  1.4817  0.0727  1.9502
  118OSM   C17F12460   2.248   3.719   8.279  0.0226  1.0040  0.5697
  118OSM   H17F12461   2.180   3.770   8.350 -0.4267  1.9045 -0.4773
  118OSM   H17G12462   2.308   3.798   8.230  2.4830 -0.6690  0.6971
  118OSM   C18F12463   2.344   3.637   8.362  0.1681 -0.1751 -0.7899
  118OSM   H18F12464   2.426   3.589   8.305  0.5523 -1.7044  0.9580
  118OSM   H18G12465   2.284   3.555   8.405  0.3907 -0.3104 -0.7350
  118OSM   H18H12466   2.387   3.702   8.442  0.6900  0.3973 -1.5213
  119OSM      N12467   6.356   1.072   5.788 -0.2509  0.2407  0.2643
  119OSM    C1512468   6.489   1.052   5.853 -0.6607 -0.0375  0.1590
  119OSM   H15A12469   6.483   1.072   5.959  1.9182 -2.8099  0.9732
  119OSM   H15B12470   6.560   1.122   5.813 -0.3032 -1.0530 -1.0595
  119OSM   H15C12471   6.529   0.955   5.827 -0.6355  0.2575 -0.9257
  119OSM    C1412472   6.303   1.201   5.843 -0.0999 -0.2147  0.2916
  119OSM   H14A12473   6.287   1.202   5.949  0.6986  1.5514  0.4327
  119OSM   H14B12474   6.205   1.225   5.804 -0.8487 -1.3445  1.4044
  119OSM   H14C12475   6.379   1.278   5.839 -0.1377 -0.0576  2.0511
  119OSM    C1312476   6.367   1.095   5.642 -0.3871  0.1111 -0.1678
  119OSM   H13A12477   6.430   1.176   5.608 -1.5894  2.4774  2.8230
  119OSM   H13B12478   6.266   1.123   5.615  0.2620  1.5136 -1.3464
  119OSM   H13C12479   6.385   1.001   5.592 -0.1740 -0.6000  1.2296
  119OSM    C1212480   6.261   0.962   5.827 -0.2082 -0.2413  0.2206
  119OSM   H12A12481   6.292   0.932   5.926  0.4241  0.2883  0.1859
  119OSM   H12B12482   6.281   0.876   5.765 -0.8957 -1.4114  1.5421
  119OSM    C1112483   6.116   0.992   5.836 -0.4595  0.4923 -0.2468
  119OSM   H11A12484   6.075   1.047   5.749  2.2071 -1.0733 -2.6635
  119OSM   H11B12485   6.100   1.067   5.916  0.9028  2.8898 -2.0786
  119OSM      P12486   5.899   0.859   5.899 -0.0357 -0.2513  0.2792
  119OSM    O1312487   5.822   0.952   5.815 -0.4213  0.0265 -0.0465
  119OSM    O1412488   5.853   0.718   5.913 -0.9238 -0.1469  0.5638
  119OSM    O1112489   5.907   0.920   6.042  0.2970 -0.0228  0.0208
  119OSM    O1212490   6.049   0.870   5.853  0.7841 -0.4034  0.1684
  119OSM    C1S12491   5.957   0.847   6.154 -0.3791 -0.2235 -0.2390
  119OSM    H1S12492   6.063   0.877   6.163  0.2072 -1.0958 -3.2596
  119OSM    H1T12493   5.944   0.737   6.147  0.1597 -0.2267 -1.2856
  119OSM     NF12494   5.955   0.811   6.409 -0.1658  0.4433 -0.9259
  119OSM    HNF12495   5.890   0.750   6.453 -1.0592  1.2828 -1.0378
  119OSM    C2S12496   5.886   0.870   6.296 -1.0470 -0.5975  0.6562
  119OSM    H2S12497   5.893   0.981   6.308  3.9301 -0.5153 -0.6618
  119OSM    C3S12498   5.740   0.836   6.288 -0.3470 -0.3876 -0.9500
  119OSM    H3S12499   5.725   0.726   6.294  1.6070 -0.7534 -2.0897
  119OSM     O312500   5.678   0.885   6.173  0.2658  0.1351  0.6817
  119OSM    HO312501   5.750   0.909   6.115 -1.2390 -1.5071 -2.1194
  119OSM    C4S12502   5.672   0.890   6.411  0.4619  0.1030 -0.3963
  119OSM    H4S12503   5.661   0.817   6.493  0.1948  0.3351 -0.2234
  119OSM    C5S12504   5.628   1.015   6.428  0.8217  0.1801  0.4656
  119OSM    H5S12505   5.623   1.087   6.346 -1.9669 -1.3799 -0.8464
  119OSM    C6S12506   5.547   1.053   6.555  0.6044  0.4240  0.5404
  119OSM    H6S12507   5.599   1.145   6.587  2.3085 -0.3664  0.1356
  119OSM    H6T12508   5.554   0.981   6.639  0.3169 -0.2515 -0.0037
  119OSM    C7S12509   5.403   1.078   6.527 -0.3926 -0.2002 -0.5543
  119OSM    H7S12510   5.355   0.980   6.507 -2.0172  0.3872  0.3387
  119OSM    H7T12511   5.390   1.135   6.433  0.1393  1.7420  0.5077
  119OSM    C8S12512   5.329   1.139   6.646  0.4047 -0.3363 -0.4906
  119OSM    H8S12513   5.229   1.168   6.609  1.0787  2.0460 -0.6046
  119OSM    H8T12514   5.384   1.222   6.694  1.4167 -1.2779  0.0361
  119OSM    C9S12515   5.306   1.031   6.756 -0.6185  0.1756 -0.0354
  119OSM    H9S12516   5.403   1.006   6.804 -0.6117  0.4706  0.1105
  119OSM    H9T12517   5.254   0.946   6.706 -2.7937  0.4842  1.5280
  119OSM   C10S12518   5.230   1.085   6.874 -0.1672  0.6435 -0.0415
  119OSM   H10S12519   5.128   1.105   6.835 -0.2462 -1.0226 -0.7370
  119OSM   H10T12520   5.285   1.177   6.905 -1.3353  1.2400  0.3623
  119OSM   C11S12521   5.235   1.001   7.004 -0.6465 -0.1116 -0.5705
  119OSM   H11S12522   5.336   0.967   7.034 -0.4929  0.5240 -0.3656
  119OSM   H11T12523   5.180   0.907   6.978  0.6027 -0.5703 -1.6302
  119OSM   C12S12524   5.161   1.065   7.113 -0.3838  0.7371  0.0407
  119OSM   H12S12525   5.051   1.063   7.096 -0.6936 -0.0978  1.8603
  119OSM   H12T12526   5.191   1.172   7.111  2.5814  0.0383  1.4363
  119OSM   C13S12527   5.207   0.998   7.242 -0.1784  0.0104 -0.6202
  119OSM   H13S12528   5.317   1.010   7.238 -0.1622  0.6177  0.9097
  119OSM   H13T12529   5.175   0.893   7.227 -0.6524 -0.2271  1.6605
  119OSM   C14S12530   5.137   1.072   7.359 -0.0077  0.2860 -0.9284
  119OSM   H14S12531   5.028   1.067   7.341  0.3785 -0.0245 -3.4798
  119OSM   H14T12532   5.167   1.179   7.362 -1.1251  0.5857  0.7556
  119OSM   C15S12533   5.161   1.024   7.500 -1.0438 -0.0499  1.3811
  119OSM   H15S12534   5.268   1.045   7.518 -0.6950 -0.5564  0.0569
  119OSM   H15T12535   5.163   0.913   7.504  1.5219 -0.0764  0.9395
  119OSM   C16S12536   5.064   1.084   7.601 -0.1946 -0.6582 -0.4360
  119OSM   H16S12537   4.965   1.034   7.594 -0.9760  0.7081  0.3268
  119OSM   H16T12538   5.052   1.193   7.586  1.4069 -0.4006 -0.0960
  119OSM   C17S12539   5.109   1.062   7.748 -0.0963  0.0199 -0.0138
  119OSM   H17S12540   5.218   1.082   7.738 -0.4167  1.1558 -1.6351
  119OSM   H17T12541   5.087   0.959   7.782 -0.4908  0.3338  0.6930
  119OSM   C18S12542   5.057   1.152   7.866 -0.4912  0.0000 -0.1474
  119OSM   H18S12543   5.077   1.258   7.842  1.8936 -0.7790 -2.0951
  119OSM   H18T12544   5.110   1.119   7.957  0.2900  0.8868 -0.2674
  119OSM   H18U12545   4.948   1.143   7.882 -0.6591  0.5145 -0.9239
  119OSM    C1F12546   6.085   0.814   6.446 -0.4237 -0.5412  0.5026
  119OSM     OF12547   6.166   0.849   6.361  0.5386  0.5763  0.5011
  119OSM    C2F12548   6.128   0.747   6.576 -0.6349  0.1688  0.4984
  119OSM    H2F12549   6.223   0.692   6.561  0.7771  2.3162  1.1313
  119OSM    H2G12550   6.051   0.678   6.616  2.5211 -2.2944  2.8100
  119OSM    C3F12551   6.150   0.850   6.691 -0.2300  0.0553  0.0478
  119OSM    H3F12552   6.050   0.889   6.718 -0.1478  0.5974 -0.4205
  119OSM    H3G12553   6.206   0.930   6.638 -1.2789  0.5914 -0.2705
  119OSM    C4F12554   6.210   0.786   6.816 -0.1430 -0.2876  0.0323
  119OSM    H4F12555   6.302   0.726   6.799  0.2563  0.2168  0.3738
  119OSM    H4G12556   6.136   0.722   6.868 -1.8623  2.2533  0.8822
  119OSM    C5F12557   6.251   0.891   6.920  0.1181 -0.0174  0.3084
  119OSM    H5F12558   6.169   0.965   6.918  0.3764  0.4202  2.7801
  119OSM    H5G12559   6.342   0.936   6.876 -0.7362  0.7198 -0.7583
  119OSM    C6F12560   6.282   0.841   7.072 -0.1779  0.0936  0.3069
  119OSM    H6F12561   6.186   0.838   7.127 -0.0649  2.6693  0.7771
  119OSM    H6G12562   6.338   0.927   7.115  0.9765  0.5246 -1.9381
  119OSM    C7F12563   6.345   0.710   7.082  0.8136 -0.0031 -0.4528
  119OSM    H7F12564   6.443   0.698   7.032  0.9221  1.8621 -0.7528
  119OSM    H7G12565   6.279   0.642   7.025  0.5061 -1.4981  1.5839
  119OSM    C8F12566   6.363   0.653   7.225  0.5702  0.4153  0.2119
  119OSM    H8F12567   6.407   0.551   7.222 -2.9056 -1.2981  1.4408
  119OSM    H8G12568   6.258   0.645   7.261  0.2239 -1.0202 -1.0176
  119OSM    C9F12569   6.444   0.750   7.310  0.2981  0.1206  0.0315
  119OSM    H9F12570   6.543   0.764   7.265 -0.2411 -1.3980 -1.7397
  119OSM   C10F12571   6.416   0.792   7.431  0.0389 -0.1005 -0.1833
  119OSM   H10F12572   6.488   0.851   7.490 -0.0492 -0.6473  0.4922
  119OSM   C11F12573   6.301   0.747   7.508  0.0062 -0.3150 -0.1856
  119OSM   H11F12574   6.282   0.640   7.484  1.6503 -0.1919 -2.4494
  119OSM   H11G12575   6.216   0.805   7.468  2.3987  3.8284  0.1551
  119OSM   C12F12576   6.318   0.765   7.657  0.2085  0.3685  0.0070
  119OSM   H12F12577   6.216   0.764   7.702  0.4497  0.4418  0.5643
  119OSM   H12G12578   6.361   0.863   7.686 -1.6097  1.6920 -1.5146
  119OSM   C13F12579   6.391   0.647   7.722  0.1355 -0.5658  0.1348
  119OSM   H13F12580   6.498   0.654   7.693  0.1404  0.4086  0.3362
  119OSM   H13G12581   6.352   0.550   7.685 -1.1767 -0.1698  0.4029
  119OSM   C14F12582   6.369   0.649   7.873 -0.4922  0.8168 -0.4454
  119OSM   H14F12583   6.408   0.550   7.906 -2.6372 -0.7954 -2.3999
  119OSM   H14G12584   6.264   0.626   7.901 -0.5026 -0.8773 -1.6676
  119OSM   C15F12585   6.440   0.757   7.958 -0.2029 -0.0379 -0.1171
  119OSM   H15F12586   6.394   0.856   7.935 -1.5382 -0.8749 -1.1922
  119OSM   H15G12587   6.544   0.751   7.919  0.2167 -1.7009  1.1588
  119OSM   C16F12588   6.437   0.718   8.111 -0.3623  0.1450  0.4332
  119OSM   H16F12589   6.481   0.616   8.109  1.5867  0.9552 -1.1504
  119OSM   H16G12590   6.330   0.721   8.142 -2.2149  0.1910 -4.8862
  119OSM   C17F12591   6.519   0.810   8.196 -0.4727 -0.1042 -0.4503
  119OSM   H17F12592   6.532   0.757   8.293 -0.0911  1.6618  0.5042
  119OSM   H17G12593   6.458   0.901   8.210  0.5251  0.8126 -1.7894
  119OSM   C18F12594   6.656   0.866   8.147  0.7276  0.3083  0.4752
  119OSM   H18F12595   6.716   0.904   8.233 -0.7703  3.1921  0.3780
  119OSM   H18G12596   6.646   0.950   8.075 -0.2468 -1.2326 -1.2619
  119OSM   H18H12597   6.714   0.781   8.106 -1.1910 -0.1054 -1.5507
  120OSM      N12598   5.481   4.983   6.189  0.5453  0.5474 -0.3946
  120OSM    C1512599   5.467   5.132   6.178  0.1725 -0.6532 -0.8743
  120OSM   H15A12600   5.548   5.201   6.200  0.6387  0.2788 -4.7905
  120OSM   H15B12601   5.383   5.172   6.231 -0.0214 -0.0990 -1.5855
  120OSM   H15C12602   5.442   5.147   6.074 -1.6817 -3.3709 -0.9074
  120OSM    C1412603   5.357   4.923   6.125  0.6365  0.0340  0.2725
  120OSM   H14A12604   5.354   4.816   6.142  2.5725  0.0596  1.0633
  120OSM   H14B12605   5.364   4.939   6.018  1.2630 -0.0955  0.2859
  120OSM   H14C12606   5.268   4.962   6.172  0.9739  0.4191  0.5965
  120OSM    C1312607   5.605   4.938   6.115  0.2244 -0.2829 -0.6945
  120OSM   H13A12608   5.694   4.987   6.154  0.1056  0.0894 -0.8791
  120OSM   H13B12609   5.599   4.967   6.011  0.8006  0.2012 -0.6015
  120OSM   H13C12610   5.623   4.833   6.129  1.2953 -0.8757 -5.0176
  120OSM    C1212611   5.481   4.938   6.327 -0.2846 -0.5448 -0.1345
  120OSM   H12A12612   5.496   4.831   6.334  0.1787 -0.3743  3.1182
  120OSM   H12B12613   5.381   4.949   6.366 -0.3452 -2.5095  0.3487
  120OSM    C1112614   5.568   5.007   6.427  0.5230 -0.1449  0.0972
  120OSM   H11A12615   5.553   4.968   6.530  0.5340  0.9630  0.5331
  120OSM   H11B12616   5.532   5.112   6.435  0.0711 -0.2187 -0.9252
  120OSM      P12617   5.800   4.895   6.404  0.2438  0.2527 -0.0662
  120OSM    O1312618   5.726   4.784   6.473  0.2542 -0.2066 -0.0583
  120OSM    O1412619   5.859   4.862   6.279 -0.4683 -0.3293 -0.3973
  120OSM    O1112620   5.912   4.955   6.502 -0.0076  0.2546 -0.3608
  120OSM    O1212621   5.700   5.012   6.382 -0.5236  0.2877  0.1319
  120OSM    C1S12622   5.900   5.072   6.578  0.0023 -0.0531 -0.2473
  120OSM    H1S12623   5.850   5.153   6.521 -0.9747  0.5807  1.4346
  120OSM    H1T12624   6.004   5.108   6.594  0.1265 -0.6553  0.3390
  120OSM     NF12625   5.838   5.185   6.784  0.5022 -0.1210 -0.3601
  120OSM    HNF12626   5.916   5.205   6.843 -0.8470  1.7452  0.9203
  120OSM    C2S12627   5.840   5.056   6.715 -0.6368  0.3527  0.9266
  120OSM    H2S12628   5.735   5.020   6.712  0.1961 -2.5030  1.9517
  120OSM    C3S12629   5.926   4.948   6.788  0.2836  0.3391  0.7071
  120OSM    H3S12630   6.035   4.974   6.788  0.4383 -0.1794 -0.8431
  120OSM     O312631   5.912   4.821   6.725 -0.4316 -0.5545 -0.1254
  120OSM    HO312632   5.891   4.831   6.632 -0.1518 -0.4148 -0.1761
  120OSM    C4S12633   5.882   4.941   6.927  0.0253 -0.3303 -0.7980
  120OSM    H4S12634   5.773   4.934   6.940  0.2164  0.2329  1.8511
  120OSM    C5S12635   5.958   4.951   7.036 -0.9772 -0.2710 -0.0227
  120OSM    H5S12636   6.063   4.981   7.032 -0.6688 -0.8992  2.2058
  120OSM    C6S12637   5.894   4.925   7.172 -1.1058  0.2979  1.2238
  120OSM    H6S12638   5.955   4.847   7.222  0.3203 -0.3994 -1.4310
  120OSM    H6T12639   5.788   4.893   7.162 -0.7715 -0.6953  0.6589
  120OSM    C7S12640   5.901   5.041   7.277 -0.3211  0.0437  0.1274
  120OSM    H7S12641   5.844   5.127   7.237 -2.4296 -0.8801  0.9727
  120OSM    H7T12642   6.006   5.070   7.294  0.9310 -3.1486 -1.3811
  120OSM    C8S12643   5.825   4.998   7.404 -0.0623 -0.4153  0.3817
  120OSM    H8S12644   5.843   4.891   7.430 -1.5829 -0.5920  0.8172
  120OSM    H8T12645   5.714   5.005   7.397 -0.0385  0.6815  0.9479
  120OSM    C9S12646   5.859   5.078   7.529  0.3871 -0.1134 -0.4806
  120OSM    H9S12647   5.811   5.175   7.504 -3.3401 -1.8100 -0.6659
  120OSM    H9T12648   5.968   5.093   7.546  0.2854  0.1538 -0.0593
  120OSM   C10S12649   5.791   5.014   7.654  0.1068  0.2218 -0.4407
  120OSM   H10S12650   5.693   4.984   7.612  0.1937  0.1783 -0.6138
  120OSM   H10T12651   5.775   5.099   7.724  0.4007  0.4164 -0.6045
  120OSM   C11S12652   5.872   4.898   7.704  0.4596  0.6364 -0.8370
  120OSM   H11S12653   5.981   4.915   7.709  0.4782  0.3858 -0.1498
  120OSM   H11T12654   5.842   4.811   7.642 -0.6959  0.6067 -0.2750
  120OSM   C12S12655   5.832   4.862   7.852  0.0085 -0.1003 -0.1293
  120OSM   H12S12656   5.869   4.759   7.869  0.1499 -0.1772 -0.8404
  120OSM   H12T12657   5.723   4.850   7.869 -0.0479 -0.1923 -0.5399
  120OSM   C13S12658   5.884   4.963   7.959  0.7923 -0.8736 -0.4687
  120OSM   H13S12659   5.832   5.061   7.952  1.1375 -0.5435  1.2904
  120OSM   H13T12660   5.994   4.978   7.945  1.2814 -1.0656  2.5586
  120OSM   C14S12661   5.861   4.900   8.097 -0.7231  0.7010 -0.2155
  120OSM   H14S12662   5.929   4.812   8.092  1.5138  2.3594 -0.0738
  120OSM   H14T12663   5.753   4.874   8.098 -1.1670  2.4092  1.4665
  120OSM   C15S12664   5.895   4.986   8.223 -0.4248  0.3383  0.5452
  120OSM   H15S12665   6.002   5.010   8.207  0.3112 -3.6382 -2.0294
  120OSM   H15T12666   5.892   4.932   8.320 -3.0052  0.0236  0.3612
  120OSM   C16S12667   5.824   5.116   8.240 -0.4963 -0.7004 -0.0080
  120OSM   H16S12668   5.714   5.108   8.237 -0.6520  1.0427  0.1990
  120OSM   H16T12669   5.851   5.193   8.165  0.0723  1.1236  1.9672
  120OSM   C17S12670   5.859   5.172   8.387 -0.2477 -0.6123  0.2313
  120OSM   H17S12671   5.967   5.196   8.404  0.2430 -1.2707 -1.7001
  120OSM   H17T12672   5.820   5.094   8.455 -0.1230 -1.1266 -0.2859
  120OSM   C18S12673   5.780   5.298   8.418 -0.3029  0.5918  0.0512
  120OSM   H18S12674   5.799   5.323   8.525  0.6182 -0.4276  0.1398
  120OSM   H18T12675   5.677   5.268   8.388  0.0541 -1.7409  0.9740
  120OSM   H18U12676   5.819   5.384   8.360  3.0705 -0.3920  0.6334
  120OSM    C1F12677   5.747   5.274   6.747 -0.2240 -0.1142 -0.9847
  120OSM     OF12678   5.657   5.246   6.675  0.8184 -0.1750 -0.3908
  120OSM    C2F12679   5.767   5.413   6.810 -0.6514  0.9752 -0.6831
  120OSM    H2F12680   5.819   5.471   6.732  2.2032  0.0625  0.4273
  120OSM    H2G12681   5.828   5.423   6.903 -0.1082  5.8133 -1.3009
  120OSM    C3F12682   5.619   5.463   6.852 -0.1220 -0.8625  1.2995
  120OSM    H3F12683   5.566   5.485   6.757  0.4605 -1.7163  0.7565
  120OSM    H3G12684   5.626   5.563   6.898  1.1810 -0.3819  0.1482
  120OSM    C4F12685   5.544   5.377   6.952  0.2756 -0.3344 -0.2539
  120OSM    H4F12686   5.605   5.370   7.045  0.1645 -0.2418 -0.1738
  120OSM    H4G12687   5.549   5.286   6.888 -0.2487 -0.4080 -0.1889
  120OSM    C5F12688   5.395   5.414   6.961  0.1690  0.3410 -0.2284
  120OSM    H5F12689   5.342   5.326   7.003 -0.3152 -0.1507 -1.8133
  120OSM    H5G12690   5.359   5.432   6.858  2.7161  1.2892 -1.0114
  120OSM    C6F12691   5.368   5.538   7.042  1.1592 -0.2829  0.1504
  120OSM    H6F12692   5.413   5.617   6.977  0.3545 -0.6546 -0.8822
  120OSM    H6G12693   5.434   5.534   7.132 -1.7419  0.2383  2.4590
  120OSM    C7F12694   5.223   5.571   7.081 -0.1032 -0.7213  0.1103
  120OSM    H7F12695   5.170   5.612   6.993  0.1232  0.6502  0.5856
  120OSM    H7G12696   5.209   5.655   7.152 -0.4287  0.5422 -1.3982
  120OSM    C8F12697   5.136   5.463   7.140  1.2844 -0.5611  0.5693
  120OSM    H8F12698   5.115   5.382   7.067 -1.8344 -0.1950  0.9207
  120OSM    H8G12699   5.039   5.509   7.169 -0.0225 -3.0264  0.3378
  120OSM    C9F12700   5.194   5.410   7.268  0.0223  0.2609  0.1533
  120OSM    H9F12701   5.303   5.419   7.278  0.2182 -1.6793  0.2249
  120OSM   C10F12702   5.118   5.354   7.359  0.5884 -0.7570 -0.1063
  120OSM   H10F12703   5.171   5.331   7.453  1.1197  0.1282 -0.1842
  120OSM   C11F12704   4.964   5.326   7.359 -0.1490  0.0180 -0.3079
  120OSM   H11F12705   4.945   5.218   7.340  3.2346 -0.7577  0.1265
  120OSM   H11G12706   4.905   5.388   7.287 -1.7156  0.5387  1.3504
  120OSM   C12F12707   4.917   5.365   7.498  0.1234 -0.0633 -0.4272
  120OSM   H12F12708   4.929   5.474   7.518 -0.0538 -0.0938 -0.1466
  120OSM   H12G12709   4.988   5.317   7.568  1.1514  0.0198 -1.3859
  120OSM   C13F12710   4.773   5.319   7.535 -0.5675  0.5579 -0.0596
  120OSM   H13F12711   4.778   5.208   7.537 -1.1642  0.4411 -2.4588
  120OSM   H13G12712   4.702   5.338   7.451 -1.4898  0.5748  0.7095
  120OSM   C14F12713   4.723   5.381   7.663  0.2480  0.1103 -0.7628
  120OSM   H14F12714   4.614   5.362   7.675 -0.2182  2.2745 -1.1511
  120OSM   H14G12715   4.729   5.490   7.644  1.7482  0.2834  0.5079
  120OSM   C15F12716   4.801   5.342   7.795  0.1095  0.6229 -0.2381
  120OSM   H15F12717   4.821   5.437   7.849 -0.5998  1.9987 -2.3001
  120OSM   H15G12718   4.903   5.306   7.767 -0.1324 -0.4762  0.2093
  120OSM   C16F12719   4.723   5.236   7.873  0.3988 -0.3249  0.3783
  120OSM   H16F12720   4.723   5.150   7.803  1.3453 -0.0732  0.0510
  120OSM   H16G12721   4.620   5.269   7.897  0.2865 -1.1136  0.9733
  120OSM   C17F12722   4.797   5.211   8.001  0.1879  0.6124  0.4045
  120OSM   H17F12723   4.796   5.298   8.070  1.4783  1.9195 -1.1722
  120OSM   H17G12724   4.904   5.200   7.975  0.2432 -1.0145  1.1602
  120OSM   C18F12725   4.760   5.085   8.084 -0.5780 -0.4964  0.2959
  120OSM   H18F12726   4.729   5.013   8.005  0.1659 -0.3795 -0.1090
  120OSM   H18G12727   4.682   5.107   8.161 -0.3022  2.1308 -0.0944
  120OSM   H18H12728   4.847   5.040   8.138 -2.0271 -2.4945  1.1255
  121OSM      N12729   0.570   1.768   5.941  0.0000  0.5718 -0.8467
  121OSM    C1512730   0.596   1.771   5.795 -0.2383  0.5537 -0.8403
  121OSM   H15A12731   0.682   1.830   5.766  2.7874 -2.1150  1.8473
  121OSM   H15B12732   0.504   1.795   5.744 -1.0716 -1.3505 -0.3048
  121OSM   H15C12733   0.612   1.668   5.767 -1.4666  0.0743  0.1340
  121OSM    C1412734   0.438   1.692   5.962  0.1078 -0.6158  0.0206
  121OSM   H14A12735   0.447   1.595   5.916  2.3662  0.0118 -0.9897
  121OSM   H14B12736   0.362   1.758   5.922  2.1038  1.3871 -0.6989
  121OSM   H14C12737   0.428   1.676   6.068  2.4166 -0.2778  0.3481
  121OSM    C1312738   0.682   1.692   6.014  0.1955  0.7171  0.0581
  121OSM   H13A12739   0.667   1.698   6.121 -1.4720 -2.2893  0.1201
  121OSM   H13B12740   0.783   1.721   5.991  0.9137 -1.5470  0.1667
  121OSM   H13C12741   0.690   1.587   5.990  2.0390  1.3689 -2.7072
  121OSM    C1212742   0.565   1.902   6.003 -0.5048 -0.5677 -0.0184
  121OSM   H12A12743   0.659   1.955   6.000 -1.9025  2.1417  0.9484
  121OSM   H12B12744   0.533   1.898   6.106  2.4675  0.8607  1.0863
  121OSM    C1112745   0.468   2.006   5.934  0.0529  0.0025 -0.0435
  121OSM   H11A12746   0.473   2.013   5.823 -1.6921  1.5901 -0.0739
  121OSM   H11B12747   0.485   2.112   5.964  1.8695  0.1824 -1.5162
  121OSM      P12748   0.256   2.001   6.097  0.0007 -0.1517  0.1627
  121OSM    O1312749   0.190   2.131   6.093 -0.0875 -0.2652  0.2308
  121OSM    O1412750   0.162   1.887   6.119 -0.1632 -0.0498 -0.0755
  121OSM    O1112751   0.363   2.007   6.207 -0.1731  0.9458 -0.1651
  121OSM    O1212752   0.331   1.969   5.965 -0.4512 -0.0662 -0.0788
  121OSM    C1S12753   0.329   2.067   6.333 -0.1954  0.2076  0.1481
  121OSM    H1S12754   0.235   2.029   6.380  0.2845  0.1605  1.0919
  121OSM    H1T12755   0.316   2.175   6.311  0.2967  0.1303 -0.5559
  121OSM     NF12756   0.375   2.115   6.579  0.5599  0.4927 -0.0849
  121OSM    HNF12757   0.396   2.212   6.589  2.3468  0.3015 -1.3168
  121OSM    C2S12758   0.434   2.055   6.452  0.1912 -0.0432 -0.3668
  121OSM    H2S12759   0.442   1.945   6.461 -0.8566 -0.1812 -1.0051
  121OSM    C3S12760   0.568   2.121   6.403 -0.5693 -0.3248 -0.5728
  121OSM    H3S12761   0.548   2.230   6.408 -0.6397 -0.3565 -0.0388
  121OSM     O312762   0.598   2.093   6.267 -0.0451  0.1810  0.3139
  121OSM    HO312763   0.516   2.056   6.236  0.9800 -0.4967 -1.7451
  121OSM    C4S12764   0.675   2.098   6.504  0.8491  0.1468  0.4103
  121OSM    H4S12765   0.683   2.153   6.598  1.6640  0.0862  0.3824
  121OSM    C5S12766   0.769   2.005   6.485 -0.4127  0.1961 -1.0859
  121OSM    H5S12767   0.788   1.943   6.396  2.6894 -1.7470  0.7302
  121OSM    C6S12768   0.876   1.974   6.588  0.6256 -0.7865  0.4128
  121OSM    H6S12769   0.963   2.041   6.568  1.0880 -1.4967  0.0279
  121OSM    H6T12770   0.909   1.869   6.574  0.7213 -0.5600 -1.2237
  121OSM    C7S12771   0.846   2.003   6.735 -0.1627 -0.4738 -0.2568
  121OSM    H7S12772   0.841   2.111   6.760  1.3433 -0.1788 -1.1117
  121OSM    H7T12773   0.939   1.967   6.784 -0.0736  0.1153  0.0162
  121OSM    C8S12774   0.736   1.909   6.779  0.8334  0.2611  0.0663
  121OSM    H8S12775   0.758   1.809   6.736 -2.4231 -0.0826 -1.1420
  121OSM    H8T12776   0.641   1.936   6.729  1.2416  1.8408  0.1076
  121OSM    C9S12777   0.710   1.889   6.931 -0.7733  0.1378 -0.2971
  121OSM    H9S12778   0.806   1.868   6.984 -1.3517 -0.5995  0.4919
  121OSM    H9T12779   0.647   1.798   6.934 -1.2856  0.4338 -1.5649
  121OSM   C10S12780   0.650   2.007   7.010  0.4316  0.4174 -0.2238
  121OSM   H10S12781   0.569   2.049   6.946 -0.2376  1.6775  1.3923
  121OSM   H10T12782   0.732   2.076   7.038  1.2202 -0.9565  0.9943
  121OSM   C11S12783   0.590   1.960   7.142  0.2450 -0.2018 -0.9429
  121OSM   H11S12784   0.499   1.899   7.123 -0.9677  0.8512  1.1277
  121OSM   H11T12785   0.550   2.056   7.181 -0.0047 -1.0864  1.0992
  121OSM   C12S12786   0.685   1.895   7.242  0.1859  0.2576 -0.1012
  121OSM   H12S12787   0.775   1.959   7.260  0.4858 -0.5901  1.6047
  121OSM   H12T12788   0.707   1.790   7.212  0.4717  0.9721 -2.6086
  121OSM   C13S12789   0.609   1.889   7.378  0.1818  0.1293 -0.4953
  121OSM   H13S12790   0.512   1.836   7.368  0.2164  0.0940 -0.6502
  121OSM   H13T12791   0.598   1.995   7.409 -0.1443  0.7838 -2.6881
  121OSM   C14S12792   0.677   1.801   7.482 -0.2202  0.8868 -0.1372
  121OSM   H14S12793   0.783   1.831   7.491  0.6415 -1.7035 -0.6855
  121OSM   H14T12794   0.668   1.693   7.456  0.2270  1.1569 -1.5047
  121OSM   C15S12795   0.621   1.810   7.621  0.1378  0.3217 -0.5711
  121OSM   H15S12796   0.512   1.787   7.613  0.2067  0.1180 -0.9549
  121OSM   H15T12797   0.642   1.915   7.650 -0.0432  0.4450 -0.8756
  121OSM   C16S12798   0.681   1.706   7.714 -0.2164  0.9520  0.5187
  121OSM   H16S12799   0.698   1.610   7.661 -1.0649  2.0312 -1.8140
  121OSM   H16T12800   0.606   1.681   7.793  2.3102 -0.9986  2.4875
  121OSM   C17S12801   0.812   1.748   7.791 -1.0754 -0.3473  1.2300
  121OSM   H17S12802   0.794   1.807   7.883  1.0860 -0.2565  1.6313
  121OSM   H17T12803   0.879   1.812   7.729  0.0898  1.2334  3.9664
  121OSM   C18S12804   0.890   1.628   7.829 -0.0808  0.6543  0.0815
  121OSM   H18S12805   0.882   1.563   7.739 -0.9930  0.0538  0.5857
  121OSM   H18T12806   0.836   1.564   7.902  1.3366 -0.7614 -0.0678
  121OSM   H18U12807   0.999   1.642   7.846  0.0928  0.8683 -1.1302
  121OSM    C1F12808   0.296   2.040   6.647 -0.0350 -0.0516 -0.7041
  121OSM     OF12809   0.262   1.927   6.604  0.7557 -0.0720 -0.5167
  121OSM    C2F12810   0.268   2.087   6.788 -0.4893 -0.1985 -0.0814
  121OSM    H2F12811   0.192   2.167   6.800 -1.3574 -1.0722  0.4034
  121OSM    H2G12812   0.363   2.119   6.836 -0.3674 -0.8555  0.1243
  121OSM    C3F12813   0.217   1.976   6.881 -0.0933 -0.0983  0.0805
  121OSM    H3F12814   0.290   1.893   6.889 -0.1742 -0.0999  0.8592
  121OSM    H3G12815   0.128   1.923   6.842 -0.3445  0.6554 -0.3888
  121OSM    C4F12816   0.207   2.027   7.021 -0.7091  0.6512  0.2369
  121OSM    H4F12817   0.129   2.107   7.023 -1.2303  0.1909 -0.8062
  121OSM    H4G12818   0.305   2.073   7.046 -0.9583  0.7030  1.1392
  121OSM    C5F12819   0.184   1.923   7.124  0.3606 -0.0899 -0.1879
  121OSM    H5F12820   0.235   1.830   7.090  0.9580  1.0311 -2.5790
  121OSM    H5G12821   0.076   1.895   7.131  0.2341  0.7590  2.0315
  121OSM    C6F12822   0.245   1.959   7.266  0.7116 -0.0181  0.1950
  121OSM    H6F12823   0.184   2.045   7.300 -2.6629 -2.1604 -0.0748
  121OSM    H6G12824   0.347   2.003   7.254 -0.5957  3.0855 -0.6312
  121OSM    C7F12825   0.237   1.846   7.369 -0.7567  0.5439  0.3947
  121OSM    H7F12826   0.308   1.767   7.338 -0.2780  0.3855  1.8263
  121OSM    H7G12827   0.136   1.800   7.367 -0.6066  0.2390 -0.1149
  121OSM    C8F12828   0.257   1.903   7.519 -0.1335  0.0729  0.0205
  121OSM    H8F12829   0.341   1.975   7.511  1.4058 -1.7832 -1.4552
  121OSM    H8G12830   0.288   1.820   7.586 -1.7683  1.3810  2.5416
  121OSM    C9F12831   0.140   1.980   7.583  0.2617 -0.0931  0.3120
  121OSM    H9F12832   0.077   2.039   7.514  0.5935 -2.4075 -2.1432
  121OSM   C10F12833   0.097   1.973   7.707 -0.0088 -0.5265  0.0819
  121OSM   H10F12834   0.017   2.041   7.741 -0.5351 -1.0760 -0.0369
  121OSM   C11F12835   0.152   1.892   7.819  0.2424  0.7195  0.6158
  121OSM   H11F12836   0.177   1.800   7.762  0.1973  0.9391  0.2344
  121OSM   H11G12837   0.076   1.862   7.894  0.9256  2.1828  1.9717
  121OSM   C12F12838   0.279   1.949   7.882  0.4429 -0.1919  0.1270
  121OSM   H12F12839   0.256   2.046   7.930 -0.7023 -0.4678  0.1699
  121OSM   H12G12840   0.353   1.968   7.802 -0.9850 -1.7911 -1.6781
  121OSM   C13F12841   0.348   1.858   7.990 -0.0209  0.3088 -0.0261
  121OSM   H13F12842   0.387   1.764   7.946  1.5253  0.9547 -0.0990
  121OSM   H13G12843   0.273   1.830   8.067 -1.4615 -0.2119 -1.5693
  121OSM   C14F12844   0.466   1.933   8.063  0.5572  0.0279 -0.1019
  121OSM   H14F12845   0.426   2.003   8.139 -1.8560 -1.4451  0.1082
  121OSM   H14G12846   0.526   1.998   7.996 -2.0492 -0.0671 -2.7472
  121OSM   C15F12847   0.568   1.845   8.133 -0.3329  0.0165  0.0714
  121OSM   H15F12848   0.621   1.793   8.050  0.7846 -1.8158  1.8622
  121OSM   H15G12849   0.528   1.757   8.188  2.3206 -1.1029  0.3565
  121OSM   C16F12850   0.671   1.918   8.221 -0.3581  0.1147  0.2270
  121OSM   H16F12851   0.621   1.952   8.315 -0.2079  2.2850 -0.4144
  121OSM   H16G12852   0.711   2.001   8.159  2.3189 -1.2103  0.0596
  121OSM   C17F12853   0.782   1.817   8.264  0.8384  0.1299 -0.2584
  121OSM   H17F12854   0.839   1.872   8.341 -0.1954  0.8351  0.0316
  121OSM   H17G12855   0.842   1.799   8.173 -0.3430 -2.5356 -0.5940
  121OSM   C18F12856   0.728   1.687   8.330  0.0459  0.0520  0.0726
  121OSM   H18F12857   0.673   1.717   8.422  0.0676 -0.2290  0.1809
  121OSM   H18G12858   0.817   1.624   8.353 -0.3002 -1.8420 -3.1677
  121OSM   H18H12859   0.656   1.634   8.264  0.5950 -0.6560  0.0343
  122OSM      N12860   2.179   2.770   6.242 -0.4504  0.1178 -0.5227
  122OSM    C1512861   2.209   2.871   6.352  0.1442  0.0084 -0.0009
  122OSM   H15A12862   2.280   2.835   6.424  0.0414  1.3169  0.7793
  122OSM   H15B12863   2.120   2.889   6.410  0.0720 -1.0828  0.2310
  122OSM   H15C12864   2.256   2.965   6.325 -0.4287  0.3698  0.2274
  122OSM    C1412865   2.134   2.646   6.312 -0.8527  0.5935  0.0362
  122OSM   H14A12866   2.159   2.552   6.264  0.9712  0.1883  1.6180
  122OSM   H14B12867   2.034   2.651   6.351 -0.0159  1.5457  2.2133
  122OSM   H14C12868   2.188   2.641   6.405 -0.5259  3.7956  0.1089
  122OSM    C1312869   2.073   2.821   6.153 -0.6782  0.2454 -0.1338
  122OSM   H13A12870   2.042   2.753   6.075 -0.6413 -1.9036  1.6237
  122OSM   H13B12871   2.110   2.913   6.110  0.0810 -0.1061 -0.2318
  122OSM   H13C12872   1.986   2.841   6.215  0.0610  0.1168  0.9721
  122OSM    C1212873   2.304   2.743   6.168  0.1690  0.2178  0.0841
  122OSM   H12A12874   2.264   2.691   6.082  0.1112  0.4170 -0.0102
  122OSM   H12B12875   2.364   2.671   6.220 -1.5580  0.3089  2.3255
  122OSM    C1112876   2.385   2.863   6.116  0.1885 -0.6660 -0.4023
  122OSM   H11A12877   2.484   2.826   6.081  0.7550  3.1701 -3.5556
  122OSM   H11B12878   2.417   2.930   6.199 -1.2317  0.0389 -0.4058
  122OSM      P12879   2.274   3.082   6.021 -0.3375  0.2839 -0.2489
  122OSM    O1312880   2.372   3.168   5.948  0.6002 -0.1401 -0.1745
  122OSM    O1412881   2.133   3.067   5.973 -0.4499  0.4007  0.0562
  122OSM    O1112882   2.269   3.108   6.178 -0.4208 -0.2693  0.4019
  122OSM    O1212883   2.333   2.939   6.006 -0.4826 -0.0789  0.4158
  122OSM    C1S12884   2.233   3.249   6.221  0.0630  0.0442  0.4649
  122OSM    H1S12885   2.122   3.259   6.216  0.1409  0.9705  0.4079
  122OSM    H1T12886   2.288   3.326   6.164  1.1186  0.1370  1.5887
  122OSM     NF12887   2.178   3.376   6.424 -0.0053  0.3648  0.8051
  122OSM    HNF12888   2.218   3.459   6.461  0.3180 -0.5709  2.6801
  122OSM    C2S12889   2.260   3.269   6.369  0.3098  0.1356  0.4477
  122OSM    H2S12890   2.219   3.176   6.414  0.5253  0.7498  1.9634
  122OSM    C3S12891   2.414   3.282   6.394 -0.1129 -0.1858 -0.6664
  122OSM    H3S12892   2.446   3.380   6.350 -0.4050  0.6254  0.8524
  122OSM     O312893   2.499   3.188   6.329 -0.3067 -0.6273  0.2816
  122OSM    HO312894   2.446   3.118   6.291 -0.7158 -1.5048  2.3030
  122OSM    C4S12895   2.426   3.280   6.545 -0.7122 -0.3726  0.5700
  122OSM    H4S12896   2.404   3.377   6.591 -1.1347 -0.0869 -0.2202
  122OSM    C5S12897   2.433   3.175   6.625  0.9963  0.8394 -0.2736
  122OSM    H5S12898   2.418   3.076   6.579 -3.6005  1.4575 -0.5299
  122OSM    C6S12899   2.451   3.176   6.774 -0.1095  0.2241 -0.0258
  122OSM    H6S12900   2.550   3.126   6.780 -0.3818 -0.3730 -0.3997
  122OSM    H6T12901   2.371   3.109   6.813  0.7413 -1.4690 -1.0700
  122OSM    C7S12902   2.448   3.301   6.863  0.5276 -0.2270  1.2568
  122OSM    H7S12903   2.345   3.342   6.852  0.1441 -1.5969 -0.6504
  122OSM    H7T12904   2.516   3.379   6.822 -0.5339 -0.0014 -0.1420
  122OSM    C8S12905   2.465   3.275   7.010  0.0700 -0.4450 -0.2965
  122OSM    H8S12906   2.572   3.273   7.040  0.1080 -1.5048 -0.4694
  122OSM    H8T12907   2.430   3.170   7.022  1.6313 -0.8894  0.6940
  122OSM    C9S12908   2.398   3.369   7.102 -0.0724 -0.3890 -0.6168
  122OSM    H9S12909   2.291   3.372   7.073  0.6853  0.2443 -3.6856
  122OSM    H9T12910   2.436   3.473   7.093  1.2634 -0.9172 -1.3034
  122OSM   C10S12911   2.408   3.315   7.250 -0.5723 -0.0070  0.1040
  122OSM   H10S12912   2.516   3.293   7.269 -1.2271 -3.5882  0.3814
  122OSM   H10T12913   2.351   3.220   7.250 -0.8668  0.1707 -0.1032
  122OSM   C11S12914   2.362   3.411   7.363  0.2118  0.2480 -0.2390
  122OSM   H11S12915   2.252   3.421   7.361  0.0452 -1.3507 -1.3041
  122OSM   H11T12916   2.404   3.514   7.357  2.8706 -0.6939  0.5301
  122OSM   C12S12917   2.406   3.344   7.496 -0.4282 -1.4592  0.0440
  122OSM   H12S12918   2.517   3.339   7.499 -0.4519 -1.4480  1.4841
  122OSM   H12T12919   2.366   3.241   7.503 -3.0733 -0.4566  0.9908
  122OSM   C13S12920   2.358   3.418   7.627 -0.5066 -0.4963 -0.2688
  122OSM   H13S12921   2.249   3.427   7.608 -0.4384 -1.2253 -1.0857
  122OSM   H13T12922   2.423   3.508   7.633  0.8242 -1.2561 -2.2083
  122OSM   C14S12923   2.401   3.350   7.757 -0.6881  0.4442  0.7259
  122OSM   H14S12924   2.511   3.348   7.741 -0.7524  3.9804 -1.0112
  122OSM   H14T12925   2.369   3.244   7.766  1.2897 -0.3407 -0.7498
  122OSM   C15S12926   2.375   3.440   7.874  0.1507  0.4328 -0.8756
  122OSM   H15S12927   2.266   3.461   7.876  0.2323  1.0479  2.1471
  122OSM   H15T12928   2.426   3.538   7.857 -0.9217  0.6264 -3.3373
  122OSM   C16S12929   2.409   3.370   8.004  0.3187 -0.6333  0.6635
  122OSM   H16S12930   2.366   3.267   8.004  4.0015 -2.3409  0.7387
  122OSM   H16T12931   2.363   3.431   8.084 -0.7725  1.9008 -1.7217
  122OSM   C17S12932   2.559   3.359   8.030  0.0140 -0.5671  0.1566
  122OSM   H17S12933   2.593   3.464   8.042  0.1499 -0.4036 -1.4486
  122OSM   H17T12934   2.604   3.306   7.944  0.0862 -0.2328 -0.0115
  122OSM   C18S12935   2.587   3.281   8.157 -0.3564 -0.0126 -0.5745
  122OSM   H18S12936   2.542   3.322   8.250 -0.7607  2.6369 -1.8473
  122OSM   H18T12937   2.697   3.277   8.176 -0.4292 -0.8118 -0.2994
  122OSM   H18U12938   2.557   3.175   8.151  0.1203 -0.2505  0.9790
  122OSM    C1F12939   2.045   3.359   6.419 -0.0997  0.4085 -0.3539
  122OSM     OF12940   1.989   3.248   6.409  0.5283  0.2460  0.1154
  122OSM    C2F12941   1.962   3.482   6.444  0.1689  0.2235 -0.0231
  122OSM    H2F12942   1.912   3.519   6.352 -0.8251  0.6040  0.6510
  122OSM    H2G12943   2.025   3.566   6.481 -0.5953  0.1638  1.5006
  122OSM    C3F12944   1.853   3.447   6.552 -0.1514  0.4884  0.0252
  122OSM    H3F12945   1.892   3.381   6.632 -1.1150 -0.5797 -0.3585
  122OSM    H3G12946   1.772   3.387   6.504 -0.1825  0.5588 -0.0102
  122OSM    C4F12947   1.795   3.562   6.614  0.7000 -0.9163 -0.1982
  122OSM    H4F12948   1.764   3.641   6.542  1.1356  0.0440  0.6381
  122OSM    H4G12949   1.864   3.617   6.681  0.3490  0.7183 -1.1259
  122OSM    C5F12950   1.674   3.529   6.697 -0.4145 -0.2666  1.0406
  122OSM    H5F12951   1.613   3.465   6.630 -0.0109  1.0132 -0.6054
  122OSM    H5G12952   1.615   3.622   6.715  0.1655  0.8309 -2.1052
  122OSM    C6F12953   1.704   3.460   6.824  0.0586 -0.1666 -0.1497
  122OSM    H6F12954   1.788   3.513   6.873  0.3451  0.6097 -1.4473
  122OSM    H6G12955   1.730   3.353   6.805  0.0507  0.1889 -2.4736
  122OSM    C7F12956   1.587   3.469   6.921 -0.0808 -0.4501  1.2683
  122OSM    H7F12957   1.504   3.405   6.884 -1.1051  0.5378  1.7961
  122OSM    H7G12958   1.556   3.576   6.917  0.5755 -0.2881  0.2708
  122OSM    C8F12959   1.624   3.414   7.053 -0.9241  0.6642 -0.0803
  122OSM    H8F12960   1.700   3.482   7.097 -0.3336  1.1158 -1.7439
  122OSM    H8G12961   1.681   3.322   7.028  0.0096  1.3722 -0.6548
  122OSM    C9F12962   1.497   3.392   7.131 -0.4101  0.2612 -0.3535
  122OSM    H9F12963   1.409   3.365   7.070 -1.0080  2.4472 -0.5592
  122OSM   C10F12964   1.488   3.418   7.264  0.3817 -0.4600  0.2916
  122OSM   H10F12965   1.385   3.420   7.302  0.3676  2.1649  0.3390
  122OSM   C11F12966   1.594   3.480   7.351 -0.4299 -0.3614 -0.8646
  122OSM   H11F12967   1.580   3.589   7.365 -0.5871 -0.7323  2.6123
  122OSM   H11G12968   1.699   3.479   7.316  1.3558  3.5930  3.4172
  122OSM   C12F12969   1.600   3.416   7.490 -0.2238  0.2267 -0.2231
  122OSM   H12F12970   1.633   3.311   7.479 -1.6856 -0.6236  2.5946
  122OSM   H12G12971   1.500   3.434   7.536  0.9099  2.4785  1.5820
  122OSM   C13F12972   1.697   3.496   7.584 -0.6847  0.3837  0.2160
  122OSM   H13F12973   1.677   3.605   7.590  3.7751  1.4950 -1.0097
  122OSM   H13G12974   1.806   3.488   7.561 -0.7260  2.8761 -1.0501
  122OSM   C14F12975   1.681   3.435   7.723  0.2691  0.2309 -0.7318
  122OSM   H14F12976   1.770   3.461   7.784  0.3587 -3.1708  0.8055
  122OSM   H14G12977   1.677   3.324   7.722 -1.9368  0.2632 -0.1932
  122OSM   C15F12978   1.557   3.470   7.793 -0.1953  0.2160 -0.3361
  122OSM   H15F12979   1.478   3.403   7.753 -0.2190 -0.0189  0.0971
  122OSM   H15G12980   1.525   3.575   7.775 -1.6220  0.0704  1.1243
  122OSM   C16F12981   1.576   3.468   7.945 -0.2748 -0.1597 -0.7605
  122OSM   H16F12982   1.655   3.533   7.987  2.3034 -1.9525 -2.5417
  122OSM   H16G12983   1.616   3.370   7.981 -0.1797  0.7954  1.9644
  122OSM   C17F12984   1.443   3.500   8.011  0.3984  0.4283 -0.0182
  122OSM   H17F12985   1.371   3.432   7.961  0.3826  0.6680 -0.3281
  122OSM   H17G12986   1.400   3.599   7.984 -3.5910 -0.9790  0.5995
  122OSM   C18F12987   1.430   3.479   8.161 -0.2686 -0.1428 -0.0539
  122OSM   H18F12988   1.418   3.373   8.191 -1.0024  0.0915  0.5463
  122OSM   H18G12989   1.332   3.525   8.188 -1.2389 -1.7250 -0.7419
  122OSM   H18H12990   1.515   3.524   8.217  0.5303 -0.1667 -1.2243
  123OSM      N12991   3.071   0.393   6.056 -0.0075 -0.2894 -0.1008
  123OSM    C1512992   2.989   0.519   6.016  0.3933  0.6107 -0.7995
  123OSM   H15A12993   3.022   0.602   6.077  0.7500  0.9305 -1.4276
  123OSM   H15B12994   2.883   0.506   6.033  0.6345 -3.3499 -1.4935
  123OSM   H15C12995   3.007   0.541   5.912  0.6966 -0.0404 -0.8924
  123OSM    C1412996   3.017   0.271   5.993  0.3896  0.3400  0.2115
  123OSM   H14A12997   3.081   0.185   6.005 -0.2927 -0.1072  0.7367
  123OSM   H14B12998   3.000   0.289   5.888  2.2959  2.3267  0.1764
  123OSM   H14C12999   2.925   0.244   6.044  0.9793  0.7189  1.5250
  123OSM    C1313000   3.206   0.411   5.993 -0.3779  0.0278  1.1712
  123OSM   H13A13001   3.201   0.416   5.886 -0.7250 -4.3831  0.7909
  123OSM   H13B13002   3.264   0.325   6.023  0.8192  0.0572 -0.9356
  123OSM   H13C13003   3.260   0.497   6.030 -1.2888  0.1601  2.2863
  123OSM    C1213004   3.075   0.384   6.203 -0.1769 -0.1417 -0.2514
  123OSM   H12A13005   2.971   0.372   6.230 -1.2937  2.3366 -2.9591
  123OSM   H12B13006   3.090   0.478   6.253 -1.1691  0.2470 -0.6572
  123OSM    C1113007   3.162   0.273   6.268  1.0262  0.3908 -0.1084
  123OSM   H11A13008   3.143   0.171   6.230  0.3763 -0.4204  2.2144
  123OSM   H11B13009   3.134   0.257   6.374  0.4412 -0.8523 -0.4399
  123OSM      P13010   3.354   0.412   6.358  0.2229 -0.2148  0.0788
  123OSM    O1313011   3.485   0.449   6.308 -0.1352 -0.3208  0.7368
  123OSM    O1413012   3.251   0.518   6.375 -0.3541  0.0738  0.4161
  123OSM    O1113013   3.365   0.325   6.490 -0.1962  0.5273  0.4691
  123OSM    O1213014   3.298   0.308   6.254 -0.2888  0.4365  0.2478
  123OSM    C1S13015   3.445   0.206   6.496 -0.0330 -0.7000 -0.0212
  123OSM    H1S13016   3.548   0.227   6.460 -1.5764  3.8032 -2.6650
  123OSM    H1T13017   3.396   0.132   6.429  0.0824  0.1692 -1.1015
  123OSM     NF13018   3.544   0.050   6.664 -0.8916 -0.0408 -0.3910
  123OSM    HNF13019   3.504  -0.041   6.664  1.0464 -0.9460 -0.3841
  123OSM    C2S13020   3.458   0.164   6.651 -0.3294  0.1105  0.5283
  123OSM    H2S13021   3.489   0.257   6.704 -1.1215  0.1922  0.8602
  123OSM    C3S13022   3.317   0.130   6.708 -0.0424 -0.6716 -0.6880
  123OSM    H3S13023   3.259   0.055   6.650 -0.6221 -0.8558  0.1043
  123OSM     O313024   3.224   0.240   6.704  0.7168 -0.2252  0.2414
  123OSM    HO313025   3.273   0.287   6.636  4.3415 -2.0839  1.3353
  123OSM    C4S13026   3.332   0.078   6.845 -0.4145 -0.5400 -0.0557
  123OSM    H4S13027   3.382  -0.020   6.845 -2.0564 -1.4054  0.0532
  123OSM    C5S13028   3.317   0.137   6.965 -0.0741  0.4026 -0.1677
  123OSM    H5S13029   3.291   0.243   6.977  0.3426  0.5153 -0.2554
  123OSM    C6S13030   3.355   0.060   7.087  0.5598 -0.2801 -0.5846
  123OSM    H6S13031   3.466   0.057   7.095  0.4616 -2.2807  0.6788
  123OSM    H6T13032   3.310  -0.041   7.091  2.2733 -1.0447  0.9375
  123OSM    C7S13033   3.295   0.131   7.220 -0.3897 -0.3401  0.0580
  123OSM    H7S13034   3.185   0.132   7.227 -0.3397  1.0692  1.0562
  123OSM    H7T13035   3.314   0.239   7.205 -0.5682 -0.1468  1.1576
  123OSM    C8S13036   3.369   0.096   7.350  0.8136  0.4013  0.2837
  123OSM    H8S13037   3.479   0.109   7.345  0.7090  2.2571  1.6375
  123OSM    H8T13038   3.364  -0.014   7.356  1.2867  0.2171 -1.7057
  123OSM    C9S13039   3.323   0.176   7.478 -0.2706 -0.1288  0.1717
  123OSM    H9S13040   3.214   0.156   7.471 -0.4944  1.4550 -1.8540
  123OSM    H9T13041   3.338   0.286   7.476  2.5438 -0.4394  0.1541
  123OSM   C10S13042   3.377   0.125   7.611 -0.0625 -0.2360  0.2677
  123OSM   H10S13043   3.485   0.149   7.610 -0.0738 -0.0277  1.5889
  123OSM   H10T13044   3.355   0.017   7.618  0.7570 -0.2931  4.8045
  123OSM   C11S13045   3.331   0.203   7.741 -1.3408  0.2010  0.5220
  123OSM   H11S13046   3.220   0.201   7.751 -1.4981  0.4781 -0.9850
  123OSM   H11T13047   3.346   0.313   7.733 -0.2350  0.0700  0.6984
  123OSM   C12S13048   3.400   0.153   7.866 -0.2194 -0.1783 -0.1460
  123OSM   H12S13049   3.506   0.130   7.841 -0.2811 -1.5042  0.7267
  123OSM   H12T13050   3.350   0.063   7.906 -2.3651  1.7416  1.7600
  123OSM   C13S13051   3.385   0.250   7.980 -0.8407 -0.9579 -0.8359
  123OSM   H13S13052   3.276   0.241   7.998 -1.2230 -1.2460 -3.0262
  123OSM   H13T13053   3.399   0.358   7.956 -0.5694 -0.8693 -0.2962
  123OSM   C14S13054   3.467   0.190   8.100 -0.2150  0.3157  0.4021
  123OSM   H14S13055   3.577   0.180   8.087 -0.2457  0.0444  0.3394
  123OSM   H14T13056   3.434   0.087   8.125  0.1346  0.7391  2.8342
  123OSM   C15S13057   3.435   0.261   8.229 -0.0100 -0.0848  0.1883
  123OSM   H15S13058   3.327   0.250   8.252 -0.1869  0.5098 -0.3321
  123OSM   H15T13059   3.447   0.370   8.211 -0.5752 -0.3237 -2.0050
  123OSM   C16S13060   3.524   0.218   8.349  0.4895  0.4450 -0.3381
  123OSM   H16S13061   3.631   0.208   8.322  0.5618  1.2080 -0.3654
  123OSM   H16T13062   3.480   0.121   8.379 -0.6113  0.6367 -1.2564
  123OSM   C17S13063   3.505   0.317   8.463 -0.2169 -0.1065 -0.0023
  123OSM   H17S13064   3.404   0.306   8.507  0.3357  0.3004  1.4619
  123OSM   H17T13065   3.513   0.422   8.428 -1.0899 -0.2453 -0.6371
  123OSM   C18S13066   3.604   0.293   8.577 -0.1340 -0.5489 -0.2009
  123OSM   H18S13067   3.708   0.305   8.538  0.6789 -0.0243  1.9856
  123OSM   H18T13068   3.593   0.186   8.608  1.7570 -1.0456 -1.0604
  123OSM   H18U13069   3.588   0.378   8.647  2.7503 -0.4599  0.4770
  123OSM    C1F13070   3.681   0.067   6.657  0.7588 -0.0638 -0.5287
  123OSM     OF13071   3.731   0.175   6.627 -0.0474  0.0361 -0.4808
  123OSM    C2F13072   3.763  -0.055   6.683  0.2921 -0.1817  0.2652
  123OSM    H2F13073   3.871  -0.028   6.692  0.3816  0.0781 -1.1740
  123OSM    H2G13074   3.769  -0.121   6.593 -0.9538 -1.2334  0.9344
  123OSM    C3F13075   3.719  -0.125   6.802 -0.3675  0.4257  0.2276
  123OSM    H3F13076   3.611  -0.149   6.792  0.5151 -4.0660 -0.8652
  123OSM    H3G13077   3.734  -0.064   6.893  0.3873  1.6041 -0.6674
  123OSM    C4F13078   3.795  -0.262   6.832 -0.1378  0.2462 -0.8402
  123OSM    H4F13079   3.904  -0.241   6.835  0.0759 -0.8619 -0.2367
  123OSM    H4G13080   3.778  -0.339   6.753  0.6452 -0.1516 -0.6367
  123OSM    C5F13081   3.749  -0.342   6.954  0.6380  0.1133 -0.6566
  123OSM    H5F13082   3.828  -0.411   6.992  0.9483  0.3728 -0.8341
  123OSM    H5G13083   3.662  -0.402   6.919  1.1628  1.2247 -4.1286
  123OSM    C6F13084   3.697  -0.257   7.072  0.4670 -0.4111 -0.2285
  123OSM    H6F13085   3.656  -0.319   7.155  1.6387  0.4175  1.0233
  123OSM    H6G13086   3.617  -0.188   7.038  0.0082 -1.0167 -0.4019
  123OSM    C7F13087   3.816  -0.185   7.135 -0.2032 -0.5888 -0.2476
  123OSM    H7F13088   3.872  -0.147   7.047 -0.8433 -2.4827 -1.5565
  123OSM    H7G13089   3.882  -0.260   7.184  1.0690  0.6683  0.0064
  123OSM    C8F13090   3.757  -0.076   7.229  0.0978  0.9644  0.3064
  123OSM    H8F13091   3.683  -0.121   7.299 -1.2358  0.0693 -1.5933
  123OSM    H8G13092   3.704  -0.001   7.166 -0.0118 -0.0744 -0.8889
  123OSM    C9F13093   3.860  -0.001   7.312 -0.2141 -0.5572  0.1045
  123OSM    H9F13094   3.898   0.091   7.266 -1.5808 -0.0899 -0.1146
  123OSM   C10F13095   3.902  -0.041   7.430  0.0068 -0.2057 -0.1089
  123OSM   H10F13096   3.957   0.026   7.498 -0.5237  2.1566 -1.9016
  123OSM   C11F13097   3.857  -0.169   7.502 -0.1189 -0.9664  0.1567
  123OSM   H11F13098   3.936  -0.213   7.566 -1.0735 -1.6310  0.9055
  123OSM   H11G13099   3.814  -0.241   7.429 -3.1351 -0.4082  1.2203
  123OSM   C12F13100   3.738  -0.126   7.594  0.1754 -0.5324 -0.5404
  123OSM   H12F13101   3.692  -0.220   7.629 -0.3819 -1.0908 -2.6388
  123OSM   H12G13102   3.662  -0.077   7.530  0.1292 -0.6673 -0.5881
  123OSM   C13F13103   3.751  -0.021   7.707  0.8918  0.6012 -0.4050
  123OSM   H13F13104   3.657  -0.026   7.765  1.4803 -0.6742  0.5020
  123OSM   H13G13105   3.755   0.078   7.657 -0.2347  0.0057 -1.7344
  123OSM   C14F13106   3.853  -0.058   7.814  0.5350  0.3599 -0.7596
  123OSM   H14F13107   3.951  -0.093   7.774  0.2504 -1.8279  0.2992
  123OSM   H14G13108   3.818  -0.147   7.870  0.4800  0.2939 -0.8989
  123OSM   C15F13109   3.874   0.060   7.912 -0.1855 -0.0795  0.2710
  123OSM   H15F13110   3.777   0.114   7.912  0.4129  1.1146  2.4380
  123OSM   H15G13111   3.939   0.131   7.857  0.8052 -0.3211  1.1019
  123OSM   C16F13112   3.930   0.030   8.056  0.0485 -0.5720  0.5855
  123OSM   H16F13113   4.039   0.012   8.045 -0.1542 -0.7377 -1.4547
  123OSM   H16G13114   3.888  -0.062   8.102  1.0917 -2.5048 -2.0750
  123OSM   C17F13115   3.915   0.153   8.145  0.0353  0.2119  0.0951
  123OSM   H17F13116   3.809   0.182   8.126 -0.4333 -0.0373  2.0945
  123OSM   H17G13117   3.986   0.223   8.096  0.4576 -1.6527 -2.1582
  123OSM   C18F13118   3.936   0.138   8.297  0.0282 -0.2293 -0.4585
  123OSM   H18F13119   4.042   0.115   8.321 -0.3990  0.1643  2.0593
  123OSM   H18G13120   3.876   0.056   8.342  0.9333 -0.6726 -0.0389
  123OSM   H18H13121   3.903   0.230   8.351 -0.6846 -0.5687 -0.3117
  124OSM      N13122   0.220   3.695   6.050 -0.6725  0.3518  0.0506
  124OSM    C1513123   0.335   3.717   5.954  0.4162  0.6523 -0.4431
  124OSM   H15A13124   0.385   3.809   5.980 -0.6827  1.1902 -0.1663
  124OSM   H15B13125   0.299   3.728   5.852 -1.1247  2.3332  0.2179
  124OSM   H15C13126   0.405   3.635   5.948  2.2345  2.1897 -1.1736
  124OSM    C1413127   0.125   3.805   6.046 -0.1935 -0.3708  0.1535
  124OSM   H14A13128   0.048   3.806   6.122  0.3850  0.5448  0.7537
  124OSM   H14B13129   0.087   3.819   5.946  0.6274  2.1423  0.1174
  124OSM   H14C13130   0.175   3.899   6.064 -2.7237  1.2348 -0.5480
  124OSM    C1313131   0.149   3.573   6.005 -0.2115 -0.0714  0.3564
  124OSM   H13A13132   0.116   3.576   5.902 -1.0319 -2.4914  0.4728
  124OSM   H13B13133   0.067   3.554   6.072  0.1029 -1.3579  0.4126
  124OSM   H13C13134   0.210   3.484   6.016 -1.1081 -0.6102  1.0607
  124OSM    C1213135   0.256   3.669   6.196 -0.4527 -0.1907  0.1631
  124OSM   H12A13136   0.170   3.646   6.257 -0.4156  1.1655  0.7458
  124OSM   H12B13137   0.284   3.768   6.229 -3.1137  0.3153  1.1523
  124OSM    C1113138   0.361   3.567   6.241 -0.6443 -0.1855  0.1433
  124OSM   H11A13139   0.406   3.576   6.343  1.3769 -1.1771 -0.6082
  124OSM   H11B13140   0.448   3.588   6.175 -0.5952 -0.2422  0.1900
  124OSM      P13141   0.208   3.363   6.317  0.3168  0.2616  0.0047
  124OSM    O1313142   0.077   3.420   6.305 -0.8229  0.0298  0.3324
  124OSM    O1413143   0.222   3.215   6.310  0.3393 -0.7004 -0.1957
  124OSM    O1113144   0.255   3.404   6.461  0.1925 -0.0487 -0.3999
  124OSM    O1213145   0.309   3.434   6.211 -0.2202 -0.4866 -0.4597
  124OSM    C1S13146   0.375   3.341   6.518 -1.1091 -0.1443 -0.5707
  124OSM    H1S13147   0.466   3.362   6.457  0.3612 -1.9322  0.8890
  124OSM    H1T13148   0.365   3.230   6.519  2.2845 -0.5539  0.8281
  124OSM     NF13149   0.538   3.368   6.691  0.8903  0.4291 -0.1771
  124OSM    HNF13150   0.570   3.289   6.744  1.9388  1.0691  0.1619
  124OSM    C2S13151   0.397   3.387   6.660  0.2856 -0.4491 -0.2214
  124OSM    H2S13152   0.375   3.496   6.669  1.6315 -0.2970  1.8418
  124OSM    C3S13153   0.289   3.309   6.746 -0.5402 -0.3382 -0.4473
  124OSM    H3S13154   0.280   3.200   6.727  0.2561 -0.7436  1.2711
  124OSM     O313155   0.166   3.356   6.707  0.8044  0.5192  0.1990
  124OSM    HO313156   0.179   3.396   6.621 -2.7387 -1.3617 -1.4514
  124OSM    C4S13157   0.304   3.331   6.899 -0.2155 -0.2630  0.6947
  124OSM    H4S13158   0.297   3.435   6.933  0.2419 -0.2168  0.6549
  124OSM    C5S13159   0.326   3.226   6.985  0.6244 -0.2441 -0.6090
  124OSM    H5S13160   0.353   3.133   6.934 -1.6081 -0.3702 -1.6595
  124OSM    C6S13161   0.345   3.242   7.136  0.0439  0.5511  0.1007
  124OSM    H6S13162   0.443   3.198   7.167 -0.6917 -1.5952 -0.5019
  124OSM    H6T13163   0.264   3.185   7.186  2.4564 -2.1723  1.1581
  124OSM    C7S13164   0.327   3.385   7.196  0.5531 -0.2271  0.7706
  124OSM    H7S13165   0.226   3.427   7.173  0.9646  1.1525  1.3396
  124OSM    H7T13166   0.411   3.437   7.145 -1.0516 -0.1020 -1.9337
  124OSM    C8S13167   0.347   3.393   7.346  0.1701  0.0244  0.1843
  124OSM    H8S13168   0.349   3.499   7.379 -1.0985 -0.4680  1.9720
  124OSM    H8T13169   0.447   3.345   7.355  0.2509 -0.2688 -1.7522
  124OSM    C9S13170   0.233   3.323   7.421  0.0635 -0.0457  0.2201
  124OSM    H9S13171   0.237   3.214   7.399 -0.6987  0.5158 -3.3602
  124OSM    H9T13172   0.133   3.348   7.380 -0.3635 -1.7277  0.1766
  124OSM   C10S13173   0.225   3.364   7.575 -0.1165  0.1478 -1.4173
  124OSM   H10S13174   0.238   3.475   7.576 -0.2475  0.1610 -1.2941
  124OSM   H10T13175   0.315   3.323   7.624 -1.0941  1.8818  2.1199
  124OSM   C11S13176   0.099   3.323   7.654 -0.0962 -0.2023 -0.2618
  124OSM   H11S13177   0.065   3.219   7.631 -3.7592  1.3149 -2.7319
  124OSM   H11T13178   0.019   3.388   7.612  0.8512 -0.1968 -2.2009
  124OSM   C12S13179   0.115   3.354   7.807  0.2623 -0.2492 -0.2168
  124OSM   H12S13180   0.134   3.463   7.818 -1.3238  0.1661 -1.2615
  124OSM   H12T13181   0.207   3.304   7.843 -1.1897 -1.3168  2.3173
  124OSM   C13S13182   0.007   3.300   7.896  0.4472  0.7028  0.7531
  124OSM   H13S13183  -0.018   3.193   7.877  0.5346  0.8224 -0.1054
  124OSM   H13T13184  -0.088   3.354   7.877 -0.8809 -2.1088 -1.4514
  124OSM   C14S13185   0.042   3.312   8.043  0.1042  0.2494  0.2188
  124OSM   H14S13186   0.101   3.406   8.053  2.1488 -1.0602  1.1215
  124OSM   H14T13187   0.121   3.240   8.075 -0.7392  0.3450  2.6908
  124OSM   C15S13188  -0.077   3.309   8.144 -0.5872 -1.2075  0.8310
  124OSM   H15S13189  -0.127   3.210   8.131  0.3450 -1.5806 -0.0274
  124OSM   H15T13190  -0.147   3.390   8.114  1.0929 -0.1395 -0.3799
  124OSM   C16S13191  -0.032   3.322   8.296  0.4053  0.8001  0.3482
  124OSM   H16S13192  -0.125   3.329   8.356  0.1387 -0.2597  0.0786
  124OSM   H16T13193   0.029   3.414   8.309 -1.4059  2.5050 -2.3185
  124OSM   C17S13194   0.058   3.199   8.343  0.3049  0.0671  0.7690
  124OSM   H17S13195   0.149   3.193   8.280  0.1115 -0.0231  0.4904
  124OSM   H17T13196  -0.006   3.110   8.321 -0.3854  0.9624 -1.0720
  124OSM   C18S13197   0.098   3.193   8.491 -0.7775 -0.4453 -0.4822
  124OSM   H18S13198   0.137   3.291   8.524 -1.6758 -0.2444  0.0026
  124OSM   H18T13199   0.179   3.117   8.499  1.5614  1.9771  0.1497
  124OSM   H18U13200   0.012   3.167   8.556  1.2547 -2.9493  1.4436
  124OSM    C1F13201   0.633   3.446   6.657 -0.7024 -0.7499 -0.6230
  124OSM     OF13202   0.603   3.548   6.591 -0.4116 -0.1865 -0.0815
  124OSM    C2F13203   0.778   3.407   6.680  0.8905 -0.7425  0.3479
  124OSM    H2F13204   0.818   3.372   6.583  0.8578 -0.1884  0.1343
  124OSM    H2G13205   0.786   3.324   6.753  1.2631 -1.2503 -0.2628
  124OSM    C3F13206   0.855   3.539   6.709 -0.0085  0.6244  0.8061
  124OSM    H3F13207   0.849   3.607   6.621  0.5080  0.3980  0.5912
  124OSM    H3G13208   0.963   3.512   6.711  0.4736  2.3457 -0.1440
  124OSM    C4F13209   0.822   3.611   6.839 -0.0033 -0.2402  0.4172
  124OSM    H4F13210   0.717   3.648   6.832  0.0703 -0.1583 -0.3375
  124OSM    H4G13211   0.888   3.699   6.854  0.5600 -0.6846  0.5645
  124OSM    C5F13212   0.842   3.516   6.963  0.1173 -0.2084  0.0634
  124OSM    H5F13213   0.952   3.516   6.977  0.6948 -3.1668 -3.1388
  124OSM    H5G13214   0.823   3.410   6.936  2.0819 -0.5700 -0.0453
  124OSM    C6F13215   0.762   3.566   7.092 -0.6716 -0.2688  0.6153
  124OSM    H6F13216   0.657   3.574   7.057 -0.2116  2.0653 -0.4501
  124OSM    H6G13217   0.797   3.664   7.131 -1.8444 -0.3909  2.0645
  124OSM    C7F13218   0.768   3.470   7.209 -0.6611  0.7057  0.0458
  124OSM    H7F13219   0.875   3.473   7.240 -0.0885 -1.9146 -1.3322
  124OSM    H7G13220   0.740   3.371   7.168 -0.0660 -0.5108  2.4385
  124OSM    C8F13221   0.684   3.511   7.328  0.4042  0.0609 -0.3958
  124OSM    H8F13222   0.678   3.429   7.403  0.3714 -0.3365 -0.8243
  124OSM    H8G13223   0.579   3.529   7.298 -0.3942  0.0551  2.2027
  124OSM    C9F13224   0.736   3.629   7.410 -0.1323 -0.1207  0.1624
  124OSM    H9F13225   0.802   3.702   7.361  1.8728 -0.8225  1.6565
  124OSM   C10F13226   0.739   3.646   7.545 -0.1219  0.4022 -0.2389
  124OSM   H10F13227   0.775   3.742   7.584  0.6474 -0.1802  0.4924
  124OSM   C11F13228   0.671   3.547   7.645  0.0045 -0.5716 -0.3381
  124OSM   H11F13229   0.736   3.538   7.735  0.8336  0.6747 -0.7731
  124OSM   H11G13230   0.670   3.442   7.609  2.3334 -1.1152  0.9634
  124OSM   C12F13231   0.529   3.597   7.683 -0.2859  0.0091 -0.0077
  124OSM   H12F13232   0.458   3.611   7.599 -0.0563  0.1586 -0.1759
  124OSM   H12G13233   0.544   3.699   7.725 -0.5888  0.6823 -1.4972
  124OSM   C13F13234   0.462   3.501   7.789  0.9596  0.0409 -0.9773
  124OSM   H13F13235   0.466   3.399   7.745 -1.1637  0.6751 -2.8580
  124OSM   H13G13236   0.361   3.540   7.815  0.5706 -0.8469 -1.1381
  124OSM   C14F13237   0.534   3.511   7.924 -0.5474  0.3334  1.0065
  124OSM   H14F13238   0.536   3.613   7.968  1.0462  1.5340 -1.5868
  124OSM   H14G13239   0.640   3.481   7.911 -0.2783  1.3662  0.6912
  124OSM   C15F13240   0.470   3.415   8.026  0.4682  0.3353  0.1827
  124OSM   H15F13241   0.466   3.316   7.976 -0.6484  0.3173  0.2799
  124OSM   H15G13242   0.365   3.446   8.042  1.2456  1.9490  2.8371
  124OSM   C16F13243   0.538   3.426   8.161 -0.1721  0.0681 -0.4721
  124OSM   H16F13244   0.548   3.533   8.190 -2.0630 -0.0444  0.7726
  124OSM   H16G13245   0.642   3.385   8.162 -0.6763 -1.2723  0.4481
  124OSM   C17F13246   0.468   3.365   8.283  0.3718  0.5398 -0.3485
  124OSM   H17F13247   0.360   3.388   8.291 -0.4844 -1.8684 -3.2179
  124OSM   H17G13248   0.514   3.418   8.369 -1.7481  1.9139  0.0102
  124OSM   C18F13249   0.490   3.213   8.282  0.1937  0.7788 -0.5257
  124OSM   H18F13250   0.432   3.179   8.194  1.6567  2.2006 -2.1180
  124OSM   H18G13251   0.463   3.169   8.380  2.2134 -0.7737 -0.5892
  124OSM   H18H13252   0.598   3.187   8.278 -0.0232 -0.7378  1.5728
  125OSM      N13253   2.538   1.471   5.935  0.0151  0.3268 -0.2617
  125OSM    C1513254   2.491   1.542   5.812 -0.3260  0.3577  0.0129
  125OSM   H15A13255   2.394   1.589   5.824 -1.1175 -0.2739 -3.0156
  125OSM   H15B13256   2.483   1.481   5.723  1.0707  1.3273 -0.8278
  125OSM   H15C13257   2.556   1.623   5.782  0.6021 -0.7823 -1.1913
  125OSM    C1413258   2.464   1.343   5.955  0.6726  0.0672  0.6870
  125OSM   H14A13259   2.357   1.348   5.966  0.2043 -2.0384 -1.8369
  125OSM   H14B13260   2.498   1.292   6.044 -0.5277  2.1962  2.4627
  125OSM   H14C13261   2.485   1.278   5.871  0.3699  2.2623 -1.1964
  125OSM    C1313262   2.683   1.448   5.923 -1.1149  0.2024  0.2636
  125OSM   H13A13263   2.720   1.382   6.000 -1.6545 -1.5345 -0.8896
  125OSM   H13B13264   2.737   1.541   5.916 -0.3574 -0.3251 -1.5329
  125OSM   H13C13265   2.702   1.395   5.831 -2.7932 -1.5719  0.8654
  125OSM    C1213266   2.511   1.556   6.066  0.0413 -0.3051 -0.6419
  125OSM   H12A13267   2.564   1.650   6.068  1.1145 -0.8927 -0.9769
  125OSM   H12B13268   2.566   1.502   6.141 -1.3325 -0.8468  0.0101
  125OSM    C1113269   2.365   1.577   6.119 -0.2297  0.2245  0.1866
  125OSM   H11A13270   2.316   1.651   6.052  2.1549  0.0426 -1.8934
  125OSM   H11B13271   2.369   1.632   6.216  0.3075  0.1367  0.2167
  125OSM      P13272   2.283   1.389   6.280 -0.3627 -0.2303  0.3009
  125OSM    O1313273   2.213   1.484   6.370  0.2752  0.1443 -0.2636
  125OSM    O1413274   2.229   1.257   6.264 -0.4100  0.1490  0.5252
  125OSM    O1113275   2.434   1.368   6.321  0.2958 -0.1089 -0.5250
  125OSM    O1213276   2.285   1.457   6.140 -0.3991  0.0739 -0.5790
  125OSM    C1S13277   2.494   1.442   6.433 -0.2720 -0.7447 -0.0487
  125OSM    H1S13278   2.427   1.527   6.460  0.5432  0.2847 -1.1511
  125OSM    H1T13279   2.589   1.487   6.397  0.7861 -3.6316 -1.1948
  125OSM     NF13280   2.553   1.429   6.672 -0.0711 -0.3879  0.5067
  125OSM    HNF13281   2.645   1.420   6.709  0.0083  0.4955  0.5533
  125OSM    C2S13282   2.513   1.349   6.559  0.2568 -0.0983  0.1138
  125OSM    H2S13283   2.415   1.306   6.586 -0.1010  1.7967  2.1761
  125OSM    C3S13284   2.614   1.238   6.525 -0.4298 -0.6031  0.2238
  125OSM    H3S13285   2.713   1.286   6.508 -0.5693 -0.9103 -1.7992
  125OSM     O313286   2.598   1.168   6.407 -0.5058  0.0178 -0.2426
  125OSM    HO313287   2.532   1.212   6.353 -0.8173 -1.8022 -1.4338
  125OSM    C4S13288   2.616   1.155   6.650 -0.0120  0.4822 -0.2404
  125OSM    H4S13289   2.677   1.206   6.725 -0.3051 -0.2757  0.5243
  125OSM    C5S13290   2.551   1.036   6.692 -0.4745  0.0525 -0.3306
  125OSM    H5S13291   2.483   0.986   6.621 -1.5227  1.8646 -0.6810
  125OSM    C6S13292   2.572   0.962   6.820 -0.5316  0.1854 -0.4745
  125OSM    H6S13293   2.597   0.856   6.798  0.2409  0.0603  0.8882
  125OSM    H6T13294   2.472   0.958   6.869 -0.9588  1.0751 -1.2525
  125OSM    C7S13295   2.659   1.024   6.930  0.7373 -0.4535 -0.4652
  125OSM    H7S13296   2.667   1.135   6.932  2.3968 -0.5165  2.2699
  125OSM    H7T13297   2.768   1.001   6.929  1.5000  2.6220  0.0997
  125OSM    C8S13298   2.614   0.987   7.074 -0.9259 -0.4371  0.0615
  125OSM    H8S13299   2.505   1.003   7.094 -1.1936 -2.2942  0.3330
  125OSM    H8T13300   2.668   1.050   7.148 -2.3732  0.5986  0.2936
  125OSM    C9S13301   2.643   0.841   7.116  0.4286  0.4128 -0.0883
  125OSM    H9S13302   2.752   0.822   7.108  0.6311  1.3465  0.3108
  125OSM    H9T13303   2.591   0.766   7.053 -1.6441 -1.4926  3.4951
  125OSM   C10S13304   2.582   0.812   7.255  0.0629 -0.2650  0.6422
  125OSM   H10S13305   2.585   0.703   7.277 -0.3914 -0.4854 -0.3201
  125OSM   H10T13306   2.473   0.831   7.263 -0.3480 -2.5239  1.1806
  125OSM   C11S13307   2.645   0.891   7.371 -0.3133  0.2415  0.5946
  125OSM   H11S13308   2.609   0.996   7.365  0.7541  0.5132 -2.6478
  125OSM   H11T13309   2.755   0.900   7.358 -0.1522 -2.4671 -0.6612
  125OSM   C12S13310   2.617   0.829   7.503  0.1350 -0.6200 -0.6744
  125OSM   H12S13311   2.659   0.727   7.515 -1.3811 -1.3881 -1.6227
  125OSM   H12T13312   2.508   0.822   7.521  0.4127 -1.4077  0.8564
  125OSM   C13S13313   2.676   0.915   7.619 -0.2891 -0.2990 -0.9451
  125OSM   H13S13314   2.670   1.023   7.593 -2.3147  0.0279  0.6459
  125OSM   H13T13315   2.782   0.886   7.633 -0.6570 -2.0654 -1.5752
  125OSM   C14S13316   2.596   0.892   7.750 -0.1431 -0.9894 -0.5928
  125OSM   H14S13317   2.602   0.785   7.778  1.0510 -0.7993 -0.0475
  125OSM   H14T13318   2.489   0.919   7.738  0.5018  2.9315  0.9720
  125OSM   C15S13319   2.662   0.961   7.876 -0.1554 -0.0562  0.2174
  125OSM   H15S13320   2.653   1.071   7.880  2.2534  0.2006  0.2259
  125OSM   H15T13321   2.772   0.948   7.878 -0.2599 -0.9458  0.6148
  125OSM   C16S13322   2.596   0.914   8.012 -0.0820  0.1952 -0.8497
  125OSM   H16S13323   2.607   0.803   8.020 -1.0985  0.1202 -0.3606
  125OSM   H16T13324   2.489   0.943   8.012 -0.8109 -1.5108  3.9765
  125OSM   C17S13325   2.670   0.971   8.135  0.3745 -0.0417 -0.0564
  125OSM   H17S13326   2.660   1.082   8.133 -0.6037 -0.1257 -0.8282
  125OSM   H17T13327   2.775   0.937   8.136  0.2857 -0.4821 -1.8192
  125OSM   C18S13328   2.598   0.934   8.268  0.7157 -0.1148  0.3081
  125OSM   H18S13329   2.487   0.942   8.259  0.7877  0.7219  0.1026
  125OSM   H18T13330   2.630   1.004   8.348  1.2444  0.2528 -0.2204
  125OSM   H18U13331   2.621   0.829   8.296 -1.3139 -0.3693  1.2270
  125OSM    C1F13332   2.484   1.523   6.735 -0.2286 -0.8468  0.3861
  125OSM     OF13333   2.362   1.536   6.710  0.2548 -0.0281 -0.2872
  125OSM    C2F13334   2.551   1.619   6.836  0.6138  0.3566 -0.2062
  125OSM    H2F13335   2.654   1.639   6.801 -0.0080  1.7912 -1.3370
  125OSM    H2G13336   2.553   1.566   6.934  1.6214  2.1829  0.8359
  125OSM    C3F13337   2.494   1.764   6.834 -0.5761  0.3275 -0.2554
  125OSM    H3F13338   2.387   1.754   6.861 -0.3278 -1.1809  0.2300
  125OSM    H3G13339   2.489   1.813   6.734  0.2408  0.3294 -0.3009
  125OSM    C4F13340   2.566   1.863   6.929  0.2447  0.2057 -0.8563
  125OSM    H4F13341   2.520   1.964   6.920  1.7004  0.9251 -0.4811
  125OSM    H4G13342   2.669   1.882   6.891  0.4069 -0.8571 -0.9797
  125OSM    C5F13343   2.570   1.814   7.078 -0.3921 -0.8667 -0.1574
  125OSM    H5F13344   2.632   1.889   7.130 -1.6593 -0.5425  0.9484
  125OSM    H5G13345   2.617   1.714   7.079  0.1817 -0.6525  2.5747
  125OSM    C6F13346   2.423   1.817   7.123 -0.1206  0.0400  0.2579
  125OSM    H6F13347   2.363   1.738   7.073 -0.7015  0.9955 -0.5967
  125OSM    H6G13348   2.378   1.915   7.098 -1.1794 -0.1766  1.2398
  125OSM    C7F13349   2.399   1.800   7.270 -0.0552 -0.9594  0.1993
  125OSM    H7F13350   2.453   1.874   7.333 -2.0572  1.7320 -1.0360
  125OSM    H7G13351   2.423   1.695   7.298 -0.2447 -0.9606  0.3640
  125OSM    C8F13352   2.247   1.815   7.299 -0.0222  0.1976 -0.3213
  125OSM    H8F13353   2.226   1.781   7.403  0.7099  1.1410  0.1466
  125OSM    H8G13354   2.194   1.738   7.240 -0.7431  0.3672  0.0990
  125OSM    C9F13355   2.187   1.955   7.275 -0.3375  0.2832 -0.6798
  125OSM    H9F13356   2.185   1.987   7.169 -0.5494  0.3118 -0.6667
  125OSM   C10F13357   2.144   2.039   7.368 -0.4392  0.0601 -0.6071
  125OSM   H10F13358   2.121   2.144   7.343  1.0587  1.1623  2.1109
  125OSM   C11F13359   2.142   2.021   7.520  0.3158 -0.4316  1.4326
  125OSM   H11F13360   2.082   1.930   7.538 -0.2917 -0.4837 -0.5989
  125OSM   H11G13361   2.084   2.103   7.568 -1.2650  0.0954 -1.1314
  125OSM   C12F13362   2.284   2.010   7.572  0.1100  0.0218 -0.8934
  125OSM   H12F13363   2.337   2.105   7.551 -0.4119  0.1969 -1.4713
  125OSM   H12G13364   2.342   1.931   7.519  1.3463 -0.6081  1.2667
  125OSM   C13F13365   2.283   1.983   7.720 -0.6660  0.1832  0.1355
  125OSM   H13F13366   2.222   1.893   7.744  1.5585 -1.4832 -0.1564
  125OSM   H13G13367   2.236   2.062   7.783 -0.3989  1.0965 -0.7825
  125OSM   C14F13368   2.429   1.973   7.767  0.0787 -0.4819  0.4172
  125OSM   H14F13369   2.487   2.067   7.758  1.2031 -1.3860 -2.8878
  125OSM   H14G13370   2.484   1.905   7.700  1.4877  2.6264 -1.8319
  125OSM   C15F13371   2.434   1.913   7.909 -0.3629  0.4928 -0.3114
  125OSM   H15F13372   2.384   1.815   7.920  2.1839 -0.9470 -0.6287
  125OSM   H15G13373   2.383   1.977   7.983  0.8958 -1.9062  2.8457
  125OSM   C16F13374   2.582   1.898   7.951 -0.7696  0.5937 -0.2410
  125OSM   H16F13375   2.634   1.995   7.935 -0.9715  1.1253  1.9312
  125OSM   H16G13376   2.635   1.823   7.890 -1.6296  0.4372 -0.8176
  125OSM   C17F13377   2.598   1.876   8.099 -0.5642  0.0128  0.2291
  125OSM   H17F13378   2.561   1.780   8.143  0.7021 -0.1400  1.0122
  125OSM   H17G13379   2.543   1.961   8.143  2.8698  1.9305  1.1591
  125OSM   C18F13380   2.741   1.885   8.159 -0.4427  0.1943 -0.4514
  125OSM   H18F13381   2.744   1.894   8.270 -1.4458  1.5536 -0.4999
  125OSM   H18G13382   2.806   1.961   8.110  0.1772  1.2179  1.8080
  125OSM   H18H13383   2.790   1.788   8.138 -0.4765 -0.3094  1.5529
  126OSM      N13384   4.398   5.751   6.346 -0.1089  0.1975  0.0092
  126OSM    C1513385   4.275   5.671   6.300  0.2274 -0.8194 -0.3139
  126OSM   H15A13386   4.257   5.579   6.353 -0.3770 -0.6478 -0.2184
  126OSM   H15B13387   4.280   5.640   6.197 -1.3511 -0.8917 -0.3945
  126OSM   H15C13388   4.193   5.741   6.309  1.2931  0.1906  3.4172
  126OSM    C1413389   4.513   5.651   6.351  0.6297 -0.7974 -0.5927
  126OSM   H14A13390   4.602   5.710   6.367  0.0800  0.2081 -1.1723
  126OSM   H14B13391   4.541   5.596   6.263  4.9224  0.7202 -0.3972
  126OSM   H14C13392   4.500   5.587   6.437 -1.5973  1.4064  0.8760
  126OSM    C1313393   4.425   5.847   6.238  0.3315  0.3926 -0.6795
  126OSM   H13A13394   4.442   5.791   6.148 -2.1890 -0.6109 -0.6258
  126OSM   H13B13395   4.512   5.900   6.273  1.0156 -1.4031  0.5206
  126OSM   H13C13396   4.342   5.916   6.228  0.1456 -0.0172 -2.1936
  126OSM    C1213397   4.366   5.820   6.482 -0.6866  0.7928  0.0399
  126OSM   H12A13398   4.331   5.744   6.550 -3.1213  1.4995 -0.3197
  126OSM   H12B13399   4.276   5.874   6.455 -0.5475  0.5232 -1.0142
  126OSM    C1113400   4.477   5.905   6.554 -0.0905 -0.0482 -0.3093
  126OSM   H11A13401   4.432   5.957   6.641 -0.1262 -0.9744  0.2369
  126OSM   H11B13402   4.512   5.986   6.486 -0.2953 -0.8451 -1.3915
  126OSM      P13403   4.565   5.712   6.712  0.1897  0.3193 -0.2580
  126OSM    O1313404   4.421   5.692   6.734  0.2948  0.0959  0.6937
  126OSM    O1413405   4.641   5.596   6.665 -0.2619  0.3430 -0.0566
  126OSM    O1113406   4.638   5.763   6.845 -0.6171  0.1331  0.0936
  126OSM    O1213407   4.586   5.818   6.601  0.1665 -0.4339  0.5282
  126OSM    C1S13408   4.629   5.900   6.868 -1.0541 -0.1671 -0.1377
  126OSM    H1S13409   4.520   5.919   6.878 -1.0760 -0.3725  0.0083
  126OSM    H1T13410   4.680   5.959   6.788 -0.2818  0.3396  0.7185
  126OSM     NF13411   4.698   6.090   7.008 -0.1996 -0.4884  1.4563
  126OSM    HNF13412   4.782   6.140   6.990 -0.6144  0.1583  1.2923
  126OSM    C2S13413   4.711   5.949   6.985 -0.5431 -0.0675  0.1176
  126OSM    H2S13414   4.666   5.896   7.071  1.1861 -1.3780  0.2625
  126OSM    C3S13415   4.861   5.906   6.984 -0.0119  0.1640  0.4985
  126OSM    H3S13416   4.911   5.958   6.900  1.5363  0.4496  1.5455
  126OSM     O313417   4.882   5.768   6.955  0.2874  0.0538 -0.1035
  126OSM    HO313418   4.797   5.751   6.914  0.9902  1.1680 -2.1402
  126OSM    C4S13419   4.925   5.932   7.116 -0.4880 -0.1315 -0.1969
  126OSM    H4S13420   4.888   5.894   7.213 -0.0016 -1.6419 -0.5653
  126OSM    C5S13421   5.040   5.997   7.140 -0.0421 -0.1907  0.6224
  126OSM    H5S13422   5.097   6.034   7.053  0.0923 -0.1432  0.7315
  126OSM    C6S13423   5.108   6.028   7.269  0.0106 -0.4639  0.2009
  126OSM    H6S13424   5.139   6.134   7.260 -1.6842  0.2017  1.7241
  126OSM    H6T13425   5.206   5.975   7.273 -0.5939 -2.1046 -2.9770
  126OSM    C7S13426   5.024   6.022   7.401 -0.7051 -0.3267  0.8815
  126OSM    H7S13427   4.920   6.054   7.377 -1.4324 -3.5539 -0.8622
  126OSM    H7T13428   5.067   6.091   7.477  2.1905  1.4979 -2.1487
  126OSM    C8S13429   5.020   5.882   7.460 -0.0776 -0.9827  0.2738
  126OSM    H8S13430   5.121   5.850   7.493 -0.2268  1.3358  3.4584
  126OSM    H8T13431   4.979   5.813   7.383  0.3831  0.3745 -1.2364
  126OSM    C9S13432   4.926   5.867   7.578 -0.3994 -0.0853  0.3629
  126OSM    H9S13433   4.934   5.759   7.606  0.1976 -0.5181 -1.3404
  126OSM    H9T13434   4.823   5.898   7.553 -1.6139 -1.9206  2.7022
  126OSM   C10S13435   4.962   5.957   7.696 -0.3529 -0.2201  0.3547
  126OSM   H10S13436   4.962   6.064   7.667 -1.0781  0.1838  1.7611
  126OSM   H10T13437   5.069   5.933   7.711 -0.0192  0.0110 -1.4101
  126OSM   C11S13438   4.895   5.938   7.837 -0.4732  0.3200 -0.7952
  126OSM   H11S13439   4.907   5.831   7.866 -1.7432  0.1499 -0.8438
  126OSM   H11T13440   4.788   5.961   7.818 -0.0762  2.2716 -0.7996
  126OSM   C12S13441   4.961   6.022   7.946 -0.2641 -0.2483  0.0800
  126OSM   H12S13442   4.953   6.132   7.934  2.4419 -0.2538 -3.7420
  126OSM   H12T13443   5.070   6.006   7.934 -0.6383 -2.4716 -0.7820
  126OSM   C13S13444   4.912   5.991   8.090  0.0375 -0.5345  1.2046
  126OSM   H13S13445   4.897   5.882   8.105  1.9874 -1.1143 -0.6509
  126OSM   H13T13446   4.816   6.044   8.106 -1.0081 -1.6598 -0.9406
  126OSM   C14S13447   5.006   6.039   8.201 -0.0879 -0.0715 -0.6255
  126OSM   H14S13448   5.024   6.149   8.191 -0.6253 -0.1780 -3.7249
  126OSM   H14T13449   5.100   5.981   8.207 -0.0167  0.1964  1.8614
  126OSM   C15S13450   4.934   6.004   8.333 -0.0554 -0.3579  0.1360
  126OSM   H15S13451   4.877   5.911   8.311 -1.3015  0.6703 -1.2135
  126OSM   H15T13452   4.865   6.087   8.358  1.1282  0.7323 -0.1532
  126OSM   C16S13453   5.031   5.984   8.451  0.6742  0.5714 -0.5790
  126OSM   H16S13454   5.079   5.884   8.436  1.3230  1.1300 -2.5558
  126OSM   H16T13455   4.970   5.971   8.543 -0.8533  2.0049 -1.3494
  126OSM   C17S13456   5.133   6.096   8.474  0.3562 -0.1938  0.0530
  126OSM   H17S13457   5.068   6.185   8.484 -0.4018 -0.4921 -1.7837
  126OSM   H17T13458   5.201   6.113   8.387  1.0632 -1.4230  0.3391
  126OSM   C18S13459   5.226   6.081   8.592 -0.4311  0.6739  0.1314
  126OSM   H18S13460   5.306   6.158   8.600  0.4246 -0.2941  1.1264
  126OSM   H18T13461   5.282   5.986   8.582 -1.0725  0.2645  0.3954
  126OSM   H18U13462   5.163   6.078   8.684 -0.0479  0.0466  0.3731
  126OSM    C1F13463   4.583   6.155   7.038 -0.4043 -0.2069  0.5141
  126OSM     OF13464   4.478   6.089   7.057 -0.1227 -0.4673  0.4915
  126OSM    C2F13465   4.585   6.297   7.042  0.4670 -0.8026  0.1891
  126OSM    H2F13466   4.496   6.345   7.087  0.7540 -0.3095  0.2352
  126OSM    H2G13467   4.600   6.341   6.940 -2.0102 -0.6824 -0.1849
  126OSM    C3F13468   4.710   6.349   7.125  0.0725 -0.0589 -0.3699
  126OSM    H3F13469   4.715   6.460   7.129  0.0898 -0.0471 -0.7040
  126OSM    H3G13470   4.801   6.322   7.069 -0.6607 -0.1650 -1.5419
  126OSM    C4F13471   4.728   6.291   7.266 -0.7572 -0.5233 -0.7809
  126OSM    H4F13472   4.750   6.182   7.262  2.3559 -0.2493  2.9137
  126OSM    H4G13473   4.643   6.301   7.336 -0.7470  0.1510 -0.8663
  126OSM    C5F13474   4.842   6.364   7.339 -0.1314  0.1641  0.7163
  126OSM    H5F13475   4.849   6.472   7.314  0.3983 -0.0416 -0.0880
  126OSM    H5G13476   4.930   6.314   7.293  0.0333  0.1199  1.0805
  126OSM    C6F13477   4.855   6.336   7.494 -0.0502  0.9904  0.6515
  126OSM    H6F13478   4.923   6.404   7.548  1.4712 -1.6356  2.2456
  126OSM    H6G13479   4.881   6.229   7.508  0.2367  0.9093 -0.4155
  126OSM    C7F13480   4.725   6.341   7.571 -0.3679 -0.5130  0.0799
  126OSM    H7F13481   4.649   6.268   7.535 -0.9727  0.7469 -1.3180
  126OSM    H7G13482   4.681   6.443   7.573  1.2074  0.1857  1.7642
  126OSM    C8F13483   4.753   6.300   7.717 -0.7731  0.3118  0.3540
  126OSM    H8F13484   4.848   6.351   7.747 -0.2034 -0.1222 -0.6662
  126OSM    H8G13485   4.764   6.190   7.724  0.9927  0.4600  0.3486
  126OSM    C9F13486   4.648   6.336   7.819 -0.0613 -0.1721 -0.5261
  126OSM    H9F13487   4.546   6.342   7.777 -0.1005 -1.3221 -0.6320
  126OSM   C10F13488   4.648   6.371   7.948 -0.2832 -0.5962  0.3101
  126OSM   H10F13489   4.549   6.395   7.989 -0.6941 -2.0302  0.1879
  126OSM   C11F13490   4.766   6.385   8.041  0.5453  0.1182  0.0723
  126OSM   H11F13491   4.860   6.381   7.983 -0.2350 -1.4185 -1.1858
  126OSM   H11G13492   4.773   6.306   8.119 -2.4227 -1.0845 -0.7195
  126OSM   C12F13493   4.784   6.526   8.106  0.0606  0.7327  0.1510
  126OSM   H12F13494   4.792   6.602   8.026 -0.3909  1.6389  0.9501
  126OSM   H12G13495   4.877   6.536   8.166 -0.5007 -1.9402  1.6575
  126OSM   C13F13496   4.661   6.577   8.187 -0.2354 -0.2275 -0.4722
  126OSM   H13F13497   4.562   6.572   8.137 -0.0712 -2.2420 -0.6715
  126OSM   H13G13498   4.675   6.681   8.225  0.6883 -0.6924  0.5421
  126OSM   C14F13499   4.632   6.508   8.320 -0.4813  0.7683 -0.2476
  126OSM   H14F13500   4.576   6.413   8.308 -0.7086  0.9482 -0.6297
  126OSM   H14G13501   4.552   6.567   8.367  0.0150  1.8317 -0.6989
  126OSM   C15F13502   4.752   6.500   8.411  0.1806  0.6879 -0.2031
  126OSM   H15F13503   4.806   6.596   8.429 -0.7766  1.4207 -1.0987
  126OSM   H15G13504   4.819   6.428   8.362  1.0955  1.1961  0.2681
  126OSM   C16F13505   4.718   6.454   8.551  1.1823 -0.1575  0.7791
  126OSM   H16F13506   4.813   6.451   8.608  1.1402 -0.6762  0.8302
  126OSM   H16G13507   4.670   6.354   8.546 -0.9128  0.8484 -2.7764
  126OSM   C17F13508   4.625   6.550   8.623  0.0891  0.5413 -0.8827
  126OSM   H17F13509   4.521   6.534   8.589 -0.1363  0.6978 -0.2877
  126OSM   H17G13510   4.654   6.656   8.607  0.6884  0.5557  0.1996
  126OSM   C18F13511   4.626   6.524   8.776 -0.2930 -0.1290 -0.3631
  126OSM   H18F13512   4.604   6.418   8.800 -0.0747  0.6785  4.2909
  126OSM   H18G13513   4.550   6.589   8.826 -0.3337  0.7684 -1.5265
  126OSM   H18H13514   4.721   6.552   8.827 -1.3311  1.0257  1.0176
  127OSM      N13515   5.158   0.272   5.886  0.3317  0.6062  0.3566
  127OSM    C1513516   5.177   0.237   5.740 -0.3618  0.2054  0.5124
  127OSM   H15A13517   5.242   0.303   5.685  0.6361  0.6413  2.1550
  127OSM   H15B13518   5.084   0.259   5.691  0.9352  2.3756 -1.1668
  127OSM   H15C13519   5.213   0.137   5.721 -2.4268 -0.5898  0.5223
  127OSM    C1413520   5.091   0.404   5.882 -0.1391 -0.4031  0.3912
  127OSM   H14A13521   5.067   0.439   5.981 -1.3523  0.6220 -0.2412
  127OSM   H14B13522   4.999   0.398   5.825 -0.5010 -1.4224  1.0424
  127OSM   H14C13523   5.156   0.476   5.834  1.9457 -0.0744  3.4033
  127OSM    C1313524   5.055   0.182   5.940 -0.0708 -0.2190  0.3053
  127OSM   H13A13525   5.094   0.083   5.958 -0.9502 -0.4315  1.1176
  127OSM   H13B13526   4.968   0.178   5.876  2.7235 -0.2776 -3.9314
  127OSM   H13C13527   5.030   0.215   6.040 -3.3978 -2.4166  0.3500
  127OSM    C1213528   5.288   0.273   5.959 -0.3416  0.4914 -0.0986
  127OSM   H12A13529   5.362   0.334   5.910 -1.7177  2.4172  0.1246
  127OSM   H12B13530   5.341   0.178   5.959 -0.5505  0.3389  1.5827
  127OSM    C1113531   5.282   0.330   6.104  0.1271 -0.7944 -0.4546
  127OSM   H11A13532   5.386   0.316   6.140 -0.5126 -1.0043  1.4556
  127OSM   H11B13533   5.223   0.266   6.174  1.7857 -0.8446  0.9615
  127OSM      P13534   5.330   0.597   6.089  0.0435 -0.1404  0.1291
  127OSM    O1313535   5.438   0.559   6.000 -0.1910 -0.0813  0.8817
  127OSM    O1413536   5.250   0.714   6.042 -0.3348 -0.2867 -0.2693
  127OSM    O1113537   5.382   0.618   6.235  0.6815  0.3235 -0.5381
  127OSM    O1213538   5.234   0.469   6.110  0.4605 -0.0009 -0.1776
  127OSM    C1S13539   5.453   0.518   6.309 -0.4750  0.1158 -0.4786
  127OSM    H1S13540   5.551   0.491   6.264 -1.1338 -0.2782 -1.7486
  127OSM    H1T13541   5.399   0.421   6.316 -0.2671  0.1056  1.6105
  127OSM     NF13542   5.552   0.470   6.519 -0.5527 -0.2015  0.0567
  127OSM    HNF13543   5.497   0.394   6.552  0.7109 -0.2725  2.2200
  127OSM    C2S13544   5.466   0.566   6.452 -0.2630  0.1997 -0.0627
  127OSM    H2S13545   5.504   0.670   6.461 -0.3137  0.1316  1.0166
  127OSM    C3S13546   5.320   0.578   6.517 -0.0771 -0.2301  0.1001
  127OSM    H3S13547   5.257   0.495   6.478  0.6452 -1.1885  0.9032
  127OSM     O313548   5.266   0.702   6.478  0.2954 -0.3212  0.0181
  127OSM    HO313549   5.313   0.721   6.396 -2.3736  2.0678 -1.1236
  127OSM    C4S13550   5.320   0.574   6.671  0.4118  0.4597  0.2541
  127OSM    H4S13551   5.278   0.477   6.704  0.2640  0.6100  0.5120
  127OSM    C5S13552   5.359   0.673   6.757 -0.3671  0.4498 -0.1128
  127OSM    H5S13553   5.396   0.765   6.711  3.8494  0.8359  3.4598
  127OSM    C6S13554   5.350   0.660   6.906  0.6778 -0.8551 -0.7074
  127OSM    H6S13555   5.241   0.663   6.928  0.4898 -1.9033 -1.4197
  127OSM    H6T13556   5.390   0.744   6.966 -2.0656  0.3461 -0.4033
  127OSM    C7S13557   5.402   0.525   6.954 -0.3253 -0.3063 -0.4790
  127OSM    H7S13558   5.510   0.519   6.926 -0.6972 -0.1961 -2.0624
  127OSM    H7T13559   5.341   0.438   6.918 -0.5959 -0.7436  0.9854
  127OSM    C8S13560   5.414   0.513   7.101 -0.3170 -0.0596 -0.5048
  127OSM    H8S13561   5.483   0.591   7.139 -2.0057  1.8815 -1.2108
  127OSM    H8T13562   5.459   0.416   7.130  0.6910  1.0431  1.9581
  127OSM    C9S13563   5.275   0.527   7.174 -0.7956 -0.2468  0.4065
  127OSM    H9S13564   5.212   0.446   7.130  3.2381 -4.2699  1.2888
  127OSM    H9T13565   5.225   0.622   7.147 -1.3504 -0.6493 -0.0238
  127OSM   C10S13566   5.282   0.501   7.327 -0.7970 -0.8168 -0.5971
  127OSM   H10S13567   5.311   0.394   7.337 -1.2817 -0.9956 -1.0123
  127OSM   H10T13568   5.178   0.501   7.366  0.0653 -0.9459  1.8943
  127OSM   C11S13569   5.368   0.608   7.409  0.3816  0.3755  0.7197
  127OSM   H11S13570   5.336   0.707   7.372 -0.8029  0.0760  0.9061
  127OSM   H11T13571   5.476   0.587   7.394  0.8337  0.5724  3.2363
  127OSM   C12S13572   5.345   0.599   7.557 -0.2960  0.4652  1.0000
  127OSM   H12S13573   5.383   0.499   7.590 -1.8443 -0.1917  0.8918
  127OSM   H12T13574   5.236   0.600   7.579 -0.1448  0.3757  1.7846
  127OSM   C13S13575   5.413   0.714   7.633 -0.4433 -0.1432  0.0090
  127OSM   H13S13576   5.359   0.806   7.602  0.7010  1.1563  1.6408
  127OSM   H13T13577   5.520   0.723   7.605 -0.2786  1.4191  1.0162
  127OSM   C14S13578   5.405   0.701   7.784  0.2520  0.0400 -0.1265
  127OSM   H14S13579   5.497   0.647   7.815  0.3062 -0.4334 -1.0704
  127OSM   H14T13580   5.307   0.665   7.824  0.4262  1.6159  1.8271
  127OSM   C15S13581   5.417   0.841   7.852  0.2715 -0.1676 -0.1389
  127OSM   H15S13582   5.349   0.904   7.791  0.3185  0.1156  0.0954
  127OSM   H15T13583   5.518   0.886   7.842 -0.6613  1.8134 -1.2897
  127OSM   C16S13584   5.369   0.841   8.001 -0.0842 -0.2614  0.9980
  127OSM   H16S13585   5.424   0.761   8.055  0.2748 -0.5662  0.1960
  127OSM   H16T13586   5.262   0.815   8.011  0.1498 -1.1730  1.2902
  127OSM   C17S13587   5.408   0.974   8.062  0.0708 -0.0299 -0.0264
  127OSM   H17S13588   5.377   1.055   7.992 -0.4942  0.6627  0.9984
  127OSM   H17T13589   5.513   0.980   8.097  0.5111  0.5832 -1.3613
  127OSM   C18S13590   5.318   0.996   8.186  0.6657 -0.0574  0.1608
  127OSM   H18S13591   5.323   1.104   8.212 -0.4545  0.5373 -1.8881
  127OSM   H18T13592   5.358   0.954   8.280  2.4836  3.1990  1.0202
  127OSM   H18U13593   5.213   0.971   8.160 -0.0068  1.1844  1.5239
  127OSM    C1F13594   5.686   0.465   6.505  0.5147 -0.0679  0.5188
  127OSM     OF13595   5.744   0.560   6.454 -0.2053 -0.1012  0.3050
  127OSM    C2F13596   5.756   0.345   6.560 -0.3483 -0.2791 -0.2394
  127OSM    H2F13597   5.825   0.314   6.478  0.0853 -1.4727  0.5527
  127OSM    H2G13598   5.685   0.262   6.574  0.6117 -0.8564  1.4277
  127OSM    C3F13599   5.845   0.382   6.687  0.3479 -0.2742  0.6740
  127OSM    H3F13600   5.788   0.451   6.752 -0.0638 -0.9582  1.0474
  127OSM    H3G13601   5.935   0.432   6.644  0.5845 -2.0157 -0.9571
  127OSM    C4F13602   5.883   0.268   6.789  0.1495 -0.2201 -0.2074
  127OSM    H4F13603   5.912   0.175   6.735 -5.1700 -0.7426 -2.7944
  127OSM    H4G13604   5.792   0.228   6.838 -0.0268  1.5429  0.9802
  127OSM    C5F13605   6.001   0.300   6.886  0.0497 -0.5122  0.3221
  127OSM    H5F13606   6.094   0.311   6.826  0.6874 -0.9897  1.2106
  127OSM    H5G13607   6.011   0.215   6.957  1.2068 -1.8827 -1.3778
  127OSM    C6F13608   5.966   0.427   6.968  0.9121 -0.1882 -0.6823
  127OSM    H6F13609   5.872   0.403   7.023  3.3451 -1.2971  3.4534
  127OSM    H6G13610   5.957   0.525   6.918 -1.0801  1.4853  2.5925
  127OSM    C7F13611   6.064   0.452   7.084 -0.1292  0.2431 -0.0302
  127OSM    H7F13612   6.029   0.542   7.139 -0.0269  0.4560 -0.3079
  127OSM    H7G13613   6.168   0.477   7.051 -0.5524  0.6751 -1.0786
  127OSM    C8F13614   6.068   0.331   7.179  0.4289 -0.7547  0.4917
  127OSM    H8F13615   6.131   0.253   7.132  0.9194  0.8302 -1.6401
  127OSM    H8G13616   5.972   0.275   7.179 -0.1702  0.0709 -2.7961
  127OSM    C9F13617   6.128   0.366   7.312  0.4183 -0.1406 -0.4107
  127OSM    H9F13618   6.236   0.388   7.322  0.3269 -0.1407  0.6702
  127OSM   C10F13619   6.052   0.384   7.424 -0.0096 -0.9334  0.0394
  127OSM   H10F13620   6.112   0.395   7.515  1.1227 -1.0933 -0.6646
  127OSM   C11F13621   5.903   0.371   7.433 -0.0448 -0.1797  0.0435
  127OSM   H11F13622   5.869   0.322   7.527  0.2659  1.2241  0.9168
  127OSM   H11G13623   5.853   0.323   7.346  1.9510  0.7091 -1.6791
  127OSM   C12F13624   5.842   0.514   7.445  0.1789 -0.6590 -0.0888
  127OSM   H12F13625   5.864   0.571   7.537 -0.7256  0.5590 -0.6008
  127OSM   H12G13626   5.734   0.492   7.459  0.8811 -4.3155  0.7489
  127OSM   C13F13627   5.856   0.605   7.323 -0.1665 -0.1040  0.0327
  127OSM   H13F13628   5.852   0.540   7.233  1.6427 -0.5093  0.1907
  127OSM   H13G13629   5.960   0.644   7.317 -0.0524  0.2973  3.1538
  127OSM   C14F13630   5.758   0.728   7.320 -0.6437 -0.7237  0.0589
  127OSM   H14F13631   5.774   0.779   7.417  1.0548 -0.5463 -0.2713
  127OSM   H14G13632   5.654   0.690   7.313 -1.3825  1.2903 -0.3835
  127OSM   C15F13633   5.783   0.819   7.201 -0.2835  0.9101 -1.3303
  127OSM   H15F13634   5.888   0.850   7.184 -1.1180  3.0323 -3.0702
  127OSM   H15G13635   5.714   0.906   7.210 -0.8044  0.3234  1.0974
  127OSM   C16F13636   5.721   0.760   7.068  0.2065 -0.3644  0.2365
  127OSM   H16F13637   5.619   0.718   7.077  0.3031 -1.1852 -1.9066
  127OSM   H16G13638   5.773   0.663   7.050 -0.3373 -0.5133 -0.6085
  127OSM   C17F13639   5.725   0.865   6.964  0.5655  0.4406  0.2866
  127OSM   H17F13640   5.815   0.926   6.986  0.1911  1.1603 -0.1104
  127OSM   H17G13641   5.640   0.938   6.968  1.2572  1.2642  0.3321
  127OSM   C18F13642   5.741   0.823   6.820  0.2585  0.3886  0.5984
  127OSM   H18F13643   5.726   0.908   6.751 -0.1457 -0.7444 -0.7448
  127OSM   H18G13644   5.657   0.756   6.795 -1.3153  2.0028  1.3303
  127OSM   H18H13645   5.838   0.768   6.815 -0.5459 -0.9396 -1.0315
  128OSM      N13646   4.641   4.302   5.932  0.6737 -0.6905 -0.1704
  128OSM    C1513647   4.770   4.262   5.995  0.5788 -0.3927 -0.2615
  128OSM   H15A13648   4.766   4.156   6.015  0.1154 -0.1575  0.9696
  128OSM   H15B13649   4.791   4.309   6.090 -1.4861 -0.3195  0.2061
  128OSM   H15C13650   4.847   4.272   5.919  2.7153 -1.9419  1.5788
  128OSM    C1413651   4.657   4.438   5.871  0.4253 -0.2001 -0.0455
  128OSM   H14A13652   4.563   4.448   5.818  1.5448 -1.1504 -2.3213
  128OSM   H14B13653   4.744   4.453   5.810  1.3262 -1.0156  0.9998
  128OSM   H14C13654   4.669   4.519   5.942 -1.6833 -0.6732  0.9412
  128OSM    C1313655   4.622   4.202   5.820 -1.1873  0.0440  0.2613
  128OSM   H13A13656   4.528   4.215   5.768 -1.9879  3.1730  2.2238
  128OSM   H13B13657   4.635   4.103   5.863  2.0431 -0.1200 -0.8572
  128OSM   H13C13658   4.698   4.209   5.744 -0.0402  0.9391  1.4476
  128OSM    C1213659   4.529   4.295   6.031  0.4462  0.0585  0.2617
  128OSM   H12A13660   4.556   4.349   6.121 -1.0928 -0.3016  0.9799
  128OSM   H12B13661   4.533   4.196   6.073  2.0224  0.7540  1.8854
  128OSM    C1113662   4.388   4.340   5.979 -0.3055 -0.2687 -0.2959
  128OSM   H11A13663   4.367   4.277   5.890  1.1670  2.0229 -2.4011
  128OSM   H11B13664   4.390   4.442   5.934 -0.4757  0.9394  2.2872
  128OSM      P13665   4.232   4.205   6.130  0.2554 -0.1315  0.2299
  128OSM    O1313666   4.112   4.239   6.212 -0.5483  0.2140 -0.2513
  128OSM    O1413667   4.211   4.113   6.013 -0.3876  0.4303 -0.3619
  128OSM    O1113668   4.345   4.164   6.222  0.0589 -0.2748  0.3741
  128OSM    O1213669   4.286   4.338   6.076  0.2484 -0.6152 -0.9648
  128OSM    C1S13670   4.409   4.249   6.326  0.5795  0.3312  0.1314
  128OSM    H1S13671   4.410   4.353   6.287 -0.7971 -0.1083 -1.1970
  128OSM    H1T13672   4.515   4.221   6.342  0.8554  1.3314  0.1138
  128OSM     NF13673   4.403   4.325   6.559 -0.2904  0.3273  0.4968
  128OSM    HNF13674   4.453   4.285   6.635 -0.3404 -0.8475 -0.0676
  128OSM    C2S13675   4.336   4.242   6.468 -0.2479  0.1226 -0.3957
  128OSM    H2S13676   4.232   4.276   6.453 -0.4759 -1.0600 -1.6863
  128OSM    C3S13677   4.326   4.096   6.515 -0.1439 -0.8003 -0.1909
  128OSM    H3S13678   4.428   4.061   6.542  0.8700  0.8132 -1.7416
  128OSM     O313679   4.294   3.997   6.421 -0.4457  0.1094 -0.4180
  128OSM    HO313680   4.273   4.051   6.345  0.7978  0.0306 -0.8518
  128OSM    C4S13681   4.228   4.083   6.628 -0.3735 -0.1184 -0.0208
  128OSM    H4S13682   4.124   4.068   6.598 -1.0059  0.8170  1.5948
  128OSM    C5S13683   4.266   4.087   6.753 -0.4454  0.4565 -0.1807
  128OSM    H5S13684   4.367   4.116   6.786 -0.6454  0.0038  0.8721
  128OSM    C6S13685   4.179   4.069   6.871  0.7778 -0.3956  0.6392
  128OSM    H6S13686   4.219   4.145   6.942 -1.6636  0.9414  0.7171
  128OSM    H6T13687   4.193   3.965   6.905 -0.8054 -1.0830 -0.6759
  128OSM    C7S13688   4.035   4.119   6.853 -0.4247 -0.6729 -0.1372
  128OSM    H7S13689   3.992   4.071   6.762  0.4308  0.0311 -0.9239
  128OSM    H7T13690   4.029   4.229   6.842  2.4579 -0.3569  0.6253
  128OSM    C8S13691   3.931   4.079   6.959 -0.0946 -0.4814  0.0282
  128OSM    H8S13692   3.933   3.972   6.987  1.2464 -0.3722  0.4341
  128OSM    H8T13693   3.830   4.089   6.915 -0.1702  0.7697  0.4330
  128OSM    C9S13694   3.930   4.168   7.077 -0.4234 -0.9298 -0.0401
  128OSM    H9S13695   3.921   4.275   7.048  0.2677 -0.6950  0.5610
  128OSM    H9T13696   4.031   4.174   7.124 -1.5576 -2.4059  2.8440
  128OSM   C10S13697   3.842   4.130   7.195 -0.0741  0.3381 -0.7274
  128OSM   H10S13698   3.858   4.026   7.230 -2.8162  0.1801  0.2976
  128OSM   H10T13699   3.740   4.140   7.151 -0.4783  0.3447  0.1843
  128OSM   C11S13700   3.858   4.235   7.308 -0.2985  0.4306 -0.1747
  128OSM   H11S13701   3.831   4.335   7.269 -2.1603 -0.1151 -0.3478
  128OSM   H11T13702   3.960   4.235   7.353 -0.2337  0.0918 -0.3123
  128OSM   C12S13703   3.747   4.198   7.412  0.1056 -0.4485 -0.0679
  128OSM   H12S13704   3.773   4.098   7.454 -0.1730 -0.1024  0.9621
  128OSM   H12T13705   3.651   4.195   7.357 -0.6439 -1.2561  1.2316
  128OSM   C13S13706   3.751   4.299   7.526 -0.1119 -0.4399  0.2167
  128OSM   H13S13707   3.740   4.402   7.487  0.0693  0.0075  1.3314
  128OSM   H13T13708   3.850   4.304   7.575 -0.5607  0.2948  1.0700
  128OSM   C14S13709   3.632   4.268   7.623  0.3610  0.6081 -0.8609
  128OSM   H14S13710   3.623   4.159   7.642 -1.1706  0.1908 -3.4949
  128OSM   H14T13711   3.538   4.300   7.573  1.2017  2.1128 -1.5240
  128OSM   C15S13712   3.645   4.338   7.757 -0.2648 -0.7890 -0.4111
  128OSM   H15S13713   3.589   4.434   7.769 -2.8697 -2.1121 -1.2109
  128OSM   H15T13714   3.753   4.358   7.770 -0.4209 -0.3060  0.2027
  128OSM   C16S13715   3.600   4.258   7.880  0.5271  0.2337  0.6239
  128OSM   H16S13716   3.649   4.159   7.886 -0.7861 -0.5519 -1.0093
  128OSM   H16T13717   3.492   4.245   7.859  0.6770 -0.1989  0.1086
  128OSM   C17S13718   3.613   4.332   8.009  0.5009 -0.1823 -0.2788
  128OSM   H17S13719   3.579   4.438   8.007  0.7598 -0.1003 -0.3705
  128OSM   H17T13720   3.720   4.346   8.035 -0.0822  3.3846  0.8115
  128OSM   C18S13721   3.544   4.271   8.136  0.6679 -0.3065  0.2962
  128OSM   H18S13722   3.581   4.332   8.221  1.8641  0.9039 -1.0319
  128OSM   H18T13723   3.586   4.168   8.147  0.9582 -0.0482  1.8800
  128OSM   H18U13724   3.434   4.273   8.144  0.7372  1.9486  1.4805
  128OSM    C1F13725   4.414   4.459   6.555 -0.4686 -0.3972  0.2700
  128OSM     OF13726   4.348   4.521   6.477 -0.1626  0.8363 -0.2125
  128OSM    C2F13727   4.503   4.524   6.647  0.0657  0.5631 -0.3544
  128OSM    H2F13728   4.551   4.614   6.602  0.4119  0.1016 -0.9171
  128OSM    H2G13729   4.584   4.453   6.673 -0.7667  0.1370  1.1913
  128OSM    C3F13730   4.434   4.573   6.778  0.1345 -0.1807 -0.1237
  128OSM    H3F13731   4.342   4.631   6.758  0.0092  0.7487  2.7334
  128OSM    H3G13732   4.508   4.636   6.833 -1.3853 -0.5135  2.4540
  128OSM    C4F13733   4.389   4.460   6.868  0.9415  0.1125  0.3730
  128OSM    H4F13734   4.475   4.392   6.889  1.9844  1.2938  0.0136
  128OSM    H4G13735   4.309   4.394   6.828 -1.2324 -0.6542  5.2063
  128OSM    C5F13736   4.333   4.522   6.999  0.1257 -0.2879 -0.4969
  128OSM    H5F13737   4.246   4.582   6.964 -0.9613 -1.1137  0.6884
  128OSM    H5G13738   4.407   4.587   7.050  1.4815 -1.3640 -1.0276
  128OSM    C6F13739   4.279   4.429   7.106  0.0329 -0.0677  0.0733
  128OSM    H6F13740   4.355   4.354   7.138 -1.8401 -1.0245  2.5967
  128OSM    H6G13741   4.194   4.373   7.060  0.1288  0.6862 -1.0647
  128OSM    C7F13742   4.231   4.517   7.224 -0.5701  0.3307  1.1762
  128OSM    H7F13743   4.181   4.609   7.188 -0.4545 -0.3504 -0.8638
  128OSM    H7G13744   4.319   4.553   7.281  1.0750 -0.5573 -0.6910
  128OSM    C8F13745   4.132   4.445   7.318  0.3618 -0.5957 -0.1312
  128OSM    H8F13746   4.060   4.398   7.247  0.3952  0.7423 -1.0929
  128OSM    H8G13747   4.083   4.524   7.378  3.1899  1.4844 -0.3741
  128OSM    C9F13748   4.204   4.341   7.398 -0.6943  0.4813  0.3522
  128OSM    H9F13749   4.233   4.260   7.329 -0.6966  1.7413 -1.1780
  128OSM   C10F13750   4.236   4.350   7.526  0.1140 -0.6893  0.0316
  128OSM   H10F13751   4.276   4.266   7.585  0.8555  0.0137  0.5610
  128OSM   C11F13752   4.202   4.461   7.623  0.0151  0.6564 -0.1027
  128OSM   H11F13753   4.119   4.423   7.687 -0.1560 -0.2806 -0.8521
  128OSM   H11G13754   4.173   4.550   7.564 -2.0626 -0.6449 -1.1723
  128OSM   C12F13755   4.317   4.502   7.719 -0.7667 -0.3724  0.4436
  128OSM   H12F13756   4.290   4.596   7.772 -0.2491  0.4197 -0.6383
  128OSM   H12G13757   4.405   4.528   7.657 -2.0708 -0.5848 -1.6096
  128OSM   C13F13758   4.357   4.388   7.816  0.1382 -0.0250 -0.0459
  128OSM   H13F13759   4.423   4.319   7.759  1.3199  1.2384 -0.2615
  128OSM   H13G13760   4.267   4.339   7.858  1.3448 -1.6126  0.7853
  128OSM   C14F13761   4.434   4.452   7.937  0.3950 -0.3062  0.2165
  128OSM   H14F13762   4.358   4.513   7.991 -0.1650  0.7684 -1.7137
  128OSM   H14G13763   4.518   4.517   7.908  1.1596  0.0644  2.9211
  128OSM   C15F13764   4.489   4.349   8.032  0.0817  0.0866 -0.8083
  128OSM   H15F13765   4.493   4.250   7.982  0.7237 -0.8988  1.0902
  128OSM   H15G13766   4.429   4.318   8.120  1.0219 -0.6983 -0.4134
  128OSM   C16F13767   4.629   4.387   8.085 -0.6449  1.4998 -0.1136
  128OSM   H16F13768   4.616   4.463   8.165 -2.2796  0.2517  0.8753
  128OSM   H16G13769   4.704   4.412   8.007  1.6457 -1.5675  0.9030
  128OSM   C17F13770   4.704   4.274   8.166  0.1733  0.0649 -0.4016
  128OSM   H17F13771   4.638   4.259   8.255  1.1665  1.9587  0.7142
  128OSM   H17G13772   4.800   4.306   8.212  0.6716 -1.6087 -0.1951
  128OSM   C18F13773   4.725   4.143   8.088 -0.1826  0.0351  0.0218
  128OSM   H18F13774   4.766   4.155   7.985 -4.3911  3.0586 -1.5791
  128OSM   H18G13775   4.625   4.098   8.070  0.6264 -1.8009 -0.1214
  128OSM   H18H13776   4.790   4.075   8.148  0.6627  1.7594  1.1533
  129OSM      N13777   1.690   6.518   6.153 -0.6962 -0.4230  0.4945
  129OSM    C1513778   1.759   6.654   6.121 -0.4319  0.3048  0.5670
  129OSM   H15A13779   1.855   6.636   6.075 -0.6340  1.4053 -0.3336
  129OSM   H15B13780   1.776   6.723   6.203  0.2757  2.2338 -1.1315
  129OSM   H15C13781   1.696   6.708   6.053  1.7317  0.8546 -1.1289
  129OSM    C1413782   1.548   6.548   6.191  0.3926 -0.5825 -0.0923
  129OSM   H14A13783   1.508   6.595   6.102  1.4738  0.3736 -0.1106
  129OSM   H14B13784   1.543   6.618   6.273  0.9013 -1.5558  0.7901
  129OSM   H14C13785   1.497   6.456   6.212  0.1253 -0.1074  1.4657
  129OSM    C1313786   1.675   6.432   6.031  0.7932  0.7104 -0.0285
  129OSM   H13A13787   1.628   6.344   6.073  2.0438  0.5316  1.0713
  129OSM   H13B13788   1.769   6.407   5.985 -0.2804 -2.4596 -0.7150
  129OSM   H13C13789   1.611   6.477   5.957 -1.4740 -1.8297  0.2242
  129OSM    C1213790   1.762   6.440   6.267  0.2870 -0.4711  0.0012
  129OSM   H12A13791   1.784   6.506   6.349  3.9198 -0.1550 -1.0600
  129OSM   H12B13792   1.859   6.408   6.233  0.3691  2.0510 -2.5550
  129OSM    C1113793   1.694   6.309   6.328  0.3329  0.2869  0.4507
  129OSM   H11A13794   1.597   6.328   6.378 -0.6127  1.3617 -1.6332
  129OSM   H11B13795   1.763   6.285   6.412  0.3460 -1.2129  0.0393
  129OSM      P13796   1.702   6.056   6.298  0.5072  0.3167  0.0770
  129OSM    O1313797   1.652   5.954   6.200  0.4548  0.4352  0.1823
  129OSM    O1413798   1.841   6.050   6.335 -0.2173 -0.5646 -0.1511
  129OSM    O1113799   1.597   6.062   6.415  0.0272  0.3067  0.0173
  129OSM    O1213800   1.680   6.196   6.239  0.1416 -0.3011  0.1761
  129OSM    C1S13801   1.474   5.982   6.415  0.4500 -0.3498 -0.0918
  129OSM    H1S13802   1.497   5.873   6.418 -2.7945 -1.3973 -3.9765
  129OSM    H1T13803   1.407   6.010   6.331  1.3022 -1.3141 -1.1294
  129OSM     NF13804   1.265   5.916   6.552 -0.5832  1.4767 -0.0855
  129OSM    HNF13805   1.182   5.963   6.581 -1.9389  0.1728 -1.6381
  129OSM    C2S13806   1.385   6.000   6.547 -0.6600  0.5288 -0.4423
  129OSM    H2S13807   1.462   5.970   6.621  0.0949  2.1629 -0.5438
  129OSM    C3S13808   1.355   6.155   6.563  0.0178 -0.0370 -0.0396
  129OSM    H3S13809   1.296   6.196   6.478  2.5256 -1.0575 -2.4358
  129OSM     O313810   1.469   6.240   6.570 -0.1722  0.3872 -0.4015
  129OSM    HO313811   1.536   6.188   6.526 -0.3414 -0.8487  0.7416
  129OSM    C4S13812   1.267   6.172   6.694 -0.6080 -0.4660 -0.6349
  129OSM    H4S13813   1.160   6.184   6.672 -0.6763 -0.5321 -0.3414
  129OSM    C5S13814   1.314   6.181   6.817  0.2456  0.4160 -0.1797
  129OSM    H5S13815   1.421   6.173   6.840 -0.1074  0.4446  1.6050
  129OSM    C6S13816   1.229   6.183   6.942  0.3183  0.2249 -0.8496
  129OSM    H6S13817   1.187   6.284   6.957  2.5871  1.2165 -0.8226
  129OSM    H6T13818   1.296   6.168   7.029 -0.7152 -0.5115 -0.1645
  129OSM    C7S13819   1.118   6.077   6.939 -0.2406 -0.2119 -0.2610
  129OSM    H7S13820   1.173   5.981   6.951  1.4119  0.7181 -0.1414
  129OSM    H7T13821   1.062   6.076   6.842 -0.2015  1.9994 -0.3598
  129OSM    C8S13822   1.005   6.098   7.041  0.0409 -0.5822 -0.2316
  129OSM    H8S13823   0.912   6.040   7.025 -2.5179  2.4863  2.2827
  129OSM    H8T13824   0.968   6.201   7.026  2.4450  0.3204 -0.4290
  129OSM    C9S13825   1.046   6.068   7.187  0.4119  0.0849 -0.2507
  129OSM    H9S13826   1.136   6.124   7.219 -0.4964  3.4239 -2.7976
  129OSM    H9T13827   1.054   5.958   7.181 -1.0951 -0.0235 -0.7853
  129OSM   C10S13828   0.931   6.098   7.285  0.2068  0.1130  0.3203
  129OSM   H10S13829   0.835   6.046   7.267  0.1085  0.0648  0.9532
  129OSM   H10T13830   0.910   6.206   7.271 -1.6462 -0.2687 -0.0966
  129OSM   C11S13831   0.970   6.083   7.435 -0.0533 -0.5222  0.2765
  129OSM   H11S13832   1.060   6.145   7.451  1.5273 -1.4412 -3.7447
  129OSM   H11T13833   1.007   5.983   7.465 -0.1304 -1.0403 -1.2324
  129OSM   C12S13834   0.865   6.127   7.546 -0.1056 -0.1041  0.5789
  129OSM   H12S13835   0.782   6.056   7.528  0.6802 -0.6012 -1.3247
  129OSM   H12T13836   0.836   6.233   7.528 -0.0935 -0.1832  0.1023
  129OSM   C13S13837   0.921   6.113   7.691  0.5225 -0.5262 -0.1457
  129OSM   H13S13838   1.011   6.177   7.692  1.5447 -1.9139  1.2181
  129OSM   H13T13839   0.966   6.017   7.724  2.2393  0.4845  0.5712
  129OSM   C14S13840   0.830   6.164   7.812 -0.4955  0.8112  0.4338
  129OSM   H14S13841   0.740   6.100   7.814  0.0653  0.0239  0.8576
  129OSM   H14T13842   0.796   6.265   7.780 -0.1224  0.1109 -2.4146
  129OSM   C15S13843   0.904   6.164   7.942 -0.8272 -0.1081  0.1506
  129OSM   H15S13844   1.007   6.199   7.918  0.0006 -0.7699  2.4263
  129OSM   H15T13845   0.917   6.058   7.972  1.6546 -0.5697 -2.1743
  129OSM   C16S13846   0.833   6.251   8.047  0.1810  0.1868 -1.0588
  129OSM   H16S13847   0.729   6.218   8.069  0.4145  0.7886  1.2136
  129OSM   H16T13848   0.814   6.351   8.003  1.8160  0.6681 -0.7029
  129OSM   C17S13849   0.918   6.258   8.177 -0.0658 -0.1337 -0.4542
  129OSM   H17S13850   1.007   6.321   8.160  0.3406 -0.9402 -1.4176
  129OSM   H17T13851   0.951   6.155   8.204 -1.3532 -0.1599  1.2565
  129OSM   C18S13852   0.839   6.300   8.300  0.8299 -0.2361  0.0694
  129OSM   H18S13853   0.751   6.238   8.326  0.3892  0.4790  0.3167
  129OSM   H18T13854   0.782   6.391   8.275 -0.7294 -0.9931  0.7576
  129OSM   H18U13855   0.902   6.315   8.391  1.0678  3.0303 -0.5194
  129OSM    C1F13856   1.282   5.779   6.575 -0.2445 -0.3626  0.5637
  129OSM     OF13857   1.382   5.709   6.568  0.2157 -0.3013  0.1365
  129OSM    C2F13858   1.153   5.709   6.610 -0.6929 -0.5149 -0.0993
  129OSM    H2F13859   1.138   5.627   6.537  0.0241 -0.1701 -0.6474
  129OSM    H2G13860   1.067   5.778   6.598 -1.9653 -1.4444  2.6938
  129OSM    C3F13861   1.158   5.640   6.751 -0.1928  0.0865  0.2716
  129OSM    H3F13862   1.217   5.700   6.824 -0.8063  0.7288  0.2494
  129OSM    H3G13863   1.208   5.544   6.727 -1.0645 -0.1115 -0.8527
  129OSM    C4F13864   1.011   5.609   6.781 -0.2599 -0.3463  0.0390
  129OSM    H4F13865   0.961   5.573   6.689  1.3430 -0.9942 -0.6182
  129OSM    H4G13866   0.963   5.703   6.816  0.0005  0.3456 -1.3943
  129OSM    C5F13867   0.992   5.512   6.897 -0.2920 -0.1868 -0.5481
  129OSM    H5F13868   1.069   5.432   6.897  0.7407  0.7848 -0.6104
  129OSM    H5G13869   0.898   5.454   6.881  0.4030 -1.8714  1.1913
  129OSM    C6F13870   1.003   5.582   7.032  0.3429 -0.2911  0.8611
  129OSM    H6F13871   0.913   5.645   7.049  0.8378  0.4710  0.7311
  129OSM    H6G13872   1.095   5.644   7.035  1.3834 -1.5253 -2.0265
  129OSM    C7F13873   0.985   5.482   7.157 -0.2592  0.3346 -0.8797
  129OSM    H7F13874   1.041   5.388   7.133 -1.8743 -0.5012 -1.5291
  129OSM    H7G13875   0.875   5.466   7.157 -0.3020  0.6102 -0.3639
  129OSM    C8F13876   1.037   5.532   7.291 -0.5559 -0.6962 -0.6943
  129OSM    H8F13877   1.142   5.562   7.270 -0.2152 -0.7489  0.7953
  129OSM    H8G13878   1.043   5.450   7.366  1.8414  0.3153  0.3172
  129OSM    C9F13879   0.966   5.665   7.339 -0.7559 -0.2333  0.2565
  129OSM    H9F13880   0.956   5.750   7.270 -4.4594  0.4765  1.4154
  129OSM   C10F13881   0.918   5.686   7.469  0.5238 -0.5069 -0.1803
  129OSM   H10F13882   0.877   5.781   7.507 -0.5196 -0.3963 -1.5226
  129OSM   C11F13883   0.921   5.571   7.572 -0.3051 -0.2469  0.2434
  129OSM   H11F13884   1.027   5.542   7.586 -1.0118 -3.7018 -0.6032
  129OSM   H11G13885   0.887   5.478   7.522 -0.2426 -1.2700  2.0235
  129OSM   C12F13886   0.858   5.589   7.715  0.2747 -0.5526  0.2220
  129OSM   H12F13887   0.841   5.487   7.757  0.2965 -0.8048 -0.3738
  129OSM   H12G13888   0.755   5.627   7.699  0.2878 -0.3947  0.5083
  129OSM   C13F13889   0.946   5.672   7.813  0.6657  0.3140 -0.5398
  129OSM   H13F13890   0.951   5.776   7.774  2.6917 -0.0173 -1.2703
  129OSM   H13G13891   1.051   5.636   7.814  0.6891  0.3928  0.2254
  129OSM   C14F13892   0.883   5.670   7.955 -0.6885 -0.0771  1.0267
  129OSM   H14F13893   0.772   5.670   7.951 -0.6832 -0.2582  0.8305
  129OSM   H14G13894   0.916   5.763   8.005  3.6713  0.1888 -1.7451
  129OSM   C15F13895   0.908   5.551   8.045  0.2122 -0.2021 -0.2590
  129OSM   H15F13896   1.016   5.524   8.046  0.2493 -0.0433  0.2083
  129OSM   H15G13897   0.864   5.459   8.001  2.4034 -1.4680  0.0596
  129OSM   C16F13898   0.849   5.568   8.191 -0.0345 -0.1987  0.6486
  129OSM   H16F13899   0.905   5.653   8.234  0.8096  1.0061 -2.5975
  129OSM   H16G13900   0.875   5.470   8.238 -3.6981  0.0058  3.5591
  129OSM   C17F13901   0.701   5.593   8.203 -0.2610  0.9232  0.7074
  129OSM   H17F13902   0.653   5.496   8.178 -0.0334  1.3058 -1.4782
  129OSM   H17G13903   0.665   5.662   8.123 -3.7778 -0.1522  1.2099
  129OSM   C18F13904   0.666   5.648   8.339 -0.2816  0.4658 -0.5270
  129OSM   H18F13905   0.555   5.642   8.343 -0.2487 -1.3153 -1.4129
  129OSM   H18G13906   0.699   5.751   8.364 -2.2881 -0.1448  6.7179
  129OSM   H18H13907   0.711   5.590   8.423 -1.9848  1.1889  0.9488
  130OSM      N13908   5.137   4.606   6.385  0.4859 -0.1989 -0.8014
  130OSM    C1513909   5.048   4.695   6.316  0.4366  0.5994 -0.5353
  130OSM   H15A13910   5.011   4.644   6.228 -0.4130 -1.2043  0.7917
  130OSM   H15B13911   5.095   4.791   6.307 -0.1052  1.2277  2.3203
  130OSM   H15C13912   4.963   4.726   6.374 -1.2484  0.6918 -2.8858
  130OSM    C1413913   5.253   4.574   6.292 -0.4127 -0.5144 -1.0106
  130OSM   H14A13914   5.312   4.662   6.269 -0.3938  0.3719  2.0608
  130OSM   H14B13915   5.220   4.528   6.199  0.4207  0.0371 -1.5996
  130OSM   H14C13916   5.320   4.510   6.348  1.1806 -0.1111 -2.3482
  130OSM    C1313917   5.183   4.671   6.514  0.2037 -0.1199 -0.1071
  130OSM   H13A13918   5.107   4.701   6.586 -1.7795 -0.3221 -2.0220
  130OSM   H13B13919   5.241   4.759   6.489  0.8080 -1.0423 -2.1156
  130OSM   H13C13920   5.237   4.600   6.575 -0.7294 -1.4084 -0.7455
  130OSM    C1213921   5.063   4.481   6.427 -0.1986  0.6932 -0.3006
  130OSM   H12A13922   4.987   4.504   6.500  0.3908 -0.1315  0.5904
  130OSM   H12B13923   5.128   4.414   6.482  0.3462 -0.7398 -2.5535
  130OSM    C1113924   5.014   4.391   6.312 -0.6612 -0.4016  0.4362
  130OSM   H11A13925   4.998   4.285   6.344  2.8039 -1.2994 -0.3602
  130OSM   H11B13926   5.105   4.389   6.247  0.8168  1.3160  2.3515
  130OSM      P13927   4.762   4.442   6.340 -0.5064  0.0575  0.4159
  130OSM    O1313928   4.782   4.538   6.448 -0.6331 -0.1924 -0.1683
  130OSM    O1413929   4.644   4.459   6.256 -0.1594 -0.3366 -0.4980
  130OSM    O1113930   4.771   4.292   6.385  0.1456  0.1417  0.0414
  130OSM    O1213931   4.898   4.447   6.246  0.1686  0.4808 -0.3205
  130OSM    C1S13932   4.782   4.255   6.523 -0.0118  0.3487 -0.6901
  130OSM    H1S13933   4.730   4.324   6.593  1.4433 -1.6280  2.6113
  130OSM    H1T13934   4.888   4.258   6.559 -0.8168 -0.5989  2.0386
  130OSM     NF13935   4.742   4.073   6.691  0.1480  0.4016 -0.3758
  130OSM    HNF13936   4.817   4.017   6.725  0.9343  1.2823 -0.6027
  130OSM    C2S13937   4.737   4.105   6.554  0.3523  0.3583 -0.0418
  130OSM    H2S13938   4.632   4.086   6.523  0.5823 -3.8438  1.1629
  130OSM    C3S13939   4.812   3.998   6.459  0.0380  0.2584 -0.4894
  130OSM    H3S13940   4.918   3.996   6.491  0.0143  1.1433 -0.3149
  130OSM     O313941   4.817   4.039   6.322  0.3323 -0.1866 -0.1396
  130OSM    HO313942   4.783   4.128   6.333 -1.0656 -0.8892  1.9898
  130OSM    C4S13943   4.757   3.858   6.468 -0.3816  0.3581 -0.4275
  130OSM    H4S13944   4.834   3.780   6.471 -0.4910  0.1961 -1.5095
  130OSM    C5S13945   4.625   3.831   6.467  0.4833  1.2202  1.0627
  130OSM    H5S13946   4.546   3.897   6.431 -0.4990  1.5537  3.6133
  130OSM    C6S13947   4.563   3.690   6.473  0.7945  0.4021 -0.2542
  130OSM    H6S13948   4.640   3.623   6.515 -0.1880 -1.3269 -1.1132
  130OSM    H6T13949   4.536   3.639   6.378  2.6210 -0.8174 -0.1610
  130OSM    C7S13950   4.434   3.673   6.560  0.6033 -0.0973  0.3843
  130OSM    H7S13951   4.380   3.577   6.545 -0.6543  0.4896  0.9842
  130OSM    H7T13952   4.362   3.738   6.507  0.5979 -0.8699 -0.5664
  130OSM    C8S13953   4.466   3.697   6.705  0.5459 -0.0257 -0.0197
  130OSM    H8S13954   4.518   3.792   6.729  0.3582 -0.7773  3.9424
  130OSM    H8T13955   4.533   3.616   6.742 -1.5425 -2.6944 -1.6882
  130OSM    C9S13956   4.334   3.696   6.783 -0.5041 -0.1054  0.7381
  130OSM    H9S13957   4.278   3.604   6.759  1.2349 -0.7637 -1.0655
  130OSM    H9T13958   4.263   3.773   6.748 -2.6698 -1.6350  1.5617
  130OSM   C10S13959   4.349   3.705   6.931  0.1907  0.7373  0.0631
  130OSM   H10S13960   4.376   3.810   6.956  0.4966  0.9276 -1.0238
  130OSM   H10T13961   4.440   3.649   6.962 -0.5494 -0.5322 -0.0007
  130OSM   C11S13962   4.217   3.656   6.995  1.0128  0.6354  0.2859
  130OSM   H11S13963   4.208   3.548   6.970  2.8123  0.6138 -0.4073
  130OSM   H11T13964   4.125   3.699   6.951  0.5435 -1.0205 -0.4388
  130OSM   C12S13965   4.216   3.667   7.145  0.6514  0.1327  0.1456
  130OSM   H12S13966   4.120   3.631   7.187 -0.1365 -1.8340 -2.9658
  130OSM   H12T13967   4.225   3.773   7.176  1.2433 -0.4282  2.0642
  130OSM   C13S13968   4.339   3.600   7.209 -0.1428  0.5523  0.2785
  130OSM   H13S13969   4.425   3.663   7.179 -0.6688  2.2333  2.1537
  130OSM   H13T13970   4.348   3.496   7.169  0.6449 -0.1079  2.0723
  130OSM   C14S13971   4.344   3.595   7.362  0.0023  0.2376 -0.5162
  130OSM   H14S13972   4.257   3.533   7.393 -0.2796  0.3429 -1.0817
  130OSM   H14T13973   4.332   3.692   7.415  1.2930 -0.3344  0.9077
  130OSM   C15S13974   4.480   3.537   7.422  0.3015  0.1036 -0.0255
  130OSM   H15S13975   4.557   3.616   7.412 -0.2008  0.6648  0.4288
  130OSM   H15T13976   4.514   3.445   7.372 -1.1517 -0.3442 -0.2386
  130OSM   C16S13977   4.454   3.509   7.569  0.2795  0.3739 -0.2665
  130OSM   H16S13978   4.402   3.411   7.575  1.4472 -0.3784 -1.8134
  130OSM   H16T13979   4.391   3.586   7.618 -0.8581 -2.0140  2.3484
  130OSM   C17S13980   4.583   3.489   7.637 -0.0227 -0.6948  0.2710
  130OSM   H17S13981   4.641   3.582   7.616 -2.0996  0.3899 -1.0283
  130OSM   H17T13982   4.642   3.421   7.571  2.0562  1.1763  0.0596
  130OSM   C18S13983   4.572   3.452   7.787 -0.6238  0.1999  0.7858
  130OSM   H18S13984   4.515   3.529   7.844 -0.8189  1.7728 -1.3909
  130OSM   H18T13985   4.677   3.467   7.821 -0.0827  1.6111 -1.2799
  130OSM   H18U13986   4.529   3.351   7.804 -0.9888 -0.0042 -1.1093
  130OSM    C1F13987   4.667   4.130   6.786  0.2589 -0.2021 -0.2427
  130OSM     OF13988   4.582   4.209   6.748  0.4533 -0.1368 -0.4535
  130OSM    C2F13989   4.683   4.082   6.924 -0.2075  0.3113 -0.0001
  130OSM    H2F13990   4.767   4.142   6.965 -1.0633  0.0335  2.3235
  130OSM    H2G13991   4.698   3.972   6.927  2.0399  0.5752  3.1599
  130OSM    C3F13992   4.551   4.106   7.006  0.0797  0.6287  0.1932
  130OSM    H3F13993   4.465   4.059   6.953 -0.5801  0.8663  1.0392
  130OSM    H3G13994   4.525   4.213   7.012 -1.3089  0.4662 -1.8462
  130OSM    C4F13995   4.548   4.035   7.147 -0.1516 -0.8285  0.2983
  130OSM    H4F13996   4.583   3.930   7.140 -0.4659 -1.0773  2.0395
  130OSM    H4G13997   4.439   4.035   7.169 -0.0701  0.3153  0.8034
  130OSM    C5F13998   4.618   4.111   7.257 -0.3677  0.1942  0.1435
  130OSM    H5F13999   4.566   4.207   7.273 -1.3147 -0.5820  2.0173
  130OSM    H5G14000   4.724   4.125   7.225 -0.7255  0.2524 -1.0369
  130OSM    C6F14001   4.606   4.038   7.393 -0.0977  0.2780  0.1780
  130OSM    H6F14002   4.696   4.048   7.458 -0.1385 -1.3415  0.5236
  130OSM    H6G14003   4.602   3.933   7.358  0.7140 -0.1264  1.2389
  130OSM    C7F14004   4.479   4.059   7.490 -0.5642  0.5234  1.6390
  130OSM    H7F14005   4.387   4.057   7.428 -0.4283  0.1945  1.4420
  130OSM    H7G14006   4.501   4.165   7.516 -0.5141  1.9065 -3.0213
  130OSM    C8F14007   4.472   3.953   7.602  0.0444  0.5274  0.2410
  130OSM    H8F14008   4.570   3.926   7.647  1.0946  1.0899 -1.6126
  130OSM    H8G14009   4.428   3.859   7.562  2.5475  0.2010 -1.9666
  130OSM    C9F14010   4.380   3.994   7.713  0.5707  0.8785 -0.4914
  130OSM    H9F14011   4.414   4.090   7.756 -2.3729  1.4688  0.7328
  130OSM   C10F14012   4.263   3.944   7.764 -0.2015  0.2245 -0.1906
  130OSM   H10F14013   4.208   3.997   7.843  1.5470 -1.4748  2.3152
  130OSM   C11F14014   4.202   3.816   7.714  0.4362  0.2011  0.9248
  130OSM   H11F14015   4.132   3.777   7.791 -0.9705  2.2713  0.7734
  130OSM   H11G14016   4.282   3.740   7.700  1.0142  0.7693  1.0378
  130OSM   C12F14017   4.127   3.837   7.583  0.6092 -0.2041  0.0205
  130OSM   H12F14018   4.201   3.866   7.504  0.2827 -0.7665 -0.4958
  130OSM   H12G14019   4.061   3.926   7.596  0.3381 -0.5312  0.9279
  130OSM   C13F14020   4.038   3.716   7.544 -0.1270 -0.8848  0.0095
  130OSM   H13F14021   3.966   3.707   7.627  0.9372 -2.2799  0.8263
  130OSM   H13G14022   4.084   3.615   7.533 -0.7461 -1.2802  1.0183
  130OSM   C14F14023   3.969   3.750   7.413  0.6071 -0.7212 -0.3329
  130OSM   H14F14024   4.038   3.766   7.328  1.1248  0.2940  0.2581
  130OSM   H14G14025   3.921   3.850   7.425 -1.8158 -1.9331  0.9182
  130OSM   C15F14026   3.864   3.643   7.366 -0.0522 -0.3200  0.5302
  130OSM   H15F14027   3.786   3.621   7.443 -0.9877  1.9843  0.3447
  130OSM   H15G14028   3.917   3.549   7.340 -0.9147 -0.6029 -0.3080
  130OSM   C16F14029   3.775   3.686   7.246 -0.0360  0.5970  0.0429
  130OSM   H16F14030   3.729   3.785   7.269  1.8330  1.2184  1.4119
  130OSM   H16G14031   3.706   3.602   7.226 -0.8859  0.8737  1.5845
  130OSM   C17F14032   3.856   3.712   7.116 -0.4531 -0.8365  0.3002
  130OSM   H17F14033   3.914   3.621   7.094  1.1593 -0.0862  1.2905
  130OSM   H17G14034   3.925   3.796   7.139 -1.3356  0.0817 -0.2729
  130OSM   C18F14035   3.760   3.754   7.002 -0.3049 -0.7590  0.7276
  130OSM   H18F14036   3.711   3.853   7.012  0.8156 -0.0730 -0.3137
  130OSM   H18G14037   3.671   3.689   6.988  1.2006 -2.6585 -0.5211
  130OSM   H18H14038   3.809   3.756   6.903 -1.0932 -3.7831  0.1868
  131OSM      N14039   4.579   0.836   5.923  0.4485 -0.1425 -0.1422
  131OSM    C1514040   4.568   0.773   5.783  0.0477 -0.8070  0.0628
  131OSM   H15A14041   4.666   0.741   5.751 -0.3840 -1.9594 -0.1551
  131OSM   H15B14042   4.539   0.835   5.700  2.1202 -1.3522 -1.1345
  131OSM   H15C14043   4.500   0.691   5.800 -0.6706  0.1537  2.1910
  131OSM    C1414044   4.446   0.901   5.958  0.6223  0.2556  0.7104
  131OSM   H14A14045   4.420   0.985   5.896 -1.0206  0.1647  1.2200
  131OSM   H14B14046   4.448   0.933   6.061 -1.0146 -1.5675  1.3731
  131OSM   H14C14047   4.357   0.843   5.939 -1.0097  3.0252 -0.7369
  131OSM    C1314048   4.602   0.728   6.020 -0.0637  0.1027 -0.0077
  131OSM   H13A14049   4.624   0.769   6.117 -0.9791  1.5385 -0.3827
  131OSM   H13B14050   4.688   0.670   5.988  0.0992  0.4217 -0.1579
  131OSM   H13C14051   4.517   0.662   6.021  0.1195 -0.1345  1.2295
  131OSM    C1214052   4.688   0.941   5.930 -0.7184  0.7218  0.6595
  131OSM   H12A14053   4.668   1.020   5.860 -1.6231 -1.8753 -2.2252
  131OSM   H12B14054   4.786   0.899   5.911 -1.6425 -0.6659 -1.3419
  131OSM    C1114055   4.709   1.011   6.067 -0.1827 -1.0657  0.1589
  131OSM   H11A14056   4.608   1.044   6.100 -0.2745 -0.9769 -0.2073
  131OSM   H11B14057   4.774   1.098   6.043 -0.6254 -1.3920 -2.5349
  131OSM      P14058   4.881   0.956   6.250  0.1481  0.0416  0.3840
  131OSM    O1314059   4.903   0.873   6.374 -0.1438  0.9942 -0.2708
  131OSM    O1414060   4.989   0.957   6.148 -0.0695 -0.1496  0.0301
  131OSM    O1114061   4.849   1.102   6.295 -0.5725  0.3479 -0.1703
  131OSM    O1214062   4.755   0.922   6.168 -0.2226 -0.0773  0.0929
  131OSM    C1S14063   4.733   1.134   6.369  0.2470  0.7180 -0.0325
  131OSM    H1S14064   4.653   1.062   6.343  0.8877 -0.0415  0.0901
  131OSM    H1T14065   4.702   1.238   6.344  0.7241  0.3846 -2.2440
  131OSM     NF14066   4.621   1.144   6.602 -0.5834  0.8034 -0.1889
  131OSM    HNF14067   4.593   1.231   6.642  0.5997  0.7561  0.7916
  131OSM    C2S14068   4.745   1.138   6.525  0.3682  0.0345 -0.1566
  131OSM    H2S14069   4.797   1.042   6.543  1.5683  0.9965  1.7683
  131OSM    C3S14070   4.847   1.250   6.554 -0.0032  0.1834  0.2540
  131OSM    H3S14071   4.802   1.346   6.522 -0.3446 -0.3533 -0.9506
  131OSM     O314072   4.972   1.238   6.477  0.3436  0.1966 -0.1048
  131OSM    HO314073   4.956   1.170   6.411 -2.0337  1.2013 -0.6432
  131OSM    C4S14074   4.882   1.246   6.698 -0.4081  0.1818 -0.5791
  131OSM    H4S14075   4.957   1.170   6.724 -2.1177 -1.4689 -0.2088
  131OSM    C5S14076   4.858   1.336   6.793  0.2294 -0.5599 -0.3718
  131OSM    H5S14077   4.810   1.431   6.765  0.0071 -1.1654 -2.1017
  131OSM    C6S14078   4.914   1.327   6.936  0.0093  0.0537 -0.7995
  131OSM    H6S14079   4.995   1.396   6.966  1.0299 -1.9369  1.3017
  131OSM    H6T14080   4.971   1.233   6.954  2.4984  1.9128  1.9544
  131OSM    C7S14081   4.807   1.311   7.042  0.2032 -0.3415 -0.0370
  131OSM    H7S14082   4.751   1.216   7.027 -1.7655  0.5668  1.0759
  131OSM    H7T14083   4.733   1.392   7.027  1.1239  0.4577 -0.3242
  131OSM    C8S14084   4.854   1.310   7.188 -0.2327  0.0507  0.4700
  131OSM    H8S14085   4.934   1.386   7.196  0.5839 -0.2534 -3.0393
  131OSM    H8T14086   4.911   1.219   7.216  0.1896  0.0812 -0.2767
  131OSM    C9S14087   4.738   1.340   7.287  0.2620 -0.1954 -0.2140
  131OSM    H9S14088   4.657   1.269   7.258 -0.2154  0.7952 -1.3803
  131OSM    H9T14089   4.686   1.437   7.277 -2.3850 -1.5724 -0.7937
  131OSM   C10S14090   4.788   1.310   7.437 -0.6090 -0.4952 -0.3124
  131OSM   H10S14091   4.850   1.401   7.453 -0.4393 -0.4946 -0.9454
  131OSM   H10T14092   4.851   1.220   7.429 -0.4068 -0.5485  1.5125
  131OSM   C11S14093   4.688   1.291   7.545 -0.2539  0.2858  0.2581
  131OSM   H11S14094   4.630   1.199   7.520  2.6002 -1.6278  0.1371
  131OSM   H11T14095   4.613   1.373   7.546 -0.6044 -0.0160  1.7309
  131OSM   C12S14096   4.749   1.264   7.690 -0.4316  0.7170  0.2651
  131OSM   H12S14097   4.813   1.352   7.715 -0.5053  0.4870  1.3121
  131OSM   H12T14098   4.807   1.170   7.681 -0.3479  0.5028  2.5208
  131OSM   C13S14099   4.634   1.243   7.785 -0.1791  0.4684 -0.4225
  131OSM   H13S14100   4.564   1.166   7.746  0.8842 -0.6808 -0.1697
  131OSM   H13T14101   4.581   1.340   7.785  0.1352  0.7089 -2.6026
  131OSM   C14S14102   4.673   1.222   7.933 -0.0395 -0.8284 -0.8667
  131OSM   H14S14103   4.752   1.291   7.970 -0.8415 -0.8575  1.0523
  131OSM   H14T14104   4.713   1.118   7.935  0.1597 -0.7461  0.2936
  131OSM   C15S14105   4.557   1.241   8.034  1.3806 -0.2019  0.5019
  131OSM   H15S14106   4.469   1.187   7.994 -1.7405  3.5937  1.6075
  131OSM   H15T14107   4.530   1.348   8.043  2.3004  0.1367 -0.5093
  131OSM   C16S14108   4.585   1.192   8.177  0.1911  0.4264 -0.2608
  131OSM   H16S14109   4.675   1.248   8.210  0.8257 -0.6488 -0.1400
  131OSM   H16T14110   4.605   1.083   8.175 -1.1682  0.1641 -1.6324
  131OSM   C17S14111   4.477   1.233   8.287  0.2882 -0.0026 -0.2535
  131OSM   H17S14112   4.511   1.169   8.371  0.6693 -0.6767 -0.9016
  131OSM   H17T14113   4.371   1.212   8.262 -0.1013 -0.5148  1.6869
  131OSM   C18S14114   4.493   1.376   8.329 -0.0004  0.0973 -0.0345
  131OSM   H18S14115   4.416   1.392   8.408 -1.0910 -1.2464 -0.7798
  131OSM   H18T14116   4.495   1.444   8.241 -0.1896  0.9147  0.5778
  131OSM   H18U14117   4.589   1.391   8.382 -0.0160 -0.8927  0.2906
  131OSM    C1F14118   4.550   1.029   6.614  0.0133  0.0776 -0.3539
  131OSM     OF14119   4.590   0.915   6.584 -1.4867 -0.1440  0.3849
  131OSM    C2F14120   4.412   1.053   6.662 -0.0258 -0.3502 -0.6454
  131OSM    H2F14121   4.345   1.067   6.575 -1.4292 -2.5483  0.0039
  131OSM    H2G14122   4.411   1.149   6.719  1.8474 -0.1488 -0.8799
  131OSM    C3F14123   4.360   0.930   6.751 -0.3499  0.3874 -0.7396
  131OSM    H3F14124   4.374   0.836   6.695 -0.2235 -0.4904  0.7221
  131OSM    H3G14125   4.252   0.952   6.766 -0.0952  0.5717  0.9855
  131OSM    C4F14126   4.423   0.911   6.890  0.4548 -0.2553 -1.1159
  131OSM    H4F14127   4.532   0.930   6.900  1.0431 -4.0314  1.7436
  131OSM    H4G14128   4.408   0.805   6.921 -2.3165 -0.0449 -1.5265
  131OSM    C5F14129   4.351   0.991   6.996 -0.2504  0.3394 -0.1450
  131OSM    H5F14130   4.255   0.941   7.020  1.1856 -1.3476  2.6614
  131OSM    H5G14131   4.337   1.099   6.973  2.0965  0.6526 -0.3697
  131OSM    C6F14132   4.446   0.997   7.117 -0.3218 -0.1098  0.4322
  131OSM    H6F14133   4.522   1.078   7.112 -0.5626  0.1376  0.7270
  131OSM    H6G14134   4.499   0.902   7.139 -1.2426 -1.3022 -2.0804
  131OSM    C7F14135   4.355   1.019   7.239 -0.3635 -0.2886 -0.3436
  131OSM    H7F14136   4.276   0.943   7.256 -0.7235  0.0224 -0.6027
  131OSM    H7G14137   4.300   1.111   7.211  2.3314  0.9470 -1.9575
  131OSM    C8F14138   4.436   1.044   7.368  0.4097 -0.0309  0.1807
  131OSM    H8F14139   4.526   1.107   7.353  0.4051 -0.2539 -0.8107
  131OSM    H8G14140   4.471   0.945   7.404 -1.9272 -1.1054 -0.3340
  131OSM    C9F14141   4.339   1.106   7.465  0.3322  0.4014 -0.0926
  131OSM    H9F14142   4.301   1.202   7.427  0.9843  0.4532 -0.6240
  131OSM   C10F14143   4.294   1.057   7.579  0.6744  0.1285 -0.2176
  131OSM   H10F14144   4.211   1.112   7.627  1.0220  0.6441 -0.2041
  131OSM   C11F14145   4.319   0.918   7.641 -0.5178 -0.2497  0.1288
  131OSM   H11F14146   4.402   0.868   7.585 -0.2220 -0.4812  0.7637
  131OSM   H11G14147   4.227   0.858   7.626 -1.6362  1.6003 -0.7282
  131OSM   C12F14148   4.339   0.917   7.794 -0.1612  0.1845 -0.0649
  131OSM   H12F14149   4.442   0.931   7.832 -1.1630 -0.7059  3.3241
  131OSM   H12G14150   4.331   0.808   7.818 -0.4322  0.3065  0.4003
  131OSM   C13F14151   4.232   0.996   7.872  0.2618 -0.1582 -0.9508
  131OSM   H13F14152   4.128   0.970   7.841  0.3247  0.3331 -1.5919
  131OSM   H13G14153   4.251   1.100   7.838  1.4524 -0.1115 -0.2003
  131OSM   C14F14154   4.245   0.981   8.027  0.4462 -1.0752 -0.2253
  131OSM   H14F14155   4.347   1.013   8.059  0.4460  1.2801 -2.2100
  131OSM   H14G14156   4.222   0.876   8.053 -0.9797 -0.8985 -0.6793
  131OSM   C15F14157   4.160   1.088   8.107  0.4775  0.1377  0.4574
  131OSM   H15F14158   4.170   1.180   8.046 -0.5340 -1.2884 -2.0059
  131OSM   H15G14159   4.195   1.092   8.213 -0.1883 -1.8155  0.7993
  131OSM   C16F14160   4.009   1.055   8.123 -0.0152  0.0241 -0.0029
  131OSM   H16F14161   3.998   0.963   8.185 -0.7651  0.7996  1.0294
  131OSM   H16G14162   3.962   1.028   8.026 -0.9233 -1.7984  0.8917
  131OSM   C17F14163   3.948   1.180   8.191  0.2978  1.1155  0.4840
  131OSM   H17F14164   3.838   1.164   8.193  0.4538 -0.5082 -1.2226
  131OSM   H17G14165   3.969   1.259   8.116 -2.2087  1.7500  0.3473
  131OSM   C18F14166   4.006   1.215   8.328  0.6624  0.0595  0.1661
  131OSM   H18F14167   3.933   1.291   8.361 -1.7309 -1.3550 -1.5524
  131OSM   H18G14168   4.102   1.270   8.329  0.8454 -0.2581  0.5869
  131OSM   H18H14169   4.011   1.124   8.392  1.2519 -1.2565 -1.6453
  132OSM      N14170   2.615   5.551   6.085  0.8434  0.0121  0.3844
  132OSM    C1514171   2.594   5.408   6.045  0.3222 -1.2594 -0.0071
  132OSM   H15A14172   2.597   5.401   5.937 -0.9944  0.2084 -0.1717
  132OSM   H15B14173   2.503   5.357   6.072  0.4363 -2.8492 -2.3570
  132OSM   H15C14174   2.670   5.339   6.078  0.4660 -1.7554 -1.2934
  132OSM    C1414175   2.738   5.594   6.015  0.1038  0.4358 -0.4140
  132OSM   H14A14176   2.733   5.578   5.909  1.9975  1.2806 -0.6725
  132OSM   H14B14177   2.824   5.545   6.058  0.2405  0.0180 -1.1444
  132OSM   H14C14178   2.760   5.699   6.028  0.8957  0.2655 -0.3549
  132OSM    C1314179   2.501   5.634   6.029  0.4263 -0.1232 -0.5708
  132OSM   H13A14180   2.403   5.602   6.061 -0.4866  1.6401 -1.4622
  132OSM   H13B14181   2.488   5.628   5.922  0.5179 -1.3787 -0.5278
  132OSM   H13C14182   2.511   5.738   6.057  0.1559 -0.3221  0.2833
  132OSM    C1214183   2.626   5.566   6.235 -0.0401  0.9797  0.3164
  132OSM   H12A14184   2.527   5.562   6.280  0.0266 -1.4279  0.3421
  132OSM   H12B14185   2.667   5.666   6.240 -1.5997  1.8016 -1.8255
  132OSM    C1114186   2.722   5.471   6.307 -0.1331 -0.9434 -0.2007
  132OSM   H11A14187   2.676   5.370   6.319  2.0967 -2.0098 -0.2360
  132OSM   H11B14188   2.733   5.513   6.409  0.4052 -2.3431  0.3490
  132OSM      P14189   2.922   5.329   6.233 -0.2889  0.2317 -0.3025
  132OSM    O1314190   2.844   5.239   6.141 -0.6516 -0.1039 -0.3072
  132OSM    O1414191   3.062   5.366   6.202 -0.4531 -0.1902  0.3650
  132OSM    O1114192   2.915   5.281   6.380  0.5584  0.2328  0.6024
  132OSM    O1214193   2.851   5.468   6.245 -0.1726  0.1709  0.0432
  132OSM    C1S14194   2.973   5.337   6.494  0.7593  0.4576 -1.2558
  132OSM    H1S14195   2.927   5.433   6.524 -0.4847 -0.2216 -0.9082
  132OSM    H1T14196   3.081   5.351   6.473  1.7635 -3.4183  0.2896
  132OSM     NF14197   3.008   5.312   6.745  0.7131 -0.2034  0.3827
  132OSM    HNF14198   3.091   5.281   6.791  0.9737 -0.5587 -0.3072
  132OSM    C2S14199   2.971   5.236   6.619 -0.1017 -0.2015  0.7292
  132OSM    H2S14200   2.864   5.205   6.621 -0.8013  1.4357 -2.9290
  132OSM    C3S14201   3.051   5.105   6.594  0.1480  0.1443 -0.3840
  132OSM    H3S14202   3.159   5.135   6.599  0.5887 -1.5766  1.9097
  132OSM     O314203   3.036   5.047   6.463  0.6381 -0.5372 -0.1102
  132OSM    HO314204   2.983   5.117   6.425  0.8618  0.5330  1.4687
  132OSM    C4S14205   3.027   5.001   6.701  0.3215 -0.5507  0.5017
  132OSM    H4S14206   2.928   4.955   6.700  0.7712 -1.5328 -0.8388
  132OSM    C5S14207   3.113   4.969   6.792 -0.1277  0.7719  0.2146
  132OSM    H5S14208   3.210   5.021   6.788  0.0537  0.3881 -1.5111
  132OSM    C6S14209   3.094   4.884   6.915  0.5199 -0.1975  0.8857
  132OSM    H6S14210   3.127   4.949   6.998  1.3657  1.7071 -0.8537
  132OSM    H6T14211   3.155   4.791   6.922 -1.1514 -1.4002  0.1114
  132OSM    C7S14212   2.943   4.854   6.942 -0.2440 -0.4687  0.0392
  132OSM    H7S14213   2.906   4.799   6.853  0.3919 -1.0619  0.1385
  132OSM    H7T14214   2.887   4.948   6.962 -0.6514 -0.3829 -1.4238
  132OSM    C8S14215   2.915   4.755   7.053  0.0917 -0.2822 -0.4203
  132OSM    H8S14216   2.987   4.672   7.039 -0.0868 -0.5009 -0.0417
  132OSM    H8T14217   2.815   4.709   7.064  1.1534 -2.0408  3.5677
  132OSM    C9S14218   2.935   4.815   7.194  0.3798 -0.3220 -0.0604
  132OSM    H9S14219   2.856   4.893   7.206  0.6996 -0.1786  1.3274
  132OSM    H9T14220   3.031   4.866   7.217  0.0957 -0.4737  1.6219
  132OSM   C10S14221   2.908   4.700   7.302 -0.0432 -0.1973 -0.3898
  132OSM   H10S14222   2.976   4.616   7.278  0.8264  0.7983 -1.5882
  132OSM   H10T14223   2.802   4.670   7.296 -0.3556  0.8267 -0.2466
  132OSM   C11S14224   2.913   4.744   7.448  0.4603  0.3258  0.6390
  132OSM   H11S14225   2.860   4.840   7.465 -1.8939 -0.9165  0.7286
  132OSM   H11T14226   3.014   4.756   7.493 -0.1344  0.8288  1.8864
  132OSM   C12S14227   2.870   4.639   7.547  0.3019  0.1167  0.1514
  132OSM   H12S14228   2.921   4.543   7.521  0.0127 -0.0659  0.2461
  132OSM   H12T14229   2.764   4.616   7.526  0.2278  0.8873 -0.3132
  132OSM   C13S14230   2.904   4.658   7.699 -0.0797 -0.5570  0.7387
  132OSM   H13S14231   3.003   4.706   7.694 -1.9152  3.4992 -0.5415
  132OSM   H13T14232   2.913   4.555   7.742  0.3264 -2.2370 -3.0199
  132OSM   C14S14233   2.818   4.753   7.783  0.2710 -0.2132 -0.5462
  132OSM   H14S14234   2.714   4.717   7.797  0.1773  0.4366  0.6219
  132OSM   H14T14235   2.809   4.853   7.736 -2.0058  0.5627  1.3288
  132OSM   C15S14236   2.864   4.775   7.930 -0.5518  0.7879  0.0069
  132OSM   H15S14237   2.877   4.677   7.980  0.2480  1.2972  0.8192
  132OSM   H15T14238   2.779   4.823   7.982 -0.8560 -0.2402  0.4828
  132OSM   C16S14239   2.983   4.870   7.938 -0.4735  0.2618  1.3389
  132OSM   H16S14240   2.972   4.942   7.853 -1.1916  1.6799  2.5834
  132OSM   H16T14241   3.072   4.804   7.928 -0.4042  0.3110  1.6403
  132OSM   C17S14242   2.994   4.943   8.068  0.6369 -0.0974 -0.3820
  132OSM   H17S14243   3.014   4.867   8.147 -1.1293  1.0395  1.2499
  132OSM   H17T14244   2.901   4.999   8.093  1.2106  0.2776  0.9989
  132OSM   C18S14245   3.117   5.038   8.066 -0.5383  0.2462  0.1268
  132OSM   H18S14246   3.092   5.139   8.027  1.3021 -0.1338 -2.2604
  132OSM   H18T14247   3.201   5.003   8.003 -0.9321  2.6315 -1.8817
  132OSM   H18U14248   3.162   5.062   8.164 -0.2674  0.3829 -0.0295
  132OSM    C1F14249   2.936   5.407   6.801  0.8445 -0.1337 -0.3670
  132OSM     OF14250   2.822   5.423   6.768 -0.1139  0.6642  0.6874
  132OSM    C2F14251   2.997   5.482   6.916 -0.0773  0.6292 -0.4714
  132OSM    H2F14252   2.920   5.557   6.943 -1.6507  0.4397 -3.9028
  132OSM    H2G14253   3.086   5.534   6.875 -0.2936 -0.5688 -2.6017
  132OSM    C3F14254   3.031   5.394   7.049 -0.3506  0.8746  0.7613
  132OSM    H3F14255   3.076   5.442   7.138  0.3189  0.7219  0.5088
  132OSM    H3G14256   3.111   5.328   7.009 -1.0944 -1.7877  3.2657
  132OSM    C4F14257   2.914   5.299   7.096 -0.2422 -0.0151  0.1223
  132OSM    H4F14258   2.962   5.227   7.167 -0.7243  0.7124  1.2163
  132OSM    H4G14259   2.867   5.239   7.016  1.9309  0.0541 -1.2843
  132OSM    C5F14260   2.811   5.375   7.174  0.3959  0.3543 -0.1585
  132OSM    H5F14261   2.860   5.453   7.236  0.5550  0.1125  0.0214
  132OSM    H5G14262   2.768   5.311   7.254  1.1910 -0.3648 -0.2896
  132OSM    C6F14263   2.693   5.414   7.088  0.4222  0.0547 -0.0650
  132OSM    H6F14264   2.656   5.321   7.038 -0.8204  0.6179 -0.2492
  132OSM    H6G14265   2.719   5.489   7.011  0.6727  0.7271  0.6685
  132OSM    C7F14266   2.562   5.453   7.160  0.5656 -0.5118 -0.1141
  132OSM    H7F14267   2.529   5.362   7.215  1.1851 -0.9214 -0.4147
  132OSM    H7G14268   2.476   5.466   7.090  0.8145  1.3522 -0.1188
  132OSM    C8F14269   2.581   5.564   7.264 -0.3082 -0.5736  0.2338
  132OSM    H8F14270   2.688   5.560   7.292  0.9207  0.2696 -3.7251
  132OSM    H8G14271   2.512   5.549   7.350 -1.1157 -1.0118 -0.4710
  132OSM    C9F14272   2.556   5.700   7.214  0.7691  0.0252  0.0694
  132OSM    H9F14273   2.514   5.715   7.114  1.3833  1.3057 -0.0099
  132OSM   C10F14274   2.576   5.817   7.281 -0.6281  0.2211 -0.1996
  132OSM   H10F14275   2.530   5.910   7.245  2.1146  1.0786 -1.8004
  132OSM   C11F14276   2.633   5.821   7.427  0.2515 -0.1141  0.3421
  132OSM   H11F14277   2.725   5.883   7.440  1.5400 -2.1439  1.3644
  132OSM   H11G14278   2.654   5.719   7.464 -0.5713  0.0225  1.2290
  132OSM   C12F14279   2.535   5.880   7.531 -0.0368 -0.1995 -0.6176
  132OSM   H12F14280   2.460   5.798   7.528 -0.0463 -0.2201  0.0559
  132OSM   H12G14281   2.499   5.981   7.502 -1.8895 -0.8584 -0.7401
  132OSM   C13F14282   2.606   5.900   7.666  0.0545  0.3472  0.0470
  132OSM   H13F14283   2.535   5.932   7.744  0.5548 -0.2592  0.7679
  132OSM   H13G14284   2.673   5.989   7.666 -1.0606  1.2080  0.3421
  132OSM   C14F14285   2.679   5.779   7.723  0.0778  0.5652  1.1063
  132OSM   H14F14286   2.741   5.809   7.810  0.7231  1.0715  0.4814
  132OSM   H14G14287   2.738   5.728   7.643 -2.6888  0.1099 -0.7826
  132OSM   C15F14288   2.578   5.676   7.776  0.5286  0.1920  0.2323
  132OSM   H15F14289   2.503   5.658   7.696  1.0800  0.6333 -0.3954
  132OSM   H15G14290   2.513   5.726   7.851  0.5906  1.2038 -0.3681
  132OSM   C16F14291   2.630   5.546   7.825 -0.3997 -0.5679 -0.6481
  132OSM   H16F14292   2.701   5.555   7.910 -2.4886 -0.8638  1.2381
  132OSM   H16G14293   2.685   5.501   7.739 -0.9595  1.0890 -1.9278
  132OSM   C17F14294   2.508   5.459   7.875 -0.6548  0.9942 -0.2379
  132OSM   H17F14295   2.429   5.467   7.798 -1.1206 -1.0234 -0.0298
  132OSM   H17G14296   2.472   5.509   7.968  0.0987  1.3849 -0.1438
  132OSM   C18F14297   2.535   5.309   7.891  0.1831  0.3911 -0.6664
  132OSM   H18F14298   2.571   5.280   7.992 -0.6550  1.2895 -0.0986
  132OSM   H18G14299   2.601   5.269   7.811  0.1650  0.1621 -0.5684
  132OSM   H18H14300   2.434   5.268   7.870  0.0199  0.4124  0.0660
  133SAPE     N14301   1.296   2.408  10.617 -0.6694  0.0923 -0.0823
  133SAPE   HN114302   1.321   2.475  10.542 -2.6584 -0.3991 -1.2463
  133SAPE   HN214303   1.243   2.331  10.570  3.0094 -2.5983 -0.2797
  133SAPE   HN314304   1.239   2.467  10.681 -0.8532  0.0829 -0.2367
  133SAPE   C1214305   1.418   2.344  10.676 -0.2524  0.1880 -0.3173
  133SAPE  H12A14306   1.411   2.233  10.675  1.4614  0.0324  0.4619
  133SAPE  H12B14307   1.405   2.364  10.785  3.0622 -1.4532  0.5165
  133SAPE   C1114308   1.552   2.402  10.621 -0.5942  0.3200 -0.3732
  133SAPE  H11A14309   1.557   2.352  10.522 -4.5612  0.1112 -0.5959
  133SAPE  H11B14310   1.639   2.368  10.682  0.0858  0.0240 -1.4745
  133SAPE     P14311   1.650   2.650  10.596 -0.4312 -0.5786  0.5049
  133SAPE   O1314312   1.692   2.689  10.731  0.6456 -0.0552 -0.7420
  133SAPE   O1414313   1.760   2.598  10.507 -0.2730  0.2758 -0.0192
  133SAPE   O1214314   1.534   2.546  10.601  0.8878  0.8280 -0.1670
  133SAPE   O1114315   1.570   2.776  10.534  0.4720 -0.3937 -0.4911
  133SAPE    C114316   1.426   2.784  10.544  0.3111  0.7581 -0.1439
  133SAPE    HA14317   1.373   2.695  10.584  1.2865  0.2220 -0.0230
  133SAPE    HB14318   1.413   2.868  10.615  0.0311  0.6756 -0.0951
  133SAPE    C214319   1.364   2.822  10.407 -0.7165  0.3445 -0.0418
  133SAPE    HS14320   1.254   2.837  10.418 -0.8277  0.6862 -1.4115
  133SAPE   O2114321   1.400   2.719  10.310 -0.3978 -0.4035 -0.4472
  133SAPE   C2114322   1.321   2.622  10.305 -0.3519 -0.8491  0.2174
  133SAPE   O2214323   1.234   2.593  10.385  0.1786 -0.4746 -0.1693
  133SAPE   C2214324   1.361   2.521  10.198 -0.0463  0.5978  0.2695
  133SAPE   H2R14325   1.458   2.550  10.151 -0.2603  1.6391  0.4292
  133SAPE   H2S14326   1.381   2.429  10.256 -0.5127  0.8993  0.9224
  133SAPE    C314327   1.433   2.948  10.361 -0.1444 -0.1750  0.3590
  133SAPE    HX14328   1.538   2.928  10.331 -0.0153  1.4756 -0.3735
  133SAPE    HY14329   1.440   3.030  10.436 -1.2729 -0.0107  0.3047
  133SAPE   O3114330   1.368   2.998  10.245 -0.1283 -0.2484 -0.3450
  133SAPE   C3114331   1.441   3.094  10.191  0.0360 -0.4802  0.1131
  133SAPE   O3214332   1.517   3.163  10.252 -0.4652  0.3865  0.3514
  133SAPE   C3214333   1.412   3.119  10.038 -0.1498  0.2124  0.0085
  133SAPE   H2X14334   1.356   3.215  10.026 -0.5346  0.2687  2.0280
  133SAPE   H2Y14335   1.340   3.046   9.995 -0.4226 -0.5148  1.6615
  133SAPE   C2314336   1.251   2.499  10.092 -0.1453 -0.6256 -0.2071
  133SAPE   H3R14337   1.156   2.541  10.132 -0.1460 -0.7317 -0.0959
  133SAPE   H3S14338   1.219   2.393  10.082  0.4101 -0.8113 -0.0174
  133SAPE   C2414339   1.294   2.552   9.954  1.0892  0.3611  0.1797
  133SAPE   H4R14340   1.239   2.493   9.878  0.5240 -0.1965  0.9989
  133SAPE   H4S14341   1.402   2.527   9.942  1.4357  1.4653  0.8280
  133SAPE   C2514342   1.285   2.700   9.943 -0.4453  0.0157  0.0999
  133SAPE   H5R14343   1.221   2.748  10.018 -0.2377  2.5078 -1.2261
  133SAPE   C2614344   1.377   2.777   9.881  0.5073  0.3734 -0.2994
  133SAPE   H6R14345   1.374   2.887   9.887  0.7177  0.3130  1.4688
  133SAPE   C2714346   1.499   2.728   9.800 -0.1073 -0.6469 -0.4298
  133SAPE   H7R14347   1.506   2.800   9.715 -1.2251 -1.0744 -0.9022
  133SAPE   H7S14348   1.483   2.633   9.744  2.3810 -1.6139  0.3717
  133SAPE   C2814349   1.626   2.738   9.888 -0.2526 -0.1823  0.0936
  133SAPE   H8R14350   1.601   2.729   9.994 -3.1151  2.6974 -0.2016
  133SAPE   C2914351   1.755   2.761   9.851  0.1182 -0.1152  0.4947
  133SAPE   H9R14352   1.827   2.786   9.930 -0.9088  0.5151  1.2518
  133SAPE  C21014353   1.809   2.782   9.713 -0.4608  0.2559  0.5354
  133SAPE  H10R14354   1.832   2.891   9.708 -1.4472  0.4815  0.7642
  133SAPE  H10S14355   1.734   2.761   9.634  1.5473 -1.1756 -1.1085
  133SAPE  C21114356   1.939   2.706   9.688 -0.4971 -0.0394  0.2912
  133SAPE  H11R14357   2.007   2.682   9.771  1.0545  0.0940 -0.8924
  133SAPE  C21214358   1.978   2.656   9.570 -0.1611  0.1131  0.3820
  133SAPE  H12R14359   2.079   2.613   9.572 -0.0534  0.3148 -0.2895
  133SAPE  C21314360   1.898   2.655   9.437 -0.3006  0.4045 -0.6176
  133SAPE  H13R14361   1.836   2.747   9.447  0.5391  0.7922  1.5865
  133SAPE  H13S14362   1.825   2.572   9.440  1.5893 -1.2939  0.7555
  133SAPE  C21414363   1.982   2.651   9.312 -0.2849 -1.0006  0.4142
  133SAPE  H14R14364   2.057   2.571   9.300  1.1663  0.6485 -2.9369
  133SAPE  C21514365   1.971   2.743   9.211  0.4309  0.1674  0.5654
  133SAPE  H15R14366   2.021   2.726   9.114  0.1021  0.3485  0.3634
  133SAPE  C21614367   1.875   2.861   9.208 -0.4912  0.9111 -0.6725
  133SAPE  H16R14368   1.915   2.940   9.275  0.7191 -1.3626  1.4804
  133SAPE  H16S14369   1.771   2.841   9.240  0.4833 -1.4059  1.4364
  133SAPE  C21714370   1.879   2.923   9.063 -0.0042  0.3342  0.7047
  133SAPE  H17R14371   1.979   2.951   9.022 -1.2313  0.1045 -2.8508
  133SAPE  H17S14372   1.827   3.021   9.055 -0.3861  0.0172 -1.7020
  133SAPE  C21814373   1.806   2.841   8.953  0.2043 -0.1932 -0.2236
  133SAPE  H18R14374   1.695   2.852   8.964  0.1773 -1.0471  0.5312
  133SAPE  H18S14375   1.819   2.734   8.980  1.0678  0.1941  0.9951
  133SAPE  C21914376   1.841   2.868   8.808  0.4078  0.5978  0.0851
  133SAPE  H19R14377   1.833   2.971   8.767 -0.3394  0.0398 -1.2253
  133SAPE  H19S14378   1.781   2.797   8.748  1.2641 -0.2829  0.2293
  133SAPE  C22014379   1.985   2.822   8.766  0.3420 -0.7186 -0.3930
  133SAPE  H20R14380   2.057   2.885   8.823 -1.2289 -0.2970  1.2383
  133SAPE  H20S14381   1.996   2.852   8.660  0.9983  2.7169  0.5126
  133SAPE  H20T14382   2.009   2.716   8.786  0.7075 -0.4558  0.6408
  133SAPE   C3314383   1.532   3.129   9.941 -0.6091 -0.3405 -0.8217
  133SAPE   H3X14384   1.560   3.025   9.913  1.1270 -1.4641  4.1061
  133SAPE   H3Y14385   1.618   3.169   9.998 -2.7437  0.6472  1.9910
  133SAPE   C3414386   1.499   3.199   9.810 -0.2108 -0.1464 -0.0266
  133SAPE   H4X14387   1.455   3.301   9.814 -4.0323 -1.5097 -2.3228
  133SAPE   H4Y14388   1.421   3.134   9.766  0.3174 -0.8423  0.0342
  133SAPE   C3514389   1.615   3.199   9.706  0.9143  0.0036  0.1692
  133SAPE   H5X14390   1.653   3.095   9.700 -1.7700 -1.0619  0.4140
  133SAPE   H5Y14391   1.700   3.264   9.737 -0.7487  0.8971  3.3491
  133SAPE   C3614392   1.570   3.240   9.563 -0.7942  0.6684 -0.2006
  133SAPE   H6X14393   1.661   3.259   9.501  1.3548 -1.8602  1.9145
  133SAPE   H6Y14394   1.514   3.336   9.570  0.0779  1.1831 -0.0989
  133SAPE   C3714395   1.473   3.142   9.487 -0.5377 -1.2721 -0.0034
  133SAPE   H7X14396   1.476   3.176   9.381 -0.2472 -0.8261  0.1507
  133SAPE   H7Y14397   1.372   3.155   9.533  0.3791 -1.4510  2.1813
  133SAPE   C3814398   1.514   2.988   9.487  0.3484  0.0495  0.8911
  133SAPE   H8X14399   1.516   2.964   9.595  1.9902  0.3929  0.9548
  133SAPE   H8Y14400   1.617   2.974   9.449 -0.6101 -1.6361 -1.3450
  133SAPE   C3914401   1.414   2.890   9.418 -0.8853 -0.0790 -0.5942
  133SAPE   H9X14402   1.381   2.929   9.319  1.7655 -0.7489 -1.8521
  133SAPE   H9Y14403   1.332   2.879   9.491 -0.9047 -0.0264 -0.6076
  133SAPE  C31014404   1.480   2.753   9.403  0.0113 -0.0910  0.5599
  133SAPE  H10X14405   1.513   2.709   9.500 -1.9017  0.0508  1.3146
  133SAPE  H10Y14406   1.566   2.758   9.332 -2.0829  1.4296 -2.0654
  133SAPE  C31114407   1.380   2.641   9.345 -0.1401  0.5524 -0.7633
  133SAPE  H11X14408   1.357   2.679   9.243  1.4649  1.0450 -0.9640
  133SAPE  H11Y14409   1.293   2.631   9.414 -0.7788  0.0657 -1.6140
  133SAPE  C31214410   1.425   2.495   9.341  0.2309 -0.2733  0.1313
  133SAPE  H12X14411   1.343   2.427   9.311  0.2232  0.5770 -1.8945
  133SAPE  H12Y14412   1.446   2.480   9.449  0.2651 -0.1831  0.1371
  133SAPE  C31314413   1.552   2.459   9.262 -0.4889  0.0018 -0.0581
  133SAPE  H13X14414   1.583   2.358   9.297  0.2602  0.5939  1.0534
  133SAPE  H13Y14415   1.634   2.528   9.290  1.2500 -1.9401 -0.1046
  133SAPE  C31414416   1.528   2.476   9.112  0.0953 -0.4180 -0.0645
  133SAPE  H14X14417   1.510   2.582   9.084 -0.8466 -0.7648 -0.8433
  133SAPE  H14Y14418   1.450   2.403   9.080 -0.4173  0.5970 -1.2038
  133SAPE  C31514419   1.657   2.430   9.039  0.0054 -0.4765 -0.1671
  133SAPE  H15X14420   1.673   2.321   9.053  1.7526 -0.4691 -1.6407
  133SAPE  H15Y14421   1.746   2.491   9.067  0.0259  0.0199 -1.2553
  133SAPE  C31614422   1.649   2.434   8.885  0.7055  0.9274 -0.1229
  133SAPE  H16X14423   1.634   2.543   8.867  0.5521  0.8984 -0.1717
  133SAPE  H16Y14424   1.564   2.370   8.853  0.4288  0.9144  0.6128
  133SAPE  C31714425   1.778   2.386   8.815  0.4022  0.8677 -0.2300
  133SAPE  H17X14426   1.773   2.276   8.828  0.9005  1.0676  1.8681
  133SAPE  H17Y14427   1.869   2.419   8.870 -0.0708 -0.0129  1.1148
  133SAPE  C31814428   1.785   2.428   8.666  0.3631  0.5273  0.0739
  133SAPE  H18X14429   1.680   2.421   8.629 -0.5304  0.4377  2.4627
  133SAPE  H18Y14430   1.843   2.351   8.611  2.3911  1.0512  1.4018
  133SAPE  H18Z14431   1.829   2.529   8.653 -0.6406  1.0863  0.8263
  134SAPE     N14432   5.713   2.478  10.929 -0.1268  0.2240  0.5771
  134SAPE   HN114433   5.623   2.514  10.967 -0.3789  3.5107 -2.5908
  134SAPE   HN214434   5.679   2.395  10.877 -1.4755  2.0491 -1.7054
  134SAPE   HN314435   5.787   2.450  10.996  1.5205  0.8857 -0.9008
  134SAPE   C1214436   5.765   2.598  10.859 -0.4506  0.0938  0.4424
  134SAPE  H12A14437   5.876   2.600  10.857 -0.4615  1.9393 -0.6195
  134SAPE  H12B14438   5.733   2.692  10.911  1.0355  1.1627 -0.4920
  134SAPE   C1114439   5.727   2.601  10.708 -0.2132  0.0476 -0.0783
  134SAPE  H11A14440   5.799   2.670  10.659  1.8464  0.4449  3.2501
  134SAPE  H11B14441   5.631   2.655  10.695  0.3004  0.4469 -3.0710
  134SAPE     P14442   5.605   2.437  10.543  0.3792  0.3816 -0.0408
  134SAPE   O1314443   5.634   2.313  10.473  0.1535  0.1152 -0.1201
  134SAPE   O1414444   5.476   2.452  10.621  0.3753  0.8970  0.3059
  134SAPE   O1214445   5.724   2.469  10.643  0.3121  0.1987  0.4621
  134SAPE   O1114446   5.600   2.549  10.426 -0.6146  0.7738  0.5651
  134SAPE    C114447   5.724   2.598  10.367 -0.6022 -0.2206 -0.3771
  134SAPE    HA14448   5.733   2.701  10.408 -1.3590 -0.3779  0.1981
  134SAPE    HB14449   5.814   2.538  10.391  0.7162  1.6227 -0.5169
  134SAPE    C214450   5.716   2.608  10.212  0.0520  0.2737  0.0542
  134SAPE    HS14451   5.809   2.644  10.163 -0.6567 -1.0809 -2.4567
  134SAPE   O2114452   5.607   2.693  10.174  0.2188 -0.4137 -0.3984
  134SAPE   C2114453   5.616   2.819  10.194  0.0976 -0.6129 -0.2235
  134SAPE   O2214454   5.710   2.880  10.251 -0.6610  0.0231  0.2568
  134SAPE   C2214455   5.497   2.890  10.131 -0.3254  0.3719  0.6703
  134SAPE   H2R14456   5.483   2.850  10.028 -0.3871  2.2560 -0.0864
  134SAPE   H2S14457   5.404   2.870  10.190 -1.0246  1.2915 -0.0935
  134SAPE    C314458   5.697   2.464  10.153 -0.3609  0.1919 -0.4689
  134SAPE    HX14459   5.596   2.432  10.185 -0.1398 -0.2013 -0.1427
  134SAPE    HY14460   5.760   2.391  10.209 -1.8998  0.9988  2.5333
  134SAPE   O3114461   5.717   2.458  10.017 -1.1031  0.0661 -0.1439
  134SAPE   C3114462   5.679   2.350   9.953 -0.0528  0.5238  0.6951
  134SAPE   O3214463   5.640   2.249  10.002  0.2484 -0.1923 -0.4077
  134SAPE   C3214464   5.684   2.376   9.800 -0.0973 -0.4434 -0.8598
  134SAPE   H2X14465   5.718   2.479   9.776 -2.5289  0.7812  0.5522
  134SAPE   H2Y14466   5.578   2.367   9.767 -0.7210  0.3744  0.7920
  134SAPE   C2314467   5.504   3.042  10.114 -0.6611  0.0030  0.1562
  134SAPE   H3R14468   5.529   3.083  10.214 -0.4959  0.0833  0.0824
  134SAPE   H3S14469   5.399   3.072  10.095  0.5999  4.5108 -1.0556
  134SAPE   C2414470   5.599   3.075   9.994  0.8059  0.2234 -0.1970
  134SAPE   H4R14471   5.698   3.024   9.994  0.5498 -0.2819 -0.2934
  134SAPE   H4S14472   5.620   3.184   9.999  1.9208  0.1079 -1.5730
  134SAPE   C2514473   5.547   3.043   9.857  0.2663  0.3419  0.8539
  134SAPE   H5R14474   5.467   3.108   9.817  0.8759  0.6939  0.1781
  134SAPE   C2614475   5.601   2.954   9.773 -0.7182 -0.1308  0.4445
  134SAPE   H6R14476   5.552   2.922   9.680  0.6025 -0.6324 -0.0998
  134SAPE   C2714477   5.721   2.872   9.804 -0.3073 -0.2379  0.3270
  134SAPE   H7R14478   5.728   2.856   9.914  0.7567  2.1793  0.6784
  134SAPE   H7S14479   5.806   2.932   9.766  0.0330 -1.7492 -1.4521
  134SAPE   C2814480   5.699   2.737   9.743 -0.2259 -0.4520 -0.1365
  134SAPE   H8R14481   5.645   2.673   9.814 -0.9493 -0.0244 -0.2925
  134SAPE   C2914482   5.709   2.693   9.615  0.2149 -0.0059 -0.2400
  134SAPE   H9R14483   5.693   2.589   9.584  0.8359  0.0537 -0.7756
  134SAPE  C21014484   5.744   2.790   9.504  0.0979  0.3559  0.4802
  134SAPE  H10R14485   5.676   2.878   9.510 -2.2090 -1.4235  1.7196
  134SAPE  H10S14486   5.719   2.743   9.407  0.1362  1.3014 -0.0021
  134SAPE  C21114487   5.881   2.827   9.496 -0.5605  0.5112 -0.8021
  134SAPE  H11R14488   5.945   2.799   9.582 -0.5604 -0.2262 -1.0383
  134SAPE  C21214489   5.930   2.902   9.389 -0.2364  0.0605 -0.1855
  134SAPE  H12R14490   6.038   2.918   9.380 -0.4141  0.1871 -2.7776
  134SAPE  C21314491   5.843   2.959   9.279 -0.1850  0.4910 -0.3969
  134SAPE  H13R14492   5.736   2.967   9.310 -0.3993  0.8031 -1.1770
  134SAPE  H13S14493   5.844   2.877   9.205 -0.1479 -2.1045  2.3029
  134SAPE  C21414494   5.904   3.082   9.221  1.0574  0.8837 -0.0976
  134SAPE  H14R14495   5.959   3.147   9.291  0.8150  1.2644 -0.2578
  134SAPE  C21514496   5.890   3.117   9.094  0.0027 -0.7611 -0.3128
  134SAPE  H15R14497   5.919   3.219   9.068 -0.3296 -1.2877 -2.9796
  134SAPE  C21614498   5.820   3.035   8.987  0.3048  0.6789  0.6481
  134SAPE  H16R14499   5.804   3.098   8.897  0.8832  2.5268  1.7859
  134SAPE  H16S14500   5.721   2.998   9.021  1.0337 -3.2534 -0.9237
  134SAPE  C21714501   5.906   2.915   8.926  0.7525  0.3550  0.3824
  134SAPE  H17R14502   5.838   2.855   8.863  0.4546  0.1667  0.8737
  134SAPE  H17S14503   5.936   2.845   9.007 -0.3055 -2.0879 -1.2204
  134SAPE  C21814504   6.029   2.959   8.851  0.0720 -0.1374 -0.0626
  134SAPE  H18R14505   6.094   2.998   8.933 -0.5121 -0.8331  0.7440
  134SAPE  H18S14506   6.001   3.045   8.787 -2.8891 -0.5759  0.4975
  134SAPE  C21914507   6.108   2.846   8.779  0.2843 -0.6159 -0.6583
  134SAPE  H19R14508   6.037   2.792   8.713 -0.8746  1.0418 -0.8230
  134SAPE  H19S14509   6.130   2.776   8.862 -1.0055  0.9278  1.0472
  134SAPE  C22014510   6.234   2.919   8.717  0.1312 -0.3034  0.0362
  134SAPE  H20R14511   6.221   2.949   8.611 -0.1191 -0.1254  0.1152
  134SAPE  H20S14512   6.321   2.852   8.711  0.5456  0.2433 -0.1700
  134SAPE  H20T14513   6.259   3.010   8.776 -0.4054 -0.4180  0.4547
  134SAPE   C3314514   5.775   2.272   9.740 -0.4290 -0.0804  0.3674
  134SAPE   H3X14515   5.732   2.172   9.763 -0.5894  0.3886  2.2975
  134SAPE   H3Y14516   5.872   2.283   9.794 -0.5982 -0.5281  0.7778
  134SAPE   C3414517   5.792   2.289   9.590 -0.7066  0.3604 -0.6291
  134SAPE   H4X14518   5.874   2.222   9.557 -0.8403  0.0737 -0.3876
  134SAPE   H4Y14519   5.829   2.392   9.573 -0.8607  0.6019  0.4201
  134SAPE   C3514520   5.661   2.264   9.514 -0.1291  0.3841 -0.3217
  134SAPE   H5X14521   5.586   2.334   9.556 -0.3268 -0.3269  0.5280
  134SAPE   H5Y14522   5.617   2.163   9.527 -1.2044  0.7004 -1.3806
  134SAPE   C3614523   5.672   2.274   9.360 -0.0729  0.5121 -0.2500
  134SAPE   H6X14524   5.574   2.255   9.309 -0.5048 -2.6117  1.5120
  134SAPE   H6Y14525   5.728   2.183   9.330 -1.9718 -1.4543  1.7501
  134SAPE   C3714526   5.749   2.398   9.305  0.4218  0.0068  0.5868
  134SAPE   H7X14527   5.850   2.410   9.349  1.6208  1.2769 -2.2713
  134SAPE   H7Y14528   5.674   2.474   9.337 -1.0759 -0.3540 -1.8179
  134SAPE   C3814529   5.759   2.393   9.150  0.0918 -0.8175  0.0857
  134SAPE   H8X14530   5.805   2.491   9.125 -0.0881 -0.4964  0.9952
  134SAPE   H8Y14531   5.654   2.393   9.115 -0.2968  2.0106  0.9480
  134SAPE   C3914532   5.849   2.278   9.100 -0.5162  0.0571  0.8005
  134SAPE   H9X14533   5.790   2.185   9.118  0.7883 -0.6816  1.4290
  134SAPE   H9Y14534   5.938   2.268   9.166  0.7468  0.9650 -0.6898
  134SAPE  C31014535   5.889   2.283   8.948 -0.9571 -0.5153 -0.4983
  134SAPE  H10X14536   5.794   2.293   8.892 -1.6856  3.0588  1.0956
  134SAPE  H10Y14537   5.951   2.193   8.926  1.0657  0.7333 -0.2231
  134SAPE  C31114538   5.985   2.400   8.914  0.4982  0.4974  0.2346
  134SAPE  H11X14539   6.071   2.399   8.985 -1.1517  0.0757  2.3232
  134SAPE  H11Y14540   5.934   2.497   8.933  1.3606  0.9298  0.4313
  134SAPE  C31214541   6.028   2.390   8.767 -0.6618 -0.2580 -0.5423
  134SAPE  H12X14542   5.952   2.450   8.711  0.1565  1.6651  0.3239
  134SAPE  H12Y14543   6.021   2.288   8.722  0.6819 -1.1276  1.0933
  134SAPE  C31314544   6.168   2.450   8.731 -0.5017  0.8529 -0.1685
  134SAPE  H13X14545   6.257   2.385   8.734 -1.2685 -0.4212 -2.3149
  134SAPE  H13Y14546   6.192   2.530   8.804  0.0790  1.2622 -0.7975
  134SAPE  C31414547   6.160   2.509   8.586  0.3452 -0.2247 -0.6690
  134SAPE  H14X14548   6.262   2.547   8.566  0.2120  0.9555  0.7259
  134SAPE  H14Y14549   6.085   2.589   8.568 -0.7300 -1.0860 -0.1185
  134SAPE  C31514550   6.124   2.403   8.488  0.5214 -0.1607  0.1430
  134SAPE  H15X14551   6.135   2.456   8.392 -1.5632  1.4644  0.7512
  134SAPE  H15Y14552   6.026   2.352   8.499  0.9912 -2.0426 -3.0503
  134SAPE  C31614553   6.229   2.290   8.489  0.8509 -0.1963 -0.2802
  134SAPE  H16X14554   6.212   2.222   8.576 -0.8228  0.3836 -0.1242
  134SAPE  H16Y14555   6.332   2.331   8.502  1.0445 -0.7102 -0.1405
  134SAPE  C31714556   6.230   2.206   8.357  0.6960 -0.2627  0.0200
  134SAPE  H17X14557   6.275   2.274   8.282 -1.5639  0.9610 -0.3248
  134SAPE  H17Y14558   6.125   2.185   8.329  1.2792 -0.3304 -2.2877
  134SAPE  C31814559   6.314   2.078   8.380 -0.0661 -0.5779 -0.2579
  134SAPE  H18X14560   6.401   2.069   8.310  0.7283  0.5293  0.5448
  134SAPE  H18Y14561   6.256   1.984   8.390  0.5173 -0.9180 -0.0665
  134SAPE  H18Z14562   6.364   2.086   8.479  1.0294 -2.8008 -0.5672
  135SAPE     N14563   4.847   1.073  10.724  0.8179  0.4120 -0.2527
  135SAPE   HN114564   4.813   1.167  10.749 -1.1268  0.4029 -2.5335
  135SAPE   HN214565   4.803   0.999  10.782  0.1382  1.4927  0.6357
  135SAPE   HN314566   4.951   1.073  10.731  0.7758 -1.1685  1.0222
  135SAPE   C1214567   4.804   1.053  10.580 -0.2088 -0.0063  0.6851
  135SAPE  H12A14568   4.701   1.012  10.577 -0.1379 -0.1558 -0.5012
  135SAPE  H12B14569   4.881   0.989  10.533  1.1121  1.4614  0.7423
  135SAPE   C1114570   4.799   1.190  10.510 -0.2502 -0.3036  0.1777
  135SAPE  H11A14571   4.744   1.186  10.413  0.4871  0.1963 -0.2706
  135SAPE  H11B14572   4.905   1.219  10.493 -0.5137  1.2787  1.0297
  135SAPE     P14573   4.636   1.382  10.562 -0.2476 -0.0573 -0.2534
  135SAPE   O1314574   4.510   1.307  10.586  0.3335 -0.3494 -0.4638
  135SAPE   O1414575   4.648   1.504  10.647  0.2957 -0.7641 -0.0386
  135SAPE   O1214576   4.749   1.286  10.599 -0.3682  0.5815  0.0649
  135SAPE   O1114577   4.659   1.420  10.415 -0.5338  0.1433  0.1324
  135SAPE    C114578   4.775   1.485  10.377 -0.0074  0.4468  0.3906
  135SAPE    HA14579   4.784   1.574  10.443  3.1318 -0.7239  1.7032
  135SAPE    HB14580   4.864   1.419  10.385 -0.5931 -0.3071  0.7891
  135SAPE    C214581   4.769   1.528  10.227 -0.2753  0.7256  0.0106
  135SAPE    HS14582   4.679   1.593  10.226 -1.4550 -0.4412  4.4896
  135SAPE   O2114583   4.763   1.408  10.153 -0.3056 -0.5025  0.2288
  135SAPE   C2114584   4.638   1.361  10.129  0.6326 -0.2693  0.3571
  135SAPE   O2214585   4.536   1.423  10.148  0.0489  0.2678 -0.6689
  135SAPE   C2214586   4.644   1.228  10.047 -1.1020  0.1840 -0.5812
  135SAPE   H2R14587   4.733   1.225   9.981 -0.2168 -4.0455  0.4986
  135SAPE   H2S14588   4.660   1.142  10.115 -1.8358 -0.1142 -0.7711
  135SAPE    C314589   4.904   1.588  10.179 -0.1983  0.0104  0.2899
  135SAPE    HX14590   4.995   1.528  10.200 -1.2306 -1.3776  0.9201
  135SAPE    HY14591   4.908   1.681  10.240 -0.7700  0.7208 -0.7374
  135SAPE   O3114592   4.908   1.629  10.040  0.5691  0.0263  0.1026
  135SAPE   C3114593   4.978   1.561   9.954 -0.4883  0.5507  0.0880
  135SAPE   O3214594   5.050   1.467   9.974 -0.4684 -0.2880  0.8778
  135SAPE   C3214595   4.956   1.621   9.819 -0.5894 -0.4139  0.6142
  135SAPE   H2X14596   4.931   1.729   9.826 -0.7272 -0.4219  0.2680
  135SAPE   H2Y14597   4.870   1.565   9.777  0.1855 -1.4797  0.4210
  135SAPE   C2314598   4.524   1.197   9.954  0.3779 -0.0271  0.2663
  135SAPE   H3R14599   4.536   1.253   9.860 -2.5283  0.9477  0.3883
  135SAPE   H3S14600   4.437   1.241  10.008  1.7540  1.3252  1.4823
  135SAPE   C2414601   4.514   1.043   9.928 -0.3876 -0.2666 -0.3589
  135SAPE   H4R14602   4.407   1.022   9.906  0.0280 -2.8602 -0.1794
  135SAPE   H4S14603   4.530   1.006  10.032  1.8550  2.1184  0.2298
  135SAPE   C2514604   4.607   0.981   9.823 -0.6182 -0.5107  0.7093
  135SAPE   H5R14605   4.683   0.910   9.859 -1.4929 -0.8232  2.0469
  135SAPE   C2614606   4.577   1.003   9.691  0.1642  0.1414 -0.5281
  135SAPE   H6R14607   4.641   0.955   9.616 -1.1509  0.0064 -1.5939
  135SAPE   C2714608   4.468   1.083   9.627  0.5200 -0.2839  0.0877
  135SAPE   H7R14609   4.412   1.146   9.700  2.2605  2.5691 -0.8861
  135SAPE   H7S14610   4.395   1.016   9.577  1.0676 -1.4086  0.7779
  135SAPE   C2814611   4.523   1.184   9.523  0.2637  0.3990 -0.2541
  135SAPE   H8R14612   4.581   1.268   9.565  1.5517 -0.2629 -0.6259
  135SAPE   C2914613   4.511   1.177   9.388  0.6316  1.2893  0.1803
  135SAPE   H9R14614   4.572   1.234   9.317  1.7889 -3.1693 -2.8136
  135SAPE  C21014615   4.445   1.075   9.297 -0.1876 -0.0818  0.3418
  135SAPE  H10R14616   4.445   0.970   9.335  0.9019 -1.3695 -2.8624
  135SAPE  H10S14617   4.513   1.063   9.210  0.4565 -3.5074  1.1658
  135SAPE  C21114618   4.307   1.113   9.274 -0.2893 -0.1738 -0.3596
  135SAPE  H11R14619   4.255   1.152   9.363  2.2282  0.3962  0.9535
  135SAPE  C21214620   4.246   1.124   9.153 -0.1176  0.3605 -0.0137
  135SAPE  H12R14621   4.144   1.165   9.158 -0.4265 -0.3504 -0.4983
  135SAPE  C21314622   4.298   1.095   9.016  0.2272  0.1031 -0.0700
  135SAPE  H13R14623   4.330   0.988   9.016  2.5032  0.7233  1.1056
  135SAPE  H13S14624   4.395   1.147   9.001  0.8324 -1.0823 -0.4325
  135SAPE  C21414625   4.199   1.121   8.908 -0.4540  0.3116 -0.1610
  135SAPE  H14R14626   4.093   1.123   8.937 -0.1723 -1.5650  1.1784
  135SAPE  C21514627   4.228   1.115   8.779  0.0296 -0.1251 -0.3892
  135SAPE  H15R14628   4.153   1.157   8.710 -0.9161 -1.7775 -0.4070
  135SAPE  C21614629   4.361   1.089   8.716  0.4355  0.3076 -0.2523
  135SAPE  H16R14630   4.442   1.063   8.788  2.1441 -0.3273 -2.3195
  135SAPE  H16S14631   4.405   1.169   8.654  0.2816 -0.4966 -1.4394
  135SAPE  C21714632   4.352   0.961   8.617 -0.2337 -0.5479 -0.5364
  135SAPE  H17R14633   4.301   0.886   8.681  0.5216 -1.0313 -0.4745
  135SAPE  H17S14634   4.458   0.930   8.605 -0.2723 -0.0332 -2.6243
  135SAPE  C21814635   4.278   0.979   8.485  0.0696 -0.5836 -0.7269
  135SAPE  H18R14636   4.340   1.051   8.427 -0.4679  1.5018  1.1700
  135SAPE  H18S14637   4.189   1.040   8.510  2.3680  2.5849  0.4347
  135SAPE  C21914638   4.260   0.859   8.401  0.2525  0.8701 -1.0936
  135SAPE  H19R14639   4.180   0.884   8.328  2.6270  0.4366 -4.1104
  135SAPE  H19S14640   4.229   0.778   8.470 -1.4819  0.2373 -2.5355
  135SAPE  C22014641   4.382   0.809   8.329 -0.1280 -0.1954 -0.0381
  135SAPE  H20R14642   4.472   0.804   8.393 -0.0939 -1.5870 -0.1710
  135SAPE  H20S14643   4.398   0.890   8.254 -1.5475  0.4904  0.3507
  135SAPE  H20T14644   4.366   0.713   8.276 -1.4170  0.5145 -1.0156
  135SAPE   C3314645   5.073   1.615   9.722  0.7456 -0.4550  0.2288
  135SAPE   H3X14646   5.084   1.506   9.699  0.1067 -1.0752  2.5923
  135SAPE   H3Y14647   5.173   1.649   9.757 -0.0672  1.3175  0.9086
  135SAPE   C3414648   5.037   1.698   9.595  0.8089 -0.6044 -0.0829
  135SAPE   H4X14649   5.053   1.796   9.644 -2.5122  0.1219 -0.1931
  135SAPE   H4Y14650   4.931   1.695   9.561  1.5048  2.6183 -3.0816
  135SAPE   C3514651   5.139   1.674   9.485  0.3202  0.3852  0.3894
  135SAPE   H5X14652   5.098   1.591   9.424  1.2846 -0.8140  1.3464
  135SAPE   H5Y14653   5.233   1.636   9.529 -0.5816 -0.0652  2.0409
  135SAPE   C3614654   5.168   1.795   9.400 -0.7174  0.4291  0.4023
  135SAPE   H6X14655   5.078   1.854   9.371 -0.2713  0.2613 -1.5104
  135SAPE   H6Y14656   5.222   1.761   9.309  2.1056 -0.4059  2.2780
  135SAPE   C3714657   5.257   1.893   9.464  0.1528  0.0717  0.2389
  135SAPE   H7X14658   5.214   1.927   9.561  0.9633  1.2025  0.2175
  135SAPE   H7Y14659   5.263   1.983   9.399  0.8399  0.3057  0.6078
  135SAPE   C3814660   5.403   1.843   9.490 -0.2372  0.5552 -0.9175
  135SAPE   H8X14661   5.399   1.768   9.572 -0.4338  0.8741 -0.6335
  135SAPE   H8Y14662   5.458   1.925   9.540 -0.0318 -0.1664  0.0781
  135SAPE   C3914663   5.489   1.805   9.369  0.5188 -0.0439  0.5546
  135SAPE   H9X14664   5.444   1.724   9.308  0.1025  1.5634 -1.3725
  135SAPE   H9Y14665   5.597   1.787   9.387  0.6236 -0.1837 -0.1853
  135SAPE  C31014666   5.506   1.926   9.270 -0.9165 -0.3690  0.1433
  135SAPE  H10X14667   5.529   2.009   9.340 -0.1994  1.3672 -2.0245
  135SAPE  H10Y14668   5.400   1.942   9.241 -1.4073 -0.5766  1.7605
  135SAPE  C31114669   5.604   1.899   9.155 -0.1623 -0.1747 -0.2420
  135SAPE  H11X14670   5.703   1.866   9.192 -0.4909 -1.2348 -0.2643
  135SAPE  H11Y14671   5.633   1.992   9.103 -1.2495  0.9984  1.1504
  135SAPE  C31214672   5.542   1.807   9.051 -0.4533 -0.5460  0.7988
  135SAPE  H12X14673   5.446   1.852   9.019  0.3985  0.9884  0.3340
  135SAPE  H12Y14674   5.510   1.707   9.089 -1.4378 -1.7791 -2.8998
  135SAPE  C31314675   5.624   1.774   8.931 -0.1357  0.0113  0.4941
  135SAPE  H13X14676   5.716   1.719   8.960  0.6402  0.6826 -0.6162
  135SAPE  H13Y14677   5.656   1.863   8.873  0.4226  0.5571  1.6115
  135SAPE  C31414678   5.560   1.677   8.826 -0.7050  0.1773 -0.7841
  135SAPE  H14X14679   5.465   1.722   8.788 -1.1716  1.9055  2.1220
  135SAPE  H14Y14680   5.526   1.581   8.872  1.4556  0.2799  1.1969
  135SAPE  C31514681   5.645   1.652   8.700  0.3795  0.9029 -0.6262
  135SAPE  H15X14682   5.750   1.631   8.730 -0.3469 -0.6981  1.0043
  135SAPE  H15Y14683   5.650   1.743   8.637  0.1642 -0.6033 -2.9591
  135SAPE  C31614684   5.581   1.535   8.610  0.5359  0.4153  0.6326
  135SAPE  H16X14685   5.473   1.560   8.617  0.4773  1.0493 -1.8206
  135SAPE  H16Y14686   5.612   1.436   8.650  0.2738 -0.7437 -1.8405
  135SAPE  C31714687   5.617   1.528   8.464 -0.3752 -0.6362  0.3706
  135SAPE  H17X14688   5.616   1.627   8.414  0.0525 -1.3851 -1.1701
  135SAPE  H17Y14689   5.547   1.459   8.413 -1.6418  1.6033 -1.1143
  135SAPE  C31814690   5.764   1.483   8.440 -0.5889  0.8093 -1.2683
  135SAPE  H18X14691   5.843   1.557   8.466  0.4577 -0.1285 -1.7002
  135SAPE  H18Y14692   5.773   1.463   8.331  1.3753  0.8815 -1.1537
  135SAPE  H18Z14693   5.778   1.399   8.511  1.9665  3.3110  1.4585
  136SAPE     N14694   6.369   2.188  10.724  0.5107 -0.0744 -0.5053
  136SAPE   HN114695   6.341   2.219  10.629 -0.7515 -0.8164 -0.3886
  136SAPE   HN214696   6.468   2.217  10.742  0.2878  0.7270 -0.5570
  136SAPE   HN314697   6.371   2.084  10.733  3.6518 -0.2107 -1.4217
  136SAPE   C1214698   6.299   2.245  10.848 -0.9443  0.1136  0.5294
  136SAPE  H12A14699   6.318   2.354  10.858 -0.6944  0.2893 -1.5095
  136SAPE  H12B14700   6.340   2.198  10.940 -0.5484 -0.4346  0.0777
  136SAPE   C1114701   6.150   2.211  10.855  0.0199  0.6168  0.3169
  136SAPE  H11A14702   6.108   2.227  10.753  1.2933 -0.5939 -0.4275
  136SAPE  H11B14703   6.100   2.275  10.931 -1.1015  1.3604 -0.9872
  136SAPE     P14704   5.991   2.007  10.925 -0.2576  0.1247  0.0254
  136SAPE   O1314705   6.014   1.875  10.988 -0.1865 -0.4292 -0.0478
  136SAPE   O1414706   5.895   2.100  10.997  0.3100 -0.1258  0.6850
  136SAPE   O1214707   6.129   2.077  10.895 -0.3351  0.5622 -0.3711
  136SAPE   O1114708   5.939   1.989  10.777 -0.2394  0.0566 -0.4980
  136SAPE    C114709   6.006   1.895  10.694 -0.2232 -0.3770  0.0059
  136SAPE    HA14710   6.064   1.819  10.751 -0.4323  1.0466  2.2456
  136SAPE    HB14711   5.928   1.842  10.635  0.0078 -0.5437 -0.1507
  136SAPE    C214712   6.099   1.973  10.594  0.0598 -0.7937 -0.2103
  136SAPE    HS14713   6.182   2.021  10.651  0.0743 -0.5889 -0.3978
  136SAPE   O2114714   6.013   2.064  10.523  0.3454 -0.0592  0.1248
  136SAPE   C2114715   6.068   2.180  10.472  0.4723 -0.2435  0.3243
  136SAPE   O2214716   6.168   2.233  10.520 -0.0114  0.3027  0.4181
  136SAPE   C2214717   5.973   2.243  10.367 -0.1799 -0.3846  1.0214
  136SAPE   H2R14718   5.900   2.167  10.333  0.5429 -0.3360 -0.7870
  136SAPE   H2S14719   5.911   2.311  10.429 -0.5123 -2.8536  3.5922
  136SAPE    C314720   6.148   1.861  10.492  0.1344  0.6803  0.1828
  136SAPE    HX14721   6.049   1.822  10.460 -0.5271  1.8795  0.6984
  136SAPE    HY14722   6.193   1.771  10.539  0.4802  0.0562 -1.3139
  136SAPE   O3114723   6.231   1.906  10.381  0.5488 -0.2428 -0.1040
  136SAPE   C3114724   6.285   1.815  10.295 -0.8917 -0.1353 -0.7046
  136SAPE   O3214725   6.250   1.697  10.301  0.3929  0.0896  0.1455
  136SAPE   C3214726   6.370   1.881  10.190  0.5934  0.2658 -0.4007
  136SAPE   H2X14727   6.472   1.898  10.230 -0.1567  0.2855  1.6122
  136SAPE   H2Y14728   6.326   1.982  10.175  0.7164  0.2045 -1.2161
  136SAPE   C2314729   6.049   2.298  10.245 -0.9147  0.7923  0.5501
  136SAPE   H3R14730   6.146   2.347  10.263 -0.1339 -0.7770  0.8482
  136SAPE   H3S14731   5.983   2.367  10.189 -0.4312  0.3599 -0.5783
  136SAPE   C2414732   6.072   2.190  10.143 -0.2249 -0.5118  0.5313
  136SAPE   H4R14733   6.116   2.106  10.201 -2.7428 -1.6977  0.8525
  136SAPE   H4S14734   6.150   2.222  10.070  0.1548  0.7901  1.4807
  136SAPE   C2514735   5.953   2.140  10.063 -0.6564  0.8125 -0.1108
  136SAPE   H5R14736   5.901   2.218  10.005  0.9657  1.3867 -0.8354
  136SAPE   C2614737   5.908   2.015  10.047 -0.3537  0.2481 -0.4397
  136SAPE   H6R14738   5.821   1.995   9.982 -1.0551 -0.1719  0.6006
  136SAPE   C2714739   5.977   1.891  10.093  0.3529 -0.4497  0.2577
  136SAPE   H7R14740   5.992   1.893  10.203 -0.5720  1.1980  0.3805
  136SAPE   H7S14741   6.076   1.871  10.047  0.7655 -1.9267  1.7073
  136SAPE   C2814742   5.883   1.774  10.080 -0.8833 -0.2987  0.3589
  136SAPE   H8R14743   5.787   1.793  10.131 -1.8584  0.0322 -1.4979
  136SAPE   C2914744   5.910   1.656  10.013 -0.0955  0.0486  0.4919
  136SAPE   H9R14745   5.818   1.597  10.003 -0.5253  0.9653 -1.2824
  136SAPE  C21014746   6.030   1.613   9.931 -0.6480 -0.0133  0.2936
  136SAPE  H10R14747   6.093   1.703   9.916 -1.2767  0.4342  0.2557
  136SAPE  H10S14748   5.989   1.597   9.829  0.0406  0.8423 -0.1216
  136SAPE  C21114749   6.099   1.485   9.968 -0.3062 -0.1284  0.4816
  136SAPE  H11R14750   6.092   1.458  10.074 -0.8954  0.9413  0.7361
  136SAPE  C21214751   6.167   1.404   9.882  0.1345 -0.0353 -0.7805
  136SAPE  H12R14752   6.218   1.320   9.932  0.7903  1.5237  1.3022
  136SAPE  C21314753   6.196   1.428   9.731  0.7591  0.2690  0.0743
  136SAPE  H13R14754   6.299   1.393   9.710  0.4587 -0.0648 -0.9284
  136SAPE  H13S14755   6.210   1.536   9.708  0.7778  0.1920 -0.2961
  136SAPE  C21414756   6.101   1.366   9.619  0.1349 -0.3555  0.1659
  136SAPE  H14R14757   6.049   1.278   9.658  1.0610 -0.4051  1.3237
  136SAPE  C21514758   6.078   1.413   9.500  0.2015 -0.3808  0.2662
  136SAPE  H15R14759   6.017   1.350   9.434 -1.0386  0.2826  0.7348
  136SAPE  C21614760   6.135   1.538   9.430  0.8914 -0.2645  0.3170
  136SAPE  H16R14761   6.233   1.513   9.384  1.2398  1.3247  0.1230
  136SAPE  H16S14762   6.151   1.616   9.508  1.1816 -0.0302  0.0249
  136SAPE  C21714763   6.035   1.603   9.322 -0.2484  0.3090  0.4987
  136SAPE  H17R14764   5.941   1.612   9.380 -0.2785 -0.9247  0.6702
  136SAPE  H17S14765   6.000   1.523   9.253 -0.6962 -0.7110  1.8794
  136SAPE  C21814766   6.087   1.722   9.245  0.7263  0.4974  0.1474
  136SAPE  H18R14767   6.169   1.693   9.176  0.6597  0.3068  0.1478
  136SAPE  H18S14768   6.137   1.786   9.321  0.9106  0.7482 -0.1835
  136SAPE  C21914769   5.980   1.792   9.171 -0.2603  0.3309  0.1791
  136SAPE  H19R14770   5.929   1.863   9.241 -1.0796  0.1529 -0.2194
  136SAPE  H19S14771   5.901   1.718   9.146 -0.6379  0.9427 -0.5128
  136SAPE  C22014772   6.026   1.871   9.045 -0.7435  0.0117  0.1081
  136SAPE  H20R14773   5.944   1.893   8.972 -1.9223  0.1011  1.4238
  136SAPE  H20S14774   6.100   1.831   8.972 -1.8406  0.8186 -1.5332
  136SAPE  H20T14775   6.054   1.972   9.082  0.0565  0.4865 -1.6625
  136SAPE   C3314776   6.365   1.794  10.067  0.1428  0.5104  0.6406
  136SAPE   H3X14777   6.267   1.775  10.018  1.1033  1.9156 -2.0326
  136SAPE   H3Y14778   6.414   1.698  10.094  1.2875 -0.1884 -3.2631
  136SAPE   C3414779   6.449   1.857   9.956 -0.1650 -0.1548  0.1655
  136SAPE   H4X14780   6.552   1.870   9.995  0.1610 -2.1557  0.1120
  136SAPE   H4Y14781   6.399   1.953   9.932 -1.9731 -1.0990 -0.0594
  136SAPE   C3514782   6.431   1.764   9.828  0.8387  0.3774 -0.6305
  136SAPE   H5X14783   6.320   1.759   9.816  0.6238  1.7655  0.5425
  136SAPE   H5Y14784   6.472   1.665   9.856  0.7571  0.4988 -0.0793
  136SAPE   C3614785   6.501   1.809   9.702  0.3832 -0.5538 -0.1309
  136SAPE   H6X14786   6.606   1.782   9.727  0.3095  0.5275  1.5311
  136SAPE   H6Y14787   6.490   1.918   9.685  0.3229 -0.6010 -0.3996
  136SAPE   C3714788   6.437   1.743   9.581 -0.3650 -0.2989  0.1912
  136SAPE   H7X14789   6.327   1.737   9.591 -0.3133 -2.5684  0.0723
  136SAPE   H7Y14790   6.466   1.636   9.566 -1.7676 -0.9204  1.6319
  136SAPE   C3814791   6.482   1.823   9.450 -0.2351 -0.0878 -0.0441
  136SAPE   H8X14792   6.587   1.859   9.455 -0.6187  1.3654 -1.4897
  136SAPE   H8Y14793   6.421   1.916   9.440 -0.0573 -0.0303 -0.6183
  136SAPE   C3914794   6.480   1.736   9.332  0.0678  0.4896  0.8907
  136SAPE   H9X14795   6.381   1.688   9.313  1.3265 -1.5173 -1.0878
  136SAPE   H9Y14796   6.551   1.651   9.344  0.8402  1.0783  0.5735
  136SAPE  C31014797   6.531   1.811   9.203 -0.4929 -0.1596  0.8117
  136SAPE  H10X14798   6.637   1.841   9.220  0.3376 -0.3605 -3.1542
  136SAPE  H10Y14799   6.461   1.897   9.191 -2.8211 -2.1352 -0.7401
  136SAPE  C31114800   6.514   1.721   9.074 -0.4498 -0.4606 -0.4790
  136SAPE  H11X14801   6.408   1.732   9.043 -0.6493  0.0218  0.3600
  136SAPE  H11Y14802   6.526   1.614   9.101 -0.6008  0.1575  2.2329
  136SAPE  C31214803   6.603   1.767   8.961 -0.0982  0.8026  0.6577
  136SAPE  H12X14804   6.695   1.707   8.978  0.5420  1.1660 -1.1984
  136SAPE  H12Y14805   6.626   1.873   8.988 -2.2960  1.5233 -0.0912
  136SAPE  C31314806   6.538   1.749   8.829 -0.0354 -0.1837 -0.3538
  136SAPE  H13X14807   6.450   1.816   8.813  0.2844  0.2057 -0.4928
  136SAPE  H13Y14808   6.483   1.653   8.818 -0.6783 -0.1918  2.2541
  136SAPE  C31414809   6.642   1.770   8.716  0.0522  0.5653  0.0530
  136SAPE  H14X14810   6.609   1.713   8.627 -2.1890  0.7020  0.7374
  136SAPE  H14Y14811   6.739   1.729   8.750 -0.0943 -0.3910 -0.6331
  136SAPE  C31514812   6.655   1.917   8.672 -0.0349 -0.1792  0.5107
  136SAPE  H15X14813   6.727   1.965   8.741  0.0253  0.3571  0.0824
  136SAPE  H15Y14814   6.553   1.961   8.678 -0.4397 -0.4835 -2.4704
  136SAPE  C31614815   6.720   1.934   8.532 -0.6283 -0.0149 -0.2887
  136SAPE  H16X14816   6.820   1.886   8.542 -0.9134 -0.1898  2.4249
  136SAPE  H16Y14817   6.725   2.041   8.504 -3.3671  0.3450  0.3205
  136SAPE  C31714818   6.660   1.879   8.411  0.0785 -0.1859 -0.3209
  136SAPE  H17X14819   6.574   1.941   8.380 -0.7481 -0.6407  0.9933
  136SAPE  H17Y14820   6.629   1.775   8.438  3.8609 -1.0090  1.5815
  136SAPE  C31814821   6.755   1.883   8.297  0.0557  0.6047  0.6801
  136SAPE  H18X14822   6.712   1.839   8.205 -0.6042  3.7949 -0.6932
  136SAPE  H18Y14823   6.849   1.830   8.325 -1.2943 -1.4185  1.5792
  136SAPE  H18Z14824   6.799   1.982   8.270  0.5693 -0.2225 -1.7402
  137SAPE     N14825   5.174   5.906  11.083  0.4096 -0.0728  0.5655
  137SAPE   HN114826   5.100   5.914  11.155 -0.9777  0.4223 -0.8401
  137SAPE   HN214827   5.228   5.995  11.079 -1.1445  0.8913 -2.3914
  137SAPE   HN314828   5.116   5.899  10.996  0.6553  0.9093  0.3156
  137SAPE   C1214829   5.278   5.796  11.084  0.2621 -0.9402 -0.7893
  137SAPE  H12A14830   5.217   5.705  11.107 -0.6694 -0.2996 -0.6620
  137SAPE  H12B14831   5.356   5.815  11.161  0.0641  0.1566 -0.8490
  137SAPE   C1114832   5.336   5.791  10.943 -0.4261  0.1731 -0.0513
  137SAPE  H11A14833   5.397   5.882  10.925 -1.1891  1.2563  2.3903
  137SAPE  H11B14834   5.250   5.789  10.873 -0.6115 -3.7893  0.0691
  137SAPE     P14835   5.578   5.665  10.948  0.3972 -0.4498 -0.5881
  137SAPE   O1314836   5.603   5.773  11.043  0.2326  0.4000  0.0360
  137SAPE   O1414837   5.618   5.524  10.980 -0.0705 -0.5407 -0.2550
  137SAPE   O1214838   5.416   5.666  10.940 -0.8627 -0.0901 -0.1359
  137SAPE   O1114839   5.628   5.708  10.800 -0.2586 -0.1000  0.0875
  137SAPE    C114840   5.569   5.671  10.679 -0.0524 -0.5639  0.7357
  137SAPE    HA14841   5.466   5.633  10.693 -1.5989  2.8058 -0.5452
  137SAPE    HB14842   5.552   5.767  10.626  0.8732 -0.2786  0.9208
  137SAPE    C214843   5.656   5.568  10.593 -0.4201  0.0800  0.4336
  137SAPE    HS14844   5.689   5.488  10.662 -2.2334 -1.3576 -0.2685
  137SAPE   O2114845   5.768   5.638  10.524  0.2866  0.3702  0.6944
  137SAPE   C2114846   5.857   5.558  10.483 -0.3849  0.2637  0.2472
  137SAPE   O2214847   5.856   5.433  10.481  0.2275  0.0255 -0.1527
  137SAPE   C2214848   5.984   5.631  10.433  0.3784 -0.5620 -0.2199
  137SAPE   H2R14849   5.989   5.718  10.503 -0.3006  0.4633 -1.3869
  137SAPE   H2S14850   6.075   5.571  10.447 -0.2170 -1.0540  1.9358
  137SAPE    C314851   5.562   5.502  10.487 -0.8107  0.0500  0.2704
  137SAPE    HX14852   5.482   5.446  10.539  0.0363 -1.0894  0.3909
  137SAPE    HY14853   5.623   5.422  10.439 -0.1858  1.3530 -1.2032
  137SAPE   O3114854   5.502   5.604  10.404 -0.2242  0.0283 -0.0809
  137SAPE   C3114855   5.542   5.609  10.278 -0.6196  0.1227  0.5009
  137SAPE   O3214856   5.613   5.528  10.219  0.1246  0.4130 -0.4918
  137SAPE   C3214857   5.484   5.726  10.201  0.6752  0.3227  0.2896
  137SAPE   H2X14858   5.494   5.819  10.260 -0.8432  0.2620  0.6774
  137SAPE   H2Y14859   5.375   5.707  10.192  0.7310 -0.5515  1.2750
  137SAPE   C2314860   5.971   5.682  10.285  0.0472 -0.4745  0.0938
  137SAPE   H3R14861   5.871   5.729  10.277 -0.5711 -2.0332 -2.5048
  137SAPE   H3S14862   5.977   5.602  10.208 -1.7274 -0.8620  0.3189
  137SAPE   C2414863   6.077   5.796  10.268 -0.1588  1.0043 -0.2763
  137SAPE   H4R14864   6.082   5.854  10.363 -0.7764  0.8729 -0.1595
  137SAPE   H4S14865   6.049   5.866  10.187  1.5561 -0.3970 -2.1790
  137SAPE   C2514866   6.213   5.740  10.238  0.3791  0.3245  0.5352
  137SAPE   H5R14867   6.288   5.734  10.318  1.7327 -1.4472 -0.7726
  137SAPE   C2614868   6.267   5.724  10.115 -0.0181  0.0263 -0.1067
  137SAPE   H6R14869   6.366   5.678  10.111 -0.2730 -0.6231  0.8252
  137SAPE   C2714870   6.203   5.750   9.979 -0.3215 -0.7261  0.0235
  137SAPE   H7R14871   6.100   5.712   9.990 -1.5632  2.1953 -0.5277
  137SAPE   H7S14872   6.253   5.695   9.896  0.3990 -1.9017  1.1975
  137SAPE   C2814873   6.201   5.893   9.939 -0.3795 -0.0346  0.1609
  137SAPE   H8R14874   6.258   5.961  10.005  0.7679 -1.3974  0.6419
  137SAPE   C2914875   6.156   5.946   9.826 -0.2000 -0.0353 -0.7956
  137SAPE   H9R14876   6.170   6.055   9.822 -1.7266  0.2785  0.9281
  137SAPE  C21014877   6.090   5.873   9.716 -0.5894 -0.4303  0.4120
  137SAPE  H10R14878   5.981   5.892   9.729 -1.4589 -2.2934 -2.8670
  137SAPE  H10S14879   6.093   5.764   9.735 -2.4195 -0.7659 -0.9315
  137SAPE  C21114880   6.126   5.897   9.571  0.0079  0.7698 -0.3862
  137SAPE  H11R14881   6.058   5.969   9.522 -0.2589  1.6824  1.2794
  137SAPE  C21214882   6.214   5.832   9.496 -0.2850  0.0271  0.1065
  137SAPE  H12R14883   6.228   5.843   9.388  0.5524 -0.1341  0.1844
  137SAPE  C21314884   6.305   5.728   9.561  0.1219  0.1346  0.1677
  137SAPE  H13R14885   6.306   5.733   9.672  2.0736  0.1843  0.1783
  137SAPE  H13S14886   6.404   5.747   9.515  0.2152 -0.4536  0.1228
  137SAPE  C21414887   6.274   5.583   9.542  0.3189  0.3277  0.8471
  137SAPE  H14R14888   6.188   5.559   9.478  0.7763 -1.9688  1.0113
  137SAPE  C21514889   6.345   5.479   9.592 -0.5191  0.6302  0.3597
  137SAPE  H15R14890   6.318   5.376   9.564  2.3123 -0.3692  0.9445
  137SAPE  C21614891   6.460   5.500   9.685 -0.1446  0.3947 -0.0281
  137SAPE  H16R14892   6.436   5.602   9.723  1.2659  0.5228  0.5692
  137SAPE  H16S14893   6.556   5.505   9.629 -0.1342  2.1607  0.1039
  137SAPE  C21714894   6.467   5.399   9.795 -0.8769  0.5218 -0.0954
  137SAPE  H17R14895   6.486   5.299   9.750  3.6255 -0.1504  2.7015
  137SAPE  H17S14896   6.371   5.390   9.851 -0.2114 -0.7443  0.9146
  137SAPE  C21814897   6.581   5.418   9.893  0.2953  0.7205 -0.0256
  137SAPE  H18R14898   6.620   5.522   9.893  1.7092  0.2812 -2.7659
  137SAPE  H18S14899   6.668   5.358   9.860 -1.2334 -1.7123  0.0537
  137SAPE  C21914900   6.544   5.369  10.028  0.2891 -0.2773  0.0970
  137SAPE  H19R14901   6.527   5.260  10.027 -1.2403 -0.1138  2.1224
  137SAPE  H19S14902   6.447   5.417  10.055  0.4408  0.2313 -0.2471
  137SAPE  C22014903   6.648   5.384  10.145  0.3523 -0.5451  0.1989
  137SAPE  H20R14904   6.735   5.318  10.123  0.9800  0.8451 -1.8087
  137SAPE  H20S14905   6.594   5.356  10.237 -0.1509 -0.4744 -0.0734
  137SAPE  H20T14906   6.680   5.487  10.172  1.1924 -0.8412  0.3625
  137SAPE   C3314907   5.550   5.757  10.065 -0.3926 -0.1986  0.3772
  137SAPE   H3X14908   5.661   5.758  10.075 -0.1753 -0.5848 -1.6403
  137SAPE   H3Y14909   5.518   5.858  10.034 -1.8265  0.2958  3.1201
  137SAPE   C3414910   5.520   5.652   9.958  0.2694 -0.2147 -0.7488
  137SAPE   H4X14911   5.564   5.554   9.985  0.6417 -0.3161 -1.6779
  137SAPE   H4Y14912   5.585   5.683   9.874 -1.0487  1.0060 -1.3637
  137SAPE   C3514913   5.378   5.660   9.911  0.3173 -0.2189  0.1915
  137SAPE   H5X14914   5.351   5.765   9.889 -0.2365 -0.9673 -3.3405
  137SAPE   H5Y14915   5.300   5.628   9.982 -0.3005 -1.1278 -0.8572
  137SAPE   C3614916   5.352   5.575   9.783  0.1822 -0.5781  0.1686
  137SAPE   H6X14917   5.351   5.468   9.810 -2.2445 -0.7257 -0.3391
  137SAPE   H6Y14918   5.438   5.593   9.714 -0.4397  0.4808 -0.3473
  137SAPE   C3714919   5.221   5.616   9.714  0.5273  0.3058 -0.4187
  137SAPE   H7X14920   5.217   5.727   9.716  2.1627  0.4695 -2.3808
  137SAPE   H7Y14921   5.132   5.574   9.765 -0.4059  1.2366 -1.2520
  137SAPE   C3814922   5.206   5.551   9.573 -0.1333 -0.1725  0.0696
  137SAPE   H8X14923   5.101   5.516   9.573 -0.4316  0.6693 -0.8789
  137SAPE   H8Y14924   5.273   5.462   9.566  1.8364  1.0520  2.0258
  137SAPE   C3914925   5.247   5.650   9.464  0.2343 -0.2618 -0.3750
  137SAPE   H9X14926   5.357   5.661   9.464  0.2373 -0.2983 -0.5782
  137SAPE   H9Y14927   5.222   5.753   9.499 -0.9939  0.2573 -2.5645
  137SAPE  C31014928   5.174   5.641   9.329 -0.6846  0.4604  1.1531
  137SAPE  H10X14929   5.065   5.659   9.341 -1.3968  0.1336 -3.1391
  137SAPE  H10Y14930   5.178   5.540   9.284 -0.8486  0.9634 -0.0409
  137SAPE  C31114931   5.225   5.732   9.220 -0.2497  0.0080  0.0987
  137SAPE  H11X14932   5.324   5.699   9.181 -0.2560 -1.3002  1.0930
  137SAPE  H11Y14933   5.234   5.836   9.258 -0.3893  1.2844 -3.0904
  137SAPE  C31214934   5.132   5.729   9.097  0.4552  0.3472  0.6769
  137SAPE  H12X14935   5.094   5.627   9.075 -2.5236  1.3024  0.9411
  137SAPE  H12Y14936   5.189   5.768   9.010 -1.1107  2.8258  0.6583
  137SAPE  C31314937   5.014   5.820   9.113  0.1175 -0.0721  0.1531
  137SAPE  H13X14938   5.053   5.924   9.115  0.3211 -0.0331 -2.2175
  137SAPE  H13Y14939   4.949   5.800   9.200  0.3105  0.5426  0.4468
  137SAPE  C31414940   4.922   5.819   8.989  0.1394 -0.0178 -0.6218
  137SAPE  H14X14941   4.903   5.715   8.955  2.1173  0.2464 -2.7563
  137SAPE  H14Y14942   4.984   5.853   8.903  1.5538 -1.3040 -0.1476
  137SAPE  C31514943   4.792   5.903   8.995 -0.6949 -0.4694 -0.5049
  137SAPE  H15X14944   4.824   6.007   9.018 -0.7420 -0.8140  1.3251
  137SAPE  H15Y14945   4.739   5.881   9.090  0.9302 -0.8158  0.3609
  137SAPE  C31614946   4.709   5.898   8.866  0.2612  0.9288  0.1549
  137SAPE  H16X14947   4.602   5.920   8.885 -0.2346  0.5947 -2.0455
  137SAPE  H16Y14948   4.699   5.802   8.811 -2.2305  1.1657  0.0906
  137SAPE  C31714949   4.758   6.007   8.762  0.2345 -0.6363 -0.0074
  137SAPE  H17X14950   4.865   5.995   8.734  0.1297 -0.7475 -0.3725
  137SAPE  H17Y14951   4.748   6.102   8.819  1.5195 -0.5771  0.1384
  137SAPE  C31814952   4.669   6.010   8.644 -0.3129 -1.2415 -0.0937
  137SAPE  H18X14953   4.690   5.922   8.580 -0.1836 -0.0224 -1.8042
  137SAPE  H18Y14954   4.668   6.106   8.586  0.2368 -0.9713  0.3454
  137SAPE  H18Z14955   4.561   5.994   8.666 -0.2143 -1.6379  0.1129
  138SAPE     N14956   2.258   1.773  10.621 -0.3390  0.5762  0.1934
  138SAPE   HN114957   2.316   1.723  10.551 -0.6095 -1.4891  1.3529
  138SAPE   HN214958   2.309   1.860  10.645 -0.4470  0.9427 -0.8438
  138SAPE   HN314959   2.247   1.712  10.705  2.2201  1.5328  1.3155
  138SAPE   C1214960   2.144   1.835  10.547  0.0242  0.0291 -0.3916
  138SAPE  H12A14961   2.182   1.902  10.466  1.3867  0.7626  0.8084
  138SAPE  H12B14962   2.076   1.892  10.614 -1.5589 -0.7333 -1.2841
  138SAPE   C1114963   2.057   1.726  10.482  0.0972  0.2285  0.1095
  138SAPE  H11A14964   2.107   1.671  10.399 -0.3165 -0.2983  0.2060
  138SAPE  H11B14965   1.967   1.771  10.434 -0.6622 -2.5595 -1.3074
  138SAPE     P14966   2.038   1.484  10.582  0.2422  0.2721 -0.5582
  138SAPE   O1314967   2.180   1.444  10.602  0.2381 -0.7410  0.0597
  138SAPE   O1414968   1.941   1.442  10.691 -0.0239  0.0013 -0.3092
  138SAPE   O1214969   2.018   1.639  10.587  0.1648 -0.0190 -0.1143
  138SAPE   O1114970   1.983   1.441  10.444 -0.3250  0.2223 -0.1612
  138SAPE    C114971   2.051   1.338  10.377 -0.4946 -0.1823  0.1585
  138SAPE    HA14972   2.087   1.257  10.443 -0.6258 -1.3124 -1.1167
  138SAPE    HB14973   1.981   1.293  10.304 -1.5913  1.3192  0.2333
  138SAPE    C214974   2.178   1.381  10.300 -0.9725 -0.9628  0.3397
  138SAPE    HS14975   2.247   1.409  10.382  1.6206  0.9144 -2.2928
  138SAPE   O2114976   2.158   1.498  10.220  0.1437  0.0073  0.5920
  138SAPE   C2114977   2.262   1.545  10.162 -0.3385  0.0583  0.3983
  138SAPE   O2214978   2.380   1.510  10.185 -0.0937  0.0734 -0.2541
  138SAPE   C2214979   2.222   1.654  10.069 -0.1699 -0.3820  0.4203
  138SAPE   H2R14980   2.279   1.659   9.974 -2.1458 -1.3293 -0.8785
  138SAPE   H2S14981   2.118   1.644  10.030  0.6377  0.9861 -2.3534
  138SAPE    C314982   2.232   1.255  10.227 -0.8821 -0.7967  0.6003
  138SAPE    HX14983   2.251   1.182  10.309  1.0230  1.6689  2.5326
  138SAPE    HY14984   2.328   1.280  10.176 -1.8920  0.0144 -0.9845
  138SAPE   O3114985   2.136   1.200  10.136 -0.2557 -0.1304  0.8305
  138SAPE   C3114986   2.149   1.242  10.004 -0.5322 -0.3949  0.3011
  138SAPE   O3214987   2.246   1.309   9.961  0.0085  0.9392 -0.0164
  138SAPE   C3214988   2.028   1.197   9.923 -0.4147 -0.0833 -0.1386
  138SAPE   H2X14989   1.995   1.294   9.880 -0.4987  0.9584  2.1296
  138SAPE   H2Y14990   1.945   1.175   9.993  2.2378  1.4743  3.8662
  138SAPE   C2314991   2.224   1.789  10.147  0.0274  0.5597  0.0087
  138SAPE   H3R14992   2.330   1.807  10.176  0.3323 -1.4958  0.3740
  138SAPE   H3S14993   2.159   1.781  10.237  1.4924 -0.6826  1.0043
  138SAPE   C2414994   2.189   1.916  10.068 -0.2396 -0.3537  0.1200
  138SAPE   H4R14995   2.267   1.928   9.991  2.1105  0.0772  2.4309
  138SAPE   H4S14996   2.202   2.003  10.137 -2.5742  0.2285 -0.0612
  138SAPE   C2514997   2.054   1.908   9.999 -0.6023 -0.3063 -0.0599
  138SAPE   H5R14998   1.963   1.923  10.060  0.1855  1.4133  0.7738
  138SAPE   C2614999   2.023   1.871   9.880 -0.9651  0.1467  0.2463
  138SAPE   H6R15000   1.918   1.869   9.848 -0.7117 -0.8091 -0.5858
  138SAPE   C2715001   2.124   1.836   9.768  0.1101 -0.3214  0.2269
  138SAPE   H7R15002   2.226   1.824   9.810  0.4375  1.0178 -0.1341
  138SAPE   H7S15003   2.133   1.927   9.705 -5.4145  0.1572 -0.3338
  138SAPE   C2815004   2.102   1.718   9.683  0.0856 -0.1086 -0.1534
  138SAPE   H8R15005   2.027   1.650   9.726 -0.1104 -0.3294 -0.8421
  138SAPE   C2915006   2.167   1.683   9.571 -0.0305 -0.2862 -0.9317
  138SAPE   H9R15007   2.153   1.583   9.528 -1.5511 -0.7735  0.5819
  138SAPE  C21015008   2.277   1.771   9.513  0.2499  0.2878  0.6501
  138SAPE  H10R15009   2.343   1.717   9.442  1.0144  0.8919  0.8868
  138SAPE  H10S15010   2.346   1.803   9.594 -0.3999 -1.1289  1.8059
  138SAPE  C21115011   2.238   1.903   9.451 -0.0376  0.0179  0.3827
  138SAPE  H11R15012   2.225   1.981   9.528 -0.4475  1.1153 -0.7568
  138SAPE  C21215013   2.251   1.952   9.327 -0.2612  0.2806  0.1482
  138SAPE  H12R15014   2.219   2.056   9.309 -2.6018 -0.2583  0.9357
  138SAPE  C21315015   2.305   1.883   9.201 -0.8564 -0.6751 -0.0703
  138SAPE  H13R15016   2.242   1.793   9.185  2.4788 -3.3986  0.8677
  138SAPE  H13S15017   2.410   1.848   9.208 -1.2600 -1.6812  1.3610
  138SAPE  C21415018   2.299   1.959   9.071 -0.3376 -0.1607  0.2038
  138SAPE  H14R15019   2.198   1.970   9.031 -0.0856 -0.9520 -0.6700
  138SAPE  C21515020   2.399   2.020   9.001 -0.5942 -0.1399 -0.1886
  138SAPE  H15R15021   2.380   2.049   8.896  0.7683  0.9149 -0.1686
  138SAPE  C21615022   2.541   2.029   9.045 -0.2090 -0.1777  0.3784
  138SAPE  H16R15023   2.577   2.009   9.148  1.2063 -0.8551 -0.2247
  138SAPE  H16S15024   2.564   2.137   9.036 -2.6225  0.3024 -0.7359
  138SAPE  C21715025   2.645   1.953   8.953  0.8426  0.5083 -0.3713
  138SAPE  H17R15026   2.608   1.922   8.853  3.2717  1.5070 -1.6653
  138SAPE  H17S15027   2.647   1.856   9.006 -0.9201  1.5626  1.7907
  138SAPE  C21815028   2.784   2.013   8.940 -0.3073  0.2392  0.7117
  138SAPE  H18R15029   2.848   1.937   8.889 -1.3241  0.1778 -0.5095
  138SAPE  H18S15030   2.838   2.029   9.036  1.8270  2.1785 -0.6897
  138SAPE  C21915031   2.793   2.148   8.872  0.6154  0.4542 -0.0181
  138SAPE  H19R15032   2.897   2.187   8.874  0.4081  1.0138  0.0047
  138SAPE  H19S15033   2.735   2.221   8.933  2.1542  2.1574 -0.5096
  138SAPE  C22015034   2.747   2.135   8.735 -0.2257  0.1771  0.6846
  138SAPE  H20R15035   2.814   2.064   8.683  0.2087  1.1684 -0.1318
  138SAPE  H20S15036   2.744   2.232   8.681 -2.7674 -1.7111 -2.9281
  138SAPE  H20T15037   2.639   2.111   8.727 -0.9034  3.0970 -0.1430
  138SAPE   C3315038   2.076   1.101   9.813  1.1529  0.3502 -0.3392
  138SAPE   H3X15039   2.061   0.997   9.850  3.0519  0.1061 -0.1354
  138SAPE   H3Y15040   2.180   1.098   9.774  1.7698 -0.9181  1.2466
  138SAPE   C3415041   2.000   1.145   9.686  0.0038  0.1449 -0.6135
  138SAPE   H4X15042   2.015   1.253   9.667 -0.5882  0.3161 -0.1385
  138SAPE   H4Y15043   1.890   1.135   9.698  0.3748 -1.6685  1.8343
  138SAPE   C3515044   2.053   1.076   9.559  0.3318 -0.2610  0.3408
  138SAPE   H5X15045   2.031   0.967   9.560 -1.3619  0.0537  1.2833
  138SAPE   H5Y15046   2.164   1.086   9.561  0.3402 -0.1181  2.6054
  138SAPE   C3615047   1.989   1.133   9.436 -0.1789  0.5705  0.4074
  138SAPE   H6X15048   1.940   1.229   9.465 -0.9522 -0.3733  2.4675
  138SAPE   H6Y15049   1.913   1.063   9.395  1.7364 -1.2315 -0.1761
  138SAPE   C3715050   2.097   1.168   9.333  0.2370 -0.4637  0.4102
  138SAPE   H7X15051   2.050   1.195   9.237  2.8199 -1.8220 -1.3408
  138SAPE   H7Y15052   2.168   1.084   9.323  1.6289  0.5865  1.1512
  138SAPE   C3815053   2.190   1.280   9.385 -0.3241 -0.2129  0.4542
  138SAPE   H8X15054   2.249   1.236   9.468 -1.1637 -0.2497  1.0471
  138SAPE   H8Y15055   2.125   1.358   9.431  1.6041  0.8922  1.4295
  138SAPE   C3915056   2.278   1.346   9.277 -0.2803  0.8522 -0.4403
  138SAPE   H9X15057   2.333   1.265   9.225 -1.4670 -0.5596  0.4272
  138SAPE   H9Y15058   2.347   1.416   9.330  0.8647 -0.1398 -0.5759
  138SAPE  C31015059   2.194   1.433   9.172  0.3168 -0.2868  0.0793
  138SAPE  H10X15060   2.145   1.511   9.232 -0.2905 -0.7408  0.1816
  138SAPE  H10Y15061   2.118   1.358   9.142  0.2196  0.0492 -0.5256
  138SAPE  C31115062   2.285   1.481   9.059  0.7784 -0.3204 -0.5205
  138SAPE  H11X15063   2.357   1.406   9.019  2.8923  1.5926 -0.4611
  138SAPE  H11Y15064   2.341   1.572   9.088  0.7128 -0.5734  0.4226
  138SAPE  C31215065   2.192   1.520   8.935  0.0611  0.0166 -0.4133
  138SAPE  H12X15066   2.111   1.590   8.965 -0.6923 -0.8349 -0.4238
  138SAPE  H12Y15067   2.142   1.423   8.914  1.4917 -0.7628 -0.3704
  138SAPE  C31315068   2.271   1.572   8.817  0.2712 -0.2239 -0.4174
  138SAPE  H13X15069   2.200   1.567   8.731 -0.2118  2.6982 -0.2859
  138SAPE  H13Y15070   2.353   1.501   8.795  0.9581  0.4199  0.0534
  138SAPE  C31415071   2.321   1.713   8.827  0.2613 -0.8168 -0.3638
  138SAPE  H14X15072   2.379   1.722   8.921 -0.7867 -1.3154  0.3357
  138SAPE  H14Y15073   2.239   1.786   8.842 -0.5921 -1.9918  0.8687
  138SAPE  C31515074   2.409   1.761   8.706 -0.0365  0.3706 -0.8906
  138SAPE  H15X15075   2.490   1.684   8.703  0.6178  0.8999  1.4029
  138SAPE  H15Y15076   2.445   1.861   8.738  0.8874 -0.1702 -0.2086
  138SAPE  C31615077   2.335   1.789   8.578 -0.6150 -0.0224 -1.0493
  138SAPE  H16X15078   2.232   1.822   8.603 -0.2781  0.8752 -0.7841
  138SAPE  H16Y15079   2.327   1.689   8.531 -1.5827 -1.6246  2.2949
  138SAPE  C31715080   2.395   1.899   8.481  0.0981 -0.1273  0.0240
  138SAPE  H17X15081   2.497   1.865   8.452  0.4518  3.5588 -4.0663
  138SAPE  H17Y15082   2.422   1.989   8.540  0.2312  1.1960 -1.9463
  138SAPE  C31815083   2.302   1.946   8.368 -0.8100  0.2080  0.3750
  138SAPE  H18X15084   2.202   1.969   8.410 -0.6160  0.7782  0.5327
  138SAPE  H18Y15085   2.292   1.868   8.289 -3.0573  1.5940 -0.8129
  138SAPE  H18Z15086   2.337   2.041   8.321 -1.5650  1.0013  1.3711
  139SAPE     N15087   3.534   1.903  10.825  0.4956  0.1960  0.5407
  139SAPE   HN115088   3.478   1.869  10.744 -0.3273  4.7586 -1.0994
  139SAPE   HN215089   3.624   1.917  10.776  0.8621 -2.4657  0.2970
  139SAPE   HN315090   3.541   1.850  10.914 -0.4081  2.0607  1.7902
  139SAPE   C1215091   3.473   2.040  10.854 -0.4760  0.2106 -0.3361
  139SAPE  H12A15092   3.495   2.102  10.764 -1.6965 -0.4352 -1.1039
  139SAPE  H12B15093   3.526   2.084  10.941 -1.8651  2.0260 -0.3595
  139SAPE   C1115094   3.318   2.056  10.875  0.4395 -0.5880 -0.5722
  139SAPE  H11A15095   3.299   2.162  10.899 -1.0879 -0.9362 -0.1309
  139SAPE  H11B15096   3.301   1.996  10.967  0.4506  0.8841  0.4203
  139SAPE     P15097   3.210   2.106  10.645  0.0348  0.0539  0.0566
  139SAPE   O1315098   3.168   2.027  10.524 -0.1899 -0.0015 -0.5147
  139SAPE   O1415099   3.116   2.209  10.689  0.1787  0.1601  0.4242
  139SAPE   O1215100   3.252   2.007  10.762  0.6030 -0.0496  0.2804
  139SAPE   O1115101   3.349   2.173  10.612 -0.6575  0.0808  0.3695
  139SAPE    C115102   3.367   2.301  10.549 -0.2429 -0.3436  0.1985
  139SAPE    HA15103   3.323   2.375  10.620  0.3432 -1.2255  1.5216
  139SAPE    HB15104   3.476   2.321  10.539 -0.5629  1.9159  0.5573
  139SAPE    C215105   3.301   2.317  10.406 -0.8375  0.7699  0.4330
  139SAPE    HS15106   3.196   2.285  10.423 -0.2292 -1.0065  0.9991
  139SAPE   O2115107   3.375   2.223  10.318 -0.2812 -0.0867  0.1042
  139SAPE   C2115108   3.298   2.173  10.220 -0.3062  0.2278 -0.2041
  139SAPE   O2215109   3.181   2.203  10.200  0.8674  0.9008 -0.4564
  139SAPE   C2215110   3.368   2.053  10.146 -1.0299 -0.1936  0.4879
  139SAPE   H2R15111   3.405   2.092  10.048 -0.5202 -0.3743  0.6049
  139SAPE   H2S15112   3.462   2.020  10.194 -1.3318 -2.3217 -0.2603
  139SAPE    C315113   3.308   2.462  10.351 -0.1500  0.0116 -0.5502
  139SAPE    HX15114   3.417   2.482  10.343 -0.3420  1.6738  0.3146
  139SAPE    HY15115   3.257   2.527  10.426  2.4873  2.3623 -0.6245
  139SAPE   O3115116   3.237   2.489  10.226 -0.2080 -0.4206 -0.0254
  139SAPE   C3115117   3.258   2.617  10.197 -0.1365  0.3150 -0.1608
  139SAPE   O3215118   3.347   2.689  10.238 -0.1649  1.0505 -0.0540
  139SAPE   C3215119   3.184   2.649  10.064 -0.0821 -0.5428 -0.2737
  139SAPE   H2X15120   3.076   2.664  10.085 -0.3970  0.6222 -2.4698
  139SAPE   H2Y15121   3.180   2.552  10.010 -1.8240 -0.0930 -1.0347
  139SAPE   C2315122   3.275   1.935  10.129 -0.0540 -0.6136  0.2543
  139SAPE   H3R15123   3.217   1.929  10.223  0.3994 -0.9730  0.5123
  139SAPE   H3S15124   3.316   1.832  10.119 -1.0356 -1.0419  0.5255
  139SAPE   C2415125   3.172   1.956  10.025  0.1064  0.0886  1.0565
  139SAPE   H4R15126   3.113   2.049  10.033 -1.6680 -1.0031  1.1196
  139SAPE   H4S15127   3.101   1.873  10.047 -1.9449  1.4033 -0.3120
  139SAPE   C2515128   3.224   1.928   9.885  0.3578  0.9037 -0.4297
  139SAPE   H5R15129   3.252   1.827   9.851  0.0174  1.0562 -1.2011
  139SAPE   C2615130   3.246   2.025   9.799 -0.1825  0.3106 -0.0710
  139SAPE   H6R15131   3.272   1.989   9.699  0.4674  0.0571  0.1831
  139SAPE   C2715132   3.242   2.177   9.815  0.1144  0.3178 -0.4043
  139SAPE   H7R15133   3.337   2.222   9.779  0.0809  0.4974 -0.2702
  139SAPE   H7S15134   3.232   2.206   9.922 -1.5921  2.2478 -1.0206
  139SAPE   C2815135   3.124   2.223   9.729 -0.0293  0.2848 -0.6768
  139SAPE   H8R15136   3.030   2.202   9.781  1.8549 -1.4002  2.2964
  139SAPE   C2915137   3.124   2.291   9.612 -0.4469  1.0076 -0.0222
  139SAPE   H9R15138   3.027   2.325   9.573  0.3790 -0.2050 -3.5012
  139SAPE  C21015139   3.245   2.342   9.539 -0.6871 -0.4663  0.7735
  139SAPE  H10R15140   3.261   2.284   9.445 -0.0780 -0.1064  0.6456
  139SAPE  H10S15141   3.337   2.327   9.601 -0.6580  1.0038  1.1102
  139SAPE  C21115142   3.219   2.488   9.500  0.7238  0.2972  0.3491
  139SAPE  H11R15143   3.189   2.548   9.586 -0.6082  1.2200 -0.7198
  139SAPE  C21215144   3.225   2.543   9.377  0.2189 -0.2576  0.5153
  139SAPE  H12R15145   3.192   2.648   9.375  0.3549 -0.2156  0.4693
  139SAPE  C21315146   3.261   2.468   9.252  0.1290  0.5655 -0.0372
  139SAPE  H13R15147   3.183   2.390   9.241  1.5171 -1.0485  1.0376
  139SAPE  H13S15148   3.358   2.416   9.263  0.1318  0.2272 -1.5013
  139SAPE  C21415149   3.267   2.554   9.127 -0.3897 -0.4735  0.5968
  139SAPE  H14R15150   3.190   2.633   9.125  1.4977  1.4638 -0.4407
  139SAPE  C21515151   3.352   2.551   9.017 -0.0190  0.1170 -0.2218
  139SAPE  H15R15152   3.326   2.625   8.940 -1.1454 -0.7568 -0.7127
  139SAPE  C21615153   3.472   2.460   8.996 -0.4714  0.1658 -0.2189
  139SAPE  H16R15154   3.465   2.377   9.069  1.4522  1.7353  1.8625
  139SAPE  H16S15155   3.555   2.528   9.021 -0.9705  0.3930  0.8809
  139SAPE  C21715156   3.497   2.427   8.846 -0.8430  0.2880 -0.6167
  139SAPE  H17R15157   3.598   2.382   8.847 -0.5643  0.8672 -1.3722
  139SAPE  H17S15158   3.504   2.523   8.791 -0.1283  0.0663 -0.9260
  139SAPE  C21815159   3.393   2.327   8.773  0.8053 -0.6588 -0.5597
  139SAPE  H18R15160   3.380   2.240   8.841 -2.6661  0.3730  0.3119
  139SAPE  H18S15161   3.430   2.294   8.674  1.5064 -0.1498 -0.4749
  139SAPE  C21915162   3.251   2.399   8.745 -0.4257  0.2599  0.3113
  139SAPE  H19R15163   3.260   2.503   8.706 -2.4598  0.5350  0.4849
  139SAPE  H19S15164   3.195   2.401   8.841  1.5589 -1.1491  1.5675
  139SAPE  C22015165   3.167   2.314   8.647 -0.3392 -0.0350 -0.1100
  139SAPE  H20R15166   3.215   2.295   8.549  0.2394 -1.5163  0.4242
  139SAPE  H20S15167   3.088   2.385   8.616 -1.7696 -1.0627  1.0026
  139SAPE  H20T15168   3.136   2.215   8.686 -0.2324 -0.6276 -1.4747
  139SAPE   C3315169   3.237   2.764   9.974 -0.5837 -0.1338 -0.4109
  139SAPE   H3X15170   3.345   2.742   9.960 -0.3225  0.7445  0.1701
  139SAPE   H3Y15171   3.242   2.861  10.029  1.0534  0.3875 -1.4163
  139SAPE   C3415172   3.167   2.781   9.836  0.4350  0.0689  0.6554
  139SAPE   H4X15173   3.072   2.836   9.857  0.7062  0.0143  2.1226
  139SAPE   H4Y15174   3.138   2.686   9.785  0.0491  1.2224 -1.3961
  139SAPE   C3515175   3.249   2.859   9.726 -0.7578 -0.2194  0.3511
  139SAPE   H5X15176   3.348   2.808   9.723  0.4801  1.9846  1.2040
  139SAPE   H5Y15177   3.282   2.958   9.764  2.4794 -1.5871  1.4185
  139SAPE   C3615178   3.193   2.874   9.582  0.6799 -0.0983  0.1386
  139SAPE   H6X15179   3.102   2.936   9.593 -0.1539 -1.5364  1.9582
  139SAPE   H6Y15180   3.156   2.778   9.541  1.4601  0.5638 -2.2262
  139SAPE   C3715181   3.290   2.943   9.486  0.3804 -0.4329  0.2472
  139SAPE   H7X15182   3.366   2.867   9.460 -2.9286 -3.7874 -0.5707
  139SAPE   H7Y15183   3.336   3.037   9.524  1.8472  0.1107 -2.5618
  139SAPE   C3815184   3.226   2.981   9.350 -0.2573  0.3675  0.5286
  139SAPE   H8X15185   3.157   3.068   9.358 -0.2510  0.8044 -2.6021
  139SAPE   H8Y15186   3.156   2.901   9.317  0.1906 -0.3286  1.2197
  139SAPE   C3915187   3.333   3.023   9.244 -0.9166 -0.6654 -0.5123
  139SAPE   H9X15188   3.409   2.944   9.230 -2.1617 -2.0710  0.2967
  139SAPE   H9Y15189   3.381   3.115   9.284  0.2761 -1.1788 -0.7307
  139SAPE  C31015190   3.282   3.048   9.107  0.5939 -0.1716 -0.1552
  139SAPE  H10X15191   3.202   3.123   9.123  0.0418 -0.9527  0.9409
  139SAPE  H10Y15192   3.240   2.954   9.065  0.0162  0.5732 -1.3033
  139SAPE  C31115193   3.385   3.111   9.008 -0.5326  0.4670 -0.3688
  139SAPE  H11X15194   3.460   3.030   8.994 -0.7437  0.1105  0.5299
  139SAPE  H11Y15195   3.438   3.197   9.055  0.0268  0.1151 -0.3439
  139SAPE  C31215196   3.326   3.156   8.881  0.5111  0.0757  0.2458
  139SAPE  H12X15197   3.393   3.234   8.837  0.4522 -0.9978 -1.8932
  139SAPE  H12Y15198   3.228   3.204   8.904  1.3777  0.7077  2.9233
  139SAPE  C31315199   3.326   3.044   8.769  0.5205 -0.6494  1.0282
  139SAPE  H13X15200   3.244   3.087   8.707  0.6049  1.5148  2.3353
  139SAPE  H13Y15201   3.269   2.957   8.810 -2.8487  0.8731 -0.0552
  139SAPE  C31415202   3.465   3.021   8.705  0.2772 -0.1931  0.1535
  139SAPE  H14X15203   3.532   2.981   8.784  1.6445 -0.0207 -0.8771
  139SAPE  H14Y15204   3.511   3.116   8.670  0.8319 -0.9423 -1.2253
  139SAPE  C31515205   3.440   2.926   8.586  0.1452 -0.2249  0.7253
  139SAPE  H15X15206   3.535   2.930   8.529  0.4002  0.3051  1.1802
  139SAPE  H15Y15207   3.365   2.973   8.519  1.2466 -0.1920 -0.5032
  139SAPE  C31615208   3.399   2.783   8.615  0.8872 -0.3582 -0.3726
  139SAPE  H16X15209   3.474   2.747   8.689 -0.6756 -1.1667  0.8893
  139SAPE  H16Y15210   3.298   2.781   8.659  1.6202  1.2976  1.5313
  139SAPE  C31715211   3.396   2.687   8.496 -0.4248  0.6229 -0.3497
  139SAPE  H17X15212   3.347   2.593   8.528 -0.5229  0.6174 -0.5209
  139SAPE  H17Y15213   3.500   2.654   8.472 -0.6013  0.2203 -0.5532
  139SAPE  C31815214   3.315   2.718   8.372 -0.5227 -0.3974  0.7841
  139SAPE  H18X15215   3.348   2.815   8.327  0.5920  0.2304  2.8571
  139SAPE  H18Y15216   3.208   2.735   8.400 -0.4957  1.1953  0.0393
  139SAPE  H18Z15217   3.322   2.639   8.294 -1.6558  0.2585 -0.0177
  140SAPE     N15218   4.534   0.437  10.683 -0.1459  0.0910  0.1761
  140SAPE   HN115219   4.483   0.518  10.641 -1.9910 -1.4286 -0.6265
  140SAPE   HN215220   4.581   0.463  10.772 -0.7809 -3.4475  1.7025
  140SAPE   HN315221   4.600   0.407  10.608  1.9807  2.3621  0.9787
  140SAPE   C1215222   4.434   0.330  10.707  0.6440 -0.0474  0.3192
  140SAPE  H12A15223   4.417   0.285  10.607 -0.5419  0.9202  0.0650
  140SAPE  H12B15224   4.337   0.366  10.746  1.2844  0.1413  1.8006
  140SAPE   C1115225   4.486   0.225  10.805  0.5459 -0.1245 -0.2931
  140SAPE  H11A15226   4.419   0.137  10.805 -1.1456  1.1005 -1.1452
  140SAPE  H11B15227   4.499   0.266  10.907 -0.6383 -0.3108 -0.0568
  140SAPE     P15228   4.685   0.070  10.838 -0.0714  0.1442  0.3372
  140SAPE   O1315229   4.824   0.060  10.786  0.1579  0.2405  0.3653
  140SAPE   O1415230   4.659   0.098  10.978 -0.8394  0.3564  0.0258
  140SAPE   O1215231   4.611   0.171  10.751  0.4766 -0.0731  0.2076
  140SAPE   O1115232   4.610  -0.057  10.793  0.1822  0.4276  0.8748
  140SAPE    C115233   4.652  -0.156  10.701 -0.6238 -0.6408  0.3486
  140SAPE    HA15234   4.760  -0.179  10.708 -0.8219 -1.2083  1.7771
  140SAPE    HB15235   4.604  -0.254  10.722 -0.6227 -0.4636  1.2243
  140SAPE    C215236   4.638  -0.102  10.555  0.1467 -0.2188  0.6377
  140SAPE    HS15237   4.696  -0.007  10.553  0.5278 -0.4674 -0.5246
  140SAPE   O2115238   4.498  -0.077  10.517 -0.2945  0.2037 -0.3498
  140SAPE   C2115239   4.462   0.036  10.459 -0.1257  0.0718  0.2863
  140SAPE   O2215240   4.537   0.129  10.437  0.6753 -0.2157 -0.6345
  140SAPE   C2215241   4.326   0.021  10.399 -0.4241  1.1519  0.7862
  140SAPE   H2R15242   4.338  -0.024  10.298 -0.1501  3.3256 -0.2216
  140SAPE   H2S15243   4.262  -0.052  10.454 -0.0329  0.6788  0.6195
  140SAPE    C315244   4.720  -0.194  10.448 -0.0202 -0.5327 -0.1596
  140SAPE    HX15245   4.673  -0.295  10.455  0.0025 -0.4674  1.1591
  140SAPE    HY15246   4.823  -0.199  10.490 -0.0264  0.2486 -0.0433
  140SAPE   O3115247   4.696  -0.133  10.314 -0.2105 -0.3575 -0.2978
  140SAPE   C3115248   4.788  -0.040  10.280  0.5894 -0.2119  0.4445
  140SAPE   O3215249   4.894  -0.019  10.346  0.0830 -0.5009 -0.3025
  140SAPE   C3215250   4.751   0.020  10.147 -0.2255 -0.1783  0.4590
  140SAPE   H2X15251   4.648  -0.014  10.123 -0.7409  1.0107  0.8668
  140SAPE   H2Y15252   4.819  -0.026  10.073  1.1733  3.4596 -0.7178
  140SAPE   C2315253   4.241   0.152  10.405 -0.7539 -0.3057 -0.0931
  140SAPE   H3R15254   4.217   0.185  10.508 -0.6646  1.3228 -0.5668
  140SAPE   H3S15255   4.137   0.139  10.367 -1.0893 -1.8094  1.2216
  140SAPE   C2415256   4.298   0.258  10.307 -0.3014 -0.2392 -0.2728
  140SAPE   H4R15257   4.324   0.215  10.207 -0.2654  0.4037 -0.5412
  140SAPE   H4S15258   4.396   0.282  10.352  0.3045 -0.8884 -1.1947
  140SAPE   C2515259   4.216   0.380  10.302  0.9616  0.0505 -0.5201
  140SAPE   H5R15260   4.158   0.388  10.395  1.1328 -0.5143 -0.3563
  140SAPE   C2615261   4.201   0.468  10.205 -1.2102  0.0710  0.4301
  140SAPE   H6R15262   4.120   0.542  10.215 -0.5413  1.0042 -0.7383
  140SAPE   C2715263   4.284   0.466  10.081  0.1823  0.0003  0.6167
  140SAPE   H7R15264   4.345   0.373  10.076  0.2197 -0.0473  1.7000
  140SAPE   H7S15265   4.346   0.558  10.081 -0.5591  0.5173 -0.3236
  140SAPE   C2815266   4.196   0.467   9.955  0.4968  0.5481  0.6207
  140SAPE   H8R15267   4.092   0.434   9.970  0.7444 -0.1225  0.9443
  140SAPE   C2915268   4.227   0.504   9.829 -0.3622 -0.3449  0.3953
  140SAPE   H9R15269   4.153   0.495   9.748  2.9204  1.9232 -3.1899
  140SAPE  C21015270   4.360   0.552   9.784  0.0951 -0.1895  0.4432
  140SAPE  H10R15271   4.422   0.467   9.750  1.0148  1.1007 -1.2453
  140SAPE  H10S15272   4.418   0.596   9.868  0.2350  1.3153 -0.3873
  140SAPE  C21115273   4.354   0.659   9.677 -0.0251 -0.2148  0.6924
  140SAPE  H11R15274   4.336   0.758   9.721  0.7102 -0.0127  0.5433
  140SAPE  C21215275   4.348   0.655   9.543 -0.8969 -0.1609 -0.0959
  140SAPE  H12R15276   4.341   0.755   9.496 -2.7373  0.2043  0.8489
  140SAPE  C21315277   4.346   0.533   9.461  0.3619 -0.2626  0.3365
  140SAPE  H13R15278   4.362   0.446   9.527  2.9880  0.0921  0.2823
  140SAPE  H13S15279   4.430   0.536   9.389 -0.5541  1.1096 -0.7370
  140SAPE  C21415280   4.209   0.530   9.386 -0.3782  0.3855 -0.8526
  140SAPE  H14R15281   4.131   0.490   9.452  1.2664 -0.2535  0.8081
  140SAPE  C21515282   4.187   0.545   9.257 -0.0802 -0.0580 -1.1438
  140SAPE  H15R15283   4.084   0.523   9.225 -0.9056  0.8260  0.7296
  140SAPE  C21615284   4.283   0.591   9.145 -0.4352 -0.2825 -0.0889
  140SAPE  H16R15285   4.390   0.565   9.163  0.2074  1.5196 -1.0433
  140SAPE  H16S15286   4.279   0.702   9.152  0.5824 -0.3190  1.6923
  140SAPE  C21715287   4.250   0.529   9.009 -0.2435  0.0293  0.4215
  140SAPE  H17R15288   4.148   0.552   8.970 -0.1436  3.0330  1.6598
  140SAPE  H17S15289   4.251   0.418   9.018  0.7509  0.0452  0.6052
  140SAPE  C21815290   4.359   0.557   8.902 -0.5189  0.0127  0.3820
  140SAPE  H18R15291   4.451   0.536   8.959  1.2479  2.5084 -1.3393
  140SAPE  H18S15292   4.359   0.668   8.894  1.2922 -0.0982 -2.2931
  140SAPE  C21915293   4.335   0.480   8.770  0.0689 -0.1191 -0.4397
  140SAPE  H19R15294   4.280   0.385   8.786  0.5807 -0.1144  1.7453
  140SAPE  H19S15295   4.437   0.451   8.735  0.7686  1.2003  0.4068
  140SAPE  C22015296   4.266   0.564   8.660 -0.0504  0.5570  0.3075
  140SAPE  H20R15297   4.262   0.499   8.570  0.6921  1.1162 -0.1394
  140SAPE  H20S15298   4.330   0.652   8.637 -2.1743  2.1123  0.0234
  140SAPE  H20T15299   4.167   0.599   8.697 -1.3040 -1.0532 -1.3324
  140SAPE   C3315300   4.770   0.175  10.147  0.9158 -0.1965  0.0242
  140SAPE   H3X15301   4.874   0.212  10.139  1.1259 -1.0979 -1.8757
  140SAPE   H3Y15302   4.723   0.223  10.236  0.8773 -1.7769  0.8972
  140SAPE   C3415303   4.685   0.239  10.033  0.1124 -0.4935  0.1137
  140SAPE   H4X15304   4.689   0.348  10.053  2.6102 -0.4420 -0.2582
  140SAPE   H4Y15305   4.579   0.208  10.038  0.0599 -0.4012 -0.3907
  140SAPE   C3515306   4.726   0.211   9.888 -0.1638 -0.0858 -0.4841
  140SAPE   H5X15307   4.708   0.103   9.872 -0.6671 -0.0965  0.0883
  140SAPE   H5Y15308   4.836   0.228   9.889 -0.1884  0.0671  0.2627
  140SAPE   C3615309   4.666   0.302   9.779 -0.2146 -0.2375  0.2284
  140SAPE   H6X15310   4.665   0.411   9.797  0.5255 -0.2467  0.3425
  140SAPE   H6Y15311   4.561   0.265   9.770  0.5276 -2.3049 -0.5902
  140SAPE   C3715312   4.731   0.261   9.644 -0.0551  0.3890 -0.5561
  140SAPE   H7X15313   4.742   0.151   9.647 -0.4116  0.3790  0.4976
  140SAPE   H7Y15314   4.827   0.316   9.631  0.0066  0.0497 -1.7178
  140SAPE   C3815315   4.646   0.298   9.525 -0.5000  0.9161 -0.7404
  140SAPE   H8X15316   4.622   0.406   9.526  1.3915  1.3738  0.7798
  140SAPE   H8Y15317   4.547   0.248   9.537  0.5978 -0.9745  1.1868
  140SAPE   C3915318   4.709   0.266   9.392 -0.0612 -0.1013  0.1216
  140SAPE   H9X15319   4.757   0.167   9.401 -0.2216 -0.0976  1.1533
  140SAPE   H9Y15320   4.781   0.345   9.362 -0.4855 -0.4077 -1.8868
  140SAPE  C31015321   4.604   0.248   9.271 -0.5137  0.2579 -1.2091
  140SAPE  H10X15322   4.536   0.337   9.270  0.0056  0.6999  0.0262
  140SAPE  H10Y15323   4.542   0.162   9.304  0.0303  0.6584  1.0840
  140SAPE  C31115324   4.656   0.216   9.140 -0.6609 -0.1571  0.5335
  140SAPE  H11X15325   4.585   0.146   9.090  0.5235  0.1545 -1.7611
  140SAPE  H11Y15326   4.758   0.172   9.143  0.2074  1.7715  0.5587
  140SAPE  C31215327   4.669   0.340   9.046  0.0415  0.5746  0.2056
  140SAPE  H12X15328   4.748   0.399   9.098 -1.6950  0.9499  2.5558
  140SAPE  H12Y15329   4.570   0.391   9.043  0.3043  1.0805 -0.2391
  140SAPE  C31315330   4.709   0.308   8.902 -0.0138  0.2756 -0.6382
  140SAPE  H13X15331   4.628   0.246   8.856  0.2522 -0.5859  0.0310
  140SAPE  H13Y15332   4.797   0.240   8.897  0.6045  0.6240  2.8203
  140SAPE  C31415333   4.740   0.437   8.834  0.0039  0.0458  0.4656
  140SAPE  H14X15334   4.823   0.490   8.885 -0.5318  2.8198 -1.3415
  140SAPE  H14Y15335   4.658   0.512   8.838  0.0721  0.2375 -1.0346
  140SAPE  C31515336   4.786   0.433   8.687 -0.5824 -0.8513 -0.2615
  140SAPE  H15X15337   4.703   0.386   8.631 -1.1262  2.3409 -2.3881
  140SAPE  H15Y15338   4.868   0.359   8.674 -2.1651 -2.5110 -1.2801
  140SAPE  C31615339   4.830   0.565   8.622  0.0974  0.1597 -0.5443
  140SAPE  H16X15340   4.918   0.605   8.677 -1.0396 -1.4913  2.7467
  140SAPE  H16Y15341   4.752   0.638   8.652  0.7392  0.1659  1.2400
  140SAPE  C31715342   4.855   0.547   8.472  0.0272  0.3998 -0.0983
  140SAPE  H17X15343   4.937   0.479   8.440 -0.9571 -0.2293 -1.3311
  140SAPE  H17Y15344   4.882   0.647   8.431  0.6447  0.7694  1.1451
  140SAPE  C31815345   4.727   0.501   8.405 -0.6525  0.2735 -0.0930
  140SAPE  H18X15346   4.735   0.503   8.294 -0.6609  0.1951 -0.0948
  140SAPE  H18Y15347   4.631   0.552   8.429 -1.4346 -0.8837 -0.6657
  140SAPE  H18Z15348   4.708   0.393   8.424 -1.1677  0.2183 -0.8669
  141SAPE     N15349   4.269   1.390  10.691  0.3447 -0.2146  0.5882
  141SAPE   HN115350   4.263   1.491  10.712  0.9769 -0.4592  2.0540
  141SAPE   HN215351   4.290   1.336  10.777 -2.7248 -0.4312  1.3333
  141SAPE   HN315352   4.351   1.364  10.633 -0.1998  0.0434 -0.3145
  141SAPE   C1215353   4.137   1.352  10.631  0.3192  0.1557  0.2816
  141SAPE  H12A15354   4.139   1.244  10.605 -0.2597 -0.1244  1.3348
  141SAPE  H12B15355   4.135   1.405  10.533 -1.9435  1.3335  0.9069
  141SAPE   C1115356   4.024   1.402  10.719  0.0952 -0.2388 -0.0664
  141SAPE  H11A15357   3.928   1.374  10.670 -0.4217 -2.9257  2.1975
  141SAPE  H11B15358   4.021   1.511  10.740 -2.2004 -0.5072  1.3691
  141SAPE     P15359   3.940   1.198  10.872 -0.1394  0.1433 -0.1956
  141SAPE   O1315360   4.039   1.102  10.915  0.0003  0.3725  0.4489
  141SAPE   O1415361   3.826   1.233  10.962 -0.5739  0.2751  0.6693
  141SAPE   O1215362   4.019   1.334  10.842 -0.3220 -0.2950  0.8047
  141SAPE   O1115363   3.875   1.162  10.733 -0.1186  0.5974 -0.6362
  141SAPE    C115364   3.738   1.188  10.692  0.3736  0.1122  0.5539
  141SAPE    HA15365   3.671   1.136  10.763  0.9000 -1.9335 -0.3507
  141SAPE    HB15366   3.721   1.297  10.702  1.2105  0.1284  2.1882
  141SAPE    C215367   3.708   1.142  10.548 -0.0230  0.6932  0.2021
  141SAPE    HS15368   3.754   1.041  10.549  0.1335  0.7665  0.9781
  141SAPE   O2115369   3.768   1.229  10.462 -0.6547 -0.2971 -0.7163
  141SAPE   C2115370   3.805   1.188  10.346  0.4470 -0.2472 -0.7125
  141SAPE   O2215371   3.766   1.087  10.296 -0.2908 -0.1468  0.8320
  141SAPE   C2215372   3.917   1.281  10.295  0.4669 -0.2409 -0.4637
  141SAPE   H2R15373   3.967   1.343  10.373 -0.3458 -0.1127 -0.0334
  141SAPE   H2S15374   3.994   1.206  10.267  0.2202 -0.0181 -1.8022
  141SAPE    C315375   3.550   1.126  10.529 -0.1223  0.1163  0.1103
  141SAPE    HX15376   3.503   1.225  10.546  1.0294  1.1930 -2.4321
  141SAPE    HY15377   3.513   1.062  10.611 -1.9529  1.2129  0.1981
  141SAPE   O3115378   3.518   1.065  10.399 -0.1982  0.3733 -0.4055
  141SAPE   C3115379   3.539   0.928  10.397  0.1369  0.2670 -0.6120
  141SAPE   O3215380   3.563   0.863  10.496  0.0995  0.1851 -0.8905
  141SAPE   C3215381   3.528   0.874  10.257 -0.2676 -0.2190 -1.1400
  141SAPE   H2X15382   3.611   0.922  10.200 -1.3596  0.9660 -1.7921
  141SAPE   H2Y15383   3.433   0.915  10.216 -0.7998 -2.8717 -2.7908
  141SAPE   C2315384   3.885   1.372  10.172 -0.2040 -0.0170  0.3018
  141SAPE   H3R15385   3.803   1.438  10.207 -0.8031 -0.5833 -0.0102
  141SAPE   H3S15386   3.846   1.306  10.090 -2.5212  3.4281 -1.6289
  141SAPE   C2415387   4.011   1.449  10.127  0.0186  0.3064  0.0180
  141SAPE   H4R15388   4.080   1.366  10.103  0.5181  0.6135  0.3632
  141SAPE   H4S15389   4.047   1.496  10.221  0.3524  0.5194 -0.2102
  141SAPE   C2515390   3.974   1.547  10.021 -0.3727 -0.1096 -0.3929
  141SAPE   H5R15391   3.945   1.648  10.052 -2.5522 -0.2707 -1.7085
  141SAPE   C2615392   3.972   1.513   9.888  0.5619  0.5065  0.4417
  141SAPE   H6R15393   3.943   1.596   9.822 -0.5844 -0.9075 -0.9087
  141SAPE   C2715394   4.004   1.381   9.818  0.3143  0.3102  0.0134
  141SAPE   H7R15395   3.920   1.351   9.751  3.2400 -1.0933 -3.3875
  141SAPE   H7S15396   3.989   1.295   9.887 -2.7836  0.3324 -0.4694
  141SAPE   C2815397   4.134   1.370   9.740 -0.2854  0.3654  0.0020
  141SAPE   H8R15398   4.223   1.400   9.796  0.0699  0.8199 -0.7854
  141SAPE   C2915399   4.148   1.344   9.607 -0.1929 -0.4269 -0.6039
  141SAPE   H9R15400   4.246   1.360   9.559  0.0015  0.0626 -0.0657
  141SAPE  C21015401   4.037   1.305   9.519 -0.1273  0.0292  0.3251
  141SAPE  H10R15402   3.983   1.217   9.561  1.1366 -0.0929  1.7933
  141SAPE  H10S15403   4.081   1.260   9.428  2.6740 -1.0782  2.1018
  141SAPE  C21115404   3.927   1.406   9.476  0.0015  0.5757 -1.4311
  141SAPE  H11R15405   3.888   1.462   9.562 -0.7872  1.3419 -2.2686
  141SAPE  C21215406   3.875   1.425   9.358 -0.0390 -0.6598 -0.1842
  141SAPE  H12R15407   3.804   1.509   9.359 -0.6462 -1.0892  2.7443
  141SAPE  C21315408   3.897   1.355   9.225  0.3657  0.5887  0.3669
  141SAPE  H13R15409   3.906   1.245   9.241  0.9849  0.7465  1.1538
  141SAPE  H13S15410   3.984   1.407   9.180 -1.2580 -0.0663 -4.0165
  141SAPE  C21415411   3.776   1.358   9.131 -0.7102 -0.6688  0.0632
  141SAPE  H14R15412   3.676   1.355   9.176 -1.1905 -0.0662 -0.9391
  141SAPE  C21515413   3.783   1.356   8.997  0.4780 -0.6149  0.3028
  141SAPE  H15R15414   3.685   1.357   8.947  0.3922 -3.3448  0.2836
  141SAPE  C21615415   3.904   1.346   8.905 -0.7269 -0.6972  0.8016
  141SAPE  H16R15416   3.913   1.247   8.855  0.4318 -1.7580  2.9450
  141SAPE  H16S15417   3.997   1.359   8.964 -0.8887  0.2189  0.8693
  141SAPE  C21715418   3.908   1.457   8.803  0.6872  0.2521 -0.4098
  141SAPE  H17R15419   3.923   1.558   8.846  2.1928  0.7948 -2.0845
  141SAPE  H17S15420   3.809   1.460   8.752 -1.0699  0.8991  2.7637
  141SAPE  C21815421   4.014   1.434   8.687 -0.3962 -0.2374  0.7767
  141SAPE  H18R15422   3.987   1.356   8.612  1.2385 -0.0947 -0.0021
  141SAPE  H18S15423   4.104   1.390   8.735  0.1263 -0.2117 -0.1456
  141SAPE  C21915424   4.060   1.564   8.615  0.3164  0.4650 -0.6144
  141SAPE  H19R15425   4.088   1.637   8.694 -0.9540 -0.4732  0.7760
  141SAPE  H19S15426   3.961   1.603   8.585 -0.7796 -1.3771  0.3890
  141SAPE  C22015427   4.156   1.540   8.499  0.1318 -0.3062  0.3387
  141SAPE  H20R15428   4.188   1.435   8.486 -1.4731 -0.9433  1.2995
  141SAPE  H20S15429   4.251   1.599   8.500  0.5080 -0.9028  0.3609
  141SAPE  H20T15430   4.092   1.565   8.412  1.1743  1.8888  0.1192
  141SAPE   C3315431   3.524   0.724  10.254 -0.0479  0.3408  0.7127
  141SAPE   H3X15432   3.424   0.694  10.294  0.2714  1.2968  2.3420
  141SAPE   H3Y15433   3.594   0.672  10.324 -1.2243 -1.7326  0.4390
  141SAPE   C3415434   3.533   0.674  10.106 -0.2926  0.1026  0.6817
  141SAPE   H4X15435   3.532   0.563  10.098  2.2566 -0.0879  1.7594
  141SAPE   H4Y15436   3.625   0.719  10.063 -2.8662  2.3310 -3.0724
  141SAPE   C3515437   3.424   0.730  10.021 -0.0530 -0.3043  0.3645
  141SAPE   H5X15438   3.438   0.838  10.000  5.3360 -0.7493  0.2633
  141SAPE   H5Y15439   3.328   0.716  10.075  0.2123 -0.0939  0.9095
  141SAPE   C3615440   3.416   0.657   9.881  0.2630 -0.4307  0.5816
  141SAPE   H6X15441   3.362   0.562   9.895 -2.6668  1.2611  1.6841
  141SAPE   H6Y15442   3.517   0.625   9.848  0.4196  0.1549  0.4712
  141SAPE   C3715443   3.330   0.723   9.767 -0.4851  0.7304 -0.0785
  141SAPE   H7X15444   3.360   0.828   9.747  0.0515  0.6758  0.4167
  141SAPE   H7Y15445   3.228   0.720   9.810 -0.9651  3.6472 -0.8328
  141SAPE   C3815446   3.328   0.644   9.634 -0.6057  0.3261 -0.5364
  141SAPE   H8X15447   3.243   0.687   9.577 -1.4712  0.4831  0.8242
  141SAPE   H8Y15448   3.311   0.534   9.644 -0.8361  0.0607 -3.2138
  141SAPE   C3915449   3.458   0.668   9.553  0.3862  0.0492 -0.2728
  141SAPE   H9X15450   3.543   0.659   9.623  0.1888 -1.6900 -0.2229
  141SAPE   H9Y15451   3.454   0.774   9.520  0.3687  0.9827  2.4534
  141SAPE  C31015452   3.460   0.591   9.424  0.1348 -0.2100  0.1724
  141SAPE  H10X15453   3.372   0.616   9.362 -0.2093 -0.3029  0.6197
  141SAPE  H10Y15454   3.463   0.484   9.454 -0.8670 -0.6533 -1.2005
  141SAPE  C31115455   3.590   0.623   9.350  0.1292 -0.4986  0.3443
  141SAPE  H11X15456   3.676   0.588   9.411 -0.7008  0.7533  2.3364
  141SAPE  H11Y15457   3.592   0.730   9.319  1.5716 -1.2746 -2.6131
  141SAPE  C31215458   3.597   0.556   9.215  0.6308  0.1184 -0.4371
  141SAPE  H12X15459   3.669   0.616   9.155 -1.4209  0.8096 -2.3911
  141SAPE  H12Y15460   3.499   0.572   9.164  0.3019 -1.0479 -0.2112
  141SAPE  C31315461   3.628   0.409   9.237  0.3474 -0.0412  0.4676
  141SAPE  H13X15462   3.542   0.362   9.288 -1.6174  0.9042 -1.7763
  141SAPE  H13Y15463   3.720   0.395   9.298  1.2435 -0.2322 -0.8841
  141SAPE  C31415464   3.653   0.317   9.114  0.0808  0.0870  0.0461
  141SAPE  H14X15465   3.687   0.216   9.143 -1.0235 -0.1018  0.7359
  141SAPE  H14Y15466   3.731   0.364   9.050  0.2958  0.0583  0.2862
  141SAPE  C31515467   3.524   0.288   9.055 -0.1356 -1.1905  1.2769
  141SAPE  H15X15468   3.489   0.389   9.023 -0.8052 -2.2194 -1.4728
  141SAPE  H15Y15469   3.446   0.244   9.122 -0.1595 -2.7835  0.2573
  141SAPE  C31615470   3.528   0.203   8.928  0.5296 -1.1454 -0.2818
  141SAPE  H16X15471   3.530   0.094   8.951  0.5242 -0.7661  1.7099
  141SAPE  H16Y15472   3.621   0.238   8.878 -2.0943  4.3049 -2.0985
  141SAPE  C31715473   3.400   0.226   8.838 -0.5467 -0.5660  0.5137
  141SAPE  H17X15474   3.422   0.166   8.747  0.4324 -0.2554  0.5318
  141SAPE  H17Y15475   3.393   0.334   8.815  1.2767 -0.4515  0.3540
  141SAPE  C31815476   3.270   0.188   8.906 -0.0945 -0.4657  0.2145
  141SAPE  H18X15477   3.173   0.191   8.850 -2.0353  2.0366  3.3390
  141SAPE  H18Y15478   3.259   0.244   9.001  0.1386 -0.0533  0.0017
  141SAPE  H18Z15479   3.282   0.082   8.935  2.8049 -0.7894 -1.8159
  142SAPE     N15480   6.275   1.080  10.929 -0.0786 -0.3087 -0.4754
  142SAPE   HN115481   6.251   0.990  10.977 -0.6103  0.3160  0.4499
  142SAPE   HN215482   6.342   1.131  10.990  1.3246 -2.4845 -0.0633
  142SAPE   HN315483   6.200   1.151  10.927  2.1687  2.2044 -1.1488
  142SAPE   C1215484   6.326   1.052  10.790  0.1723  0.0276 -0.3214
  142SAPE  H12A15485   6.377   0.954  10.794 -0.5915 -0.3681 -0.0870
  142SAPE  H12B15486   6.392   1.139  10.773 -1.2186  1.5595  1.6200
  142SAPE   C1115487   6.206   1.035  10.691 -0.4270 -0.4376 -0.3944
  142SAPE  H11A15488   6.246   0.976  10.606  0.2787  0.3230 -0.5971
  142SAPE  H11B15489   6.177   1.132  10.645  1.1682 -0.9537 -2.6516
  142SAPE     P15490   6.097   0.823  10.805  0.0937  0.2896 -0.3861
  142SAPE   O1315491   6.192   0.813  10.920  0.6355  0.1997 -0.4184
  142SAPE   O1415492   5.957   0.786  10.833 -0.6785 -0.4926  0.3798
  142SAPE   O1215493   6.098   0.970  10.753 -0.1076  0.2917 -0.0467
  142SAPE   O1115494   6.146   0.730  10.684 -0.4061  0.0156  0.0344
  142SAPE    C115495   6.079   0.731  10.554  0.7414  0.0940 -0.4105
  142SAPE    HA15496   6.017   0.821  10.538 -2.7085 -1.8931  0.7119
  142SAPE    HB15497   6.166   0.738  10.485 -0.2237  0.3784 -1.6225
  142SAPE    C215498   5.990   0.602  10.527  0.3659 -0.4494 -0.3813
  142SAPE    HS15499   5.957   0.564  10.626 -1.9742  1.5253 -0.3196
  142SAPE   O2115500   6.087   0.510  10.469  0.4982  0.4518  0.3257
  142SAPE   C2115501   6.058   0.377  10.492  0.7353 -0.3120  0.3405
  142SAPE   O2215502   5.968   0.325  10.554 -0.0171 -0.1806 -0.6388
  142SAPE   C2215503   6.164   0.297  10.413 -0.2273 -0.9257 -0.2393
  142SAPE   H2R15504   6.257   0.354  10.392 -1.1241  1.4424  1.7288
  142SAPE   H2S15505   6.192   0.206  10.472  1.5104  0.0875  0.5809
  142SAPE    C315506   5.870   0.638  10.432 -0.0697  0.6008 -0.1161
  142SAPE    HX15507   5.812   0.715  10.487 -1.8287 -0.2483 -0.7018
  142SAPE    HY15508   5.804   0.549  10.432  0.1055  0.4450  1.3566
  142SAPE   O3115509   5.918   0.694  10.310 -0.3088 -0.0018  0.1879
  142SAPE   C3115510   5.916   0.612  10.207  0.2497  0.3552  0.5101
  142SAPE   O3215511   5.888   0.492  10.214  0.4399  0.3751  0.2661
  142SAPE   C3215512   5.946   0.682  10.073 -0.0332  0.2184 -0.0976
  142SAPE   H2X15513   6.056   0.696  10.066  0.0711 -0.3411  0.3220
  142SAPE   H2Y15514   5.895   0.780  10.082 -1.0873 -0.3043 -0.1192
  142SAPE   C2315515   6.099   0.245  10.289  0.1872 -0.9496  0.7242
  142SAPE   H3R15516   6.046   0.328  10.238 -0.0254 -1.5958 -0.1237
  142SAPE   H3S15517   6.020   0.171  10.314  1.0441 -2.4905 -0.9302
  142SAPE   C2415518   6.197   0.194  10.181  0.1987 -0.1665 -0.6839
  142SAPE   H4R15519   6.267   0.279  10.163 -0.2242  0.1021 -1.0682
  142SAPE   H4S15520   6.141   0.165  10.090 -1.0624 -2.8230  0.8123
  142SAPE   C2515521   6.272   0.077  10.241 -0.0523  0.3019  0.0184
  142SAPE   H5R15522   6.292   0.084  10.349 -0.7799 -1.9869  0.3580
  142SAPE   C2615523   6.310  -0.037  10.182  0.1490  0.4736  1.0402
  142SAPE   H6R15524   6.355  -0.114  10.246 -1.0793 -0.6261  0.6256
  142SAPE   C2715525   6.301  -0.073  10.037  0.0389  0.0102 -0.4625
  142SAPE   H7R15526   6.200  -0.119  10.031  1.0155 -2.5351  1.1363
  142SAPE   H7S15527   6.375  -0.153  10.012 -1.3755 -1.3520 -0.4875
  142SAPE   C2815528   6.331   0.034   9.936 -0.2039  0.5478  0.4398
  142SAPE   H8R15529   6.396   0.113   9.977  0.0715  1.4748 -1.6502
  142SAPE   C2915530   6.309   0.019   9.802  0.3580  0.7431  0.2032
  142SAPE   H9R15531   6.338   0.097   9.730 -0.2989  1.5985  0.8426
  142SAPE  C21015532   6.239  -0.090   9.724 -0.5433 -1.1242 -0.0745
  142SAPE  H10R15533   6.170  -0.051   9.647 -1.3109 -0.1636  1.0678
  142SAPE  H10S15534   6.176  -0.150   9.794 -0.7533 -0.7495  0.0601
  142SAPE  C21115535   6.339  -0.187   9.666  0.0165 -0.6548 -0.1041
  142SAPE  H11R15536   6.405  -0.229   9.744  0.1466 -0.2294  0.0145
  142SAPE  C21215537   6.338  -0.228   9.540  0.9344 -0.1963  0.1482
  142SAPE  H12R15538   6.419  -0.295   9.507  0.4812  0.2848 -2.1054
  142SAPE  C21315539   6.246  -0.193   9.425  0.1124 -0.6266 -0.3464
  142SAPE  H13R15540   6.149  -0.183   9.479 -0.4644  1.9524 -1.7086
  142SAPE  H13S15541   6.245  -0.275   9.350 -1.4242  0.3142 -1.4181
  142SAPE  C21415542   6.270  -0.060   9.357  0.1092  0.0157  0.5255
  142SAPE  H14R15543   6.289   0.026   9.424 -1.3287  1.4147 -0.7873
  142SAPE  C21515544   6.266  -0.029   9.227 -0.9291  0.2632  0.5795
  142SAPE  H15R15545   6.294   0.072   9.192  1.4770 -0.4099  0.3521
  142SAPE  C21615546   6.249  -0.123   9.113  0.5874 -0.4336 -0.0990
  142SAPE  H16R15547   6.199  -0.219   9.140 -1.6029  0.7994  0.4415
  142SAPE  H16S15548   6.348  -0.153   9.071  0.3772 -0.2014 -0.7708
  142SAPE  C21715549   6.166  -0.080   8.993 -0.6895 -0.2611 -0.0934
  142SAPE  H17R15550   6.223   0.007   8.955  1.5440 -0.5511  2.3048
  142SAPE  H17S15551   6.068  -0.036   9.023 -0.8253 -1.3790  1.2201
  142SAPE  C21815552   6.157  -0.190   8.887 -0.2998 -0.1856 -0.6342
  142SAPE  H18R15553   6.148  -0.292   8.931 -1.0261  1.3379  3.0782
  142SAPE  H18S15554   6.252  -0.194   8.830 -0.1478  1.7798 -0.5768
  142SAPE  C21915555   6.044  -0.158   8.789  0.2834 -0.3276  0.2616
  142SAPE  H19R15556   6.068  -0.060   8.743 -2.4763  0.0865 -0.4686
  142SAPE  H19S15557   5.956  -0.144   8.855 -0.0583  0.8133 -0.4126
  142SAPE  C22015558   6.016  -0.267   8.683 -0.1280  0.4667  0.2777
  142SAPE  H20R15559   5.958  -0.349   8.729  0.9438  0.2622  1.3021
  142SAPE  H20S15560   6.112  -0.314   8.654 -0.1584  1.6139 -1.9425
  142SAPE  H20T15561   5.964  -0.228   8.592 -0.3786 -1.7816 -0.6043
  142SAPE   C3315562   5.910   0.598   9.948 -0.1103 -0.1097 -0.2197
  142SAPE   H3X15563   5.822   0.534   9.972  2.2799 -2.3696  3.4007
  142SAPE   H3Y15564   5.992   0.525   9.935 -0.5496 -0.4739 -1.0864
  142SAPE   C3415565   5.895   0.678   9.818 -0.3811 -0.9387  0.5518
  142SAPE   H4X15566   5.996   0.706   9.783 -0.7692 -0.6067 -0.3370
  142SAPE   H4Y15567   5.836   0.769   9.845 -1.3496 -1.8638  1.6663
  142SAPE   C3515568   5.820   0.599   9.707  0.3504 -0.7274 -0.4875
  142SAPE   H5X15569   5.720   0.563   9.738 -0.2731  0.7355 -0.6988
  142SAPE   H5Y15570   5.881   0.508   9.688 -0.0344 -0.9581 -0.6226
  142SAPE   C3615571   5.810   0.679   9.579 -0.8172  0.3819 -0.3442
  142SAPE   H6X15572   5.903   0.738   9.569  1.3131 -2.7576 -0.5446
  142SAPE   H6Y15573   5.731   0.756   9.588 -0.9855  0.0796  0.9930
  142SAPE   C3715574   5.787   0.589   9.457  0.3127 -0.6681  0.4700
  142SAPE   H7X15575   5.690   0.536   9.472  0.9967 -1.7168  1.3945
  142SAPE   H7Y15576   5.870   0.515   9.467  1.8622  0.4917 -2.6051
  142SAPE   C3815577   5.796   0.678   9.328 -0.0206  0.2181  0.0204
  142SAPE   H8X15578   5.901   0.711   9.313 -0.4835  1.7174 -0.0659
  142SAPE   H8Y15579   5.718   0.756   9.334 -1.2620 -1.0715  1.2589
  142SAPE   C3915580   5.764   0.598   9.198 -0.2002 -0.7272 -0.5231
  142SAPE   H9X15581   5.658   0.566   9.211 -0.6381  0.7115 -0.4223
  142SAPE   H9Y15582   5.818   0.502   9.179  0.6842  0.1118 -2.5791
  142SAPE  C31015583   5.766   0.684   9.075  0.1192 -0.7520  0.0496
  142SAPE  H10X15584   5.874   0.703   9.056  0.0821  1.6227  1.8067
  142SAPE  H10Y15585   5.721   0.783   9.098  0.3843 -0.6009 -0.0695
  142SAPE  C31115586   5.692   0.626   8.959 -0.5496 -0.1178  0.5521
  142SAPE  H11X15587   5.701   0.688   8.867  0.4120 -1.0128  0.0302
  142SAPE  H11Y15588   5.586   0.612   8.990 -0.8674  0.2380 -0.3412
  142SAPE  C31215589   5.745   0.486   8.913 -0.3690 -0.0209 -0.4400
  142SAPE  H12X15590   5.704   0.480   8.810  2.3346 -0.3539 -1.5679
  142SAPE  H12Y15591   5.707   0.406   8.980  1.1963  1.5050  2.4421
  142SAPE  C31315592   5.895   0.492   8.885  0.3562 -0.4800  0.3548
  142SAPE  H13X15593   5.951   0.485   8.980  0.9041 -0.5304  0.0290
  142SAPE  H13Y15594   5.927   0.582   8.829  0.8975 -1.9440 -1.8418
  142SAPE  C31415595   5.945   0.371   8.802 -0.6992  0.1837  0.1448
  142SAPE  H14X15596   5.876   0.374   8.715  1.2952 -0.6168 -1.5742
  142SAPE  H14Y15597   5.929   0.277   8.858 -0.8760 -0.2044 -0.5439
  142SAPE  C31515598   6.096   0.390   8.765  1.0053  0.5610  0.1366
  142SAPE  H15X15599   6.163   0.403   8.853  0.0817 -0.5964  1.0344
  142SAPE  H15Y15600   6.100   0.477   8.696 -0.6386  1.1436  0.7245
  142SAPE  C31615601   6.150   0.269   8.692  0.6945  0.2393  0.2896
  142SAPE  H16X15602   6.109   0.255   8.589  1.4224 -3.2953  0.3699
  142SAPE  H16Y15603   6.117   0.177   8.744  0.0937 -0.8834 -1.9299
  142SAPE  C31715604   6.293   0.260   8.676 -0.6459 -0.5549 -0.2211
  142SAPE  H17X15605   6.335   0.171   8.625 -0.4952  0.7914 -2.5996
  142SAPE  H17Y15606   6.337   0.248   8.778 -2.3607  0.0628  0.6411
  142SAPE  C31815607   6.350   0.387   8.615 -0.8373  0.1608 -0.2267
  142SAPE  H18X15608   6.461   0.383   8.603 -0.4632  1.1116  2.2464
  142SAPE  H18Y15609   6.336   0.481   8.673  2.6529  0.8038 -0.1892
  142SAPE  H18Z15610   6.299   0.412   8.520  1.2299 -0.5893 -1.5985
  143SAPE     N15611   6.002   5.659  11.064  0.7411 -0.4358 -0.2056
  143SAPE   HN115612   5.948   5.571  11.079  2.3079 -1.0872  2.2891
  143SAPE   HN215613   5.968   5.730  11.132 -3.6763 -1.6008 -0.9046
  143SAPE   HN315614   5.986   5.689  10.966 -0.5784 -1.2633 -0.2773
  143SAPE   C1215615   6.147   5.615  11.087 -0.5560  0.3996 -0.0732
  143SAPE  H12A15616   6.152   5.506  11.065  1.9213  0.1559  1.3781
  143SAPE  H12B15617   6.163   5.621  11.196 -0.1850 -1.0145 -0.0334
  143SAPE   C1115618   6.245   5.710  11.008  0.1499  0.5278  0.7439
  143SAPE  H11A15619   6.211   5.716  10.903 -0.5151  0.2388  0.9319
  143SAPE  H11B15620   6.341   5.654  11.015  0.6287  1.2440 -0.0205
  143SAPE     P15621   6.373   5.944  11.009 -0.3040  0.4303 -0.2312
  143SAPE   O1315622   6.376   6.061  11.097 -0.1239  0.1536 -0.0351
  143SAPE   O1415623   6.494   5.862  10.983  0.3201 -0.3054 -0.1014
  143SAPE   O1215624   6.264   5.843  11.064 -0.5570 -0.1248  0.2063
  143SAPE   O1115625   6.310   5.979  10.867 -0.5524  0.2896  0.4260
  143SAPE    C115626   6.183   6.034  10.843 -0.3519  0.2497 -0.0681
  143SAPE    HA15627   6.114   6.004  10.925  0.7455  0.6123  1.0101
  143SAPE    HB15628   6.191   6.145  10.841 -1.6339  0.3511 -0.6347
  143SAPE    C215629   6.113   5.984  10.715 -0.0770  0.3022 -0.4896
  143SAPE    HS15630   6.104   5.874  10.728 -0.5087  0.1483 -1.9221
  143SAPE   O2115631   6.192   6.022  10.601  0.3077 -0.3085  0.0299
  143SAPE   C2115632   6.285   5.941  10.557 -0.9258 -0.5550 -0.5265
  143SAPE   O2215633   6.309   5.830  10.599 -0.0787  0.0511  0.1744
  143SAPE   C2215634   6.376   6.012  10.461  0.7272  0.1054  0.0403
  143SAPE   H2R15635   6.313   6.051  10.378  2.0426  0.5268 -0.7982
  143SAPE   H2S15636   6.414   6.101  10.515  3.0421 -1.8519  1.8730
  143SAPE    C315637   5.975   6.042  10.690  0.7929 -0.4042 -0.2685
  143SAPE    HX15638   5.994   6.151  10.684  2.3089 -0.4174  2.5897
  143SAPE    HY15639   5.909   6.023  10.777 -1.3328 -2.1327 -2.1351
  143SAPE   O3115640   5.913   5.987  10.570 -0.3633 -0.6449 -0.0620
  143SAPE   C3115641   5.791   6.046  10.555 -0.6555  0.0923  0.1834
  143SAPE   O3215642   5.720   6.092  10.644 -0.5195 -0.3882  0.2687
  143SAPE   C3215643   5.764   6.039  10.410  0.4560 -0.0403  0.2217
  143SAPE   H2X15644   5.656   6.028  10.389  0.2164 -0.4325  1.5851
  143SAPE   H2Y15645   5.793   5.937  10.375  0.2961  0.0967 -0.3110
  143SAPE   C2315646   6.500   5.932  10.399  0.3903  0.4000 -0.5251
  143SAPE   H3R15647   6.464   5.835  10.360  1.5698  0.2313 -1.2612
  143SAPE   H3S15648   6.560   5.907  10.489 -1.4998  0.2857  0.7463
  143SAPE   C2415649   6.583   6.000  10.295  0.6960  0.2743 -0.1373
  143SAPE   H4R15650   6.685   5.956  10.289  1.1221  0.8764  1.8112
  143SAPE   H4S15651   6.601   6.099  10.342 -2.8665  0.5755  0.8557
  143SAPE   C2515652   6.511   6.025  10.166  0.5963 -0.3743  0.0331
  143SAPE   H5R15653   6.412   6.072  10.165  1.0919  0.9001 -3.4772
  143SAPE   C2615654   6.561   5.989  10.043  0.1839 -0.9731 -0.4345
  143SAPE   H6R15655   6.502   6.016   9.954  2.0172  0.8576 -1.1801
  143SAPE   C2715656   6.693   5.925  10.006 -0.3102 -0.3220  0.0464
  143SAPE   H7R15657   6.746   5.889  10.097 -0.4548 -2.2651 -0.5931
  143SAPE   H7S15658   6.762   6.003   9.966  1.4549 -1.2162  1.1883
  143SAPE   C2815659   6.707   5.823   9.904 -0.7987 -0.3383  1.1335
  143SAPE   H8R15660   6.713   5.724   9.952  0.9310 -0.9521 -0.2603
  143SAPE   C2915661   6.732   5.825   9.776  0.3537  0.0981 -1.0220
  143SAPE   H9R15662   6.743   5.727   9.727  0.3833 -0.2192 -0.3882
  143SAPE  C21015663   6.742   5.945   9.685  0.4732 -0.5055  0.3124
  143SAPE  H10R15664   6.718   6.045   9.728  0.9481  0.6425 -1.9154
  143SAPE  H10S15665   6.670   5.940   9.601  0.9175  1.5215 -0.2475
  143SAPE  C21115666   6.879   5.969   9.615 -0.8170 -0.5258 -0.3525
  143SAPE  H11R15667   6.948   6.017   9.687  0.6308  1.2052 -2.7241
  143SAPE  C21215668   6.915   5.955   9.493 -0.1142  0.1274 -0.5856
  143SAPE  H12R15669   7.015   5.985   9.460 -0.2327  0.1570 -0.9286
  143SAPE  C21315670   6.821   5.900   9.383 -0.7827  0.3567 -0.8263
  143SAPE  H13R15671   6.751   5.821   9.415  0.9008 -2.6953 -3.9401
  143SAPE  H13S15672   6.893   5.842   9.321  1.5445  2.0830  0.1116
  143SAPE  C21415673   6.745   5.992   9.291 -0.6709 -1.3117  0.4883
  143SAPE  H14R15674   6.674   6.050   9.351  2.2444 -0.3215  3.3294
  143SAPE  C21515675   6.763   6.006   9.160  0.1821  0.0814  0.5370
  143SAPE  H15R15676   6.688   6.074   9.116 -1.8264 -2.4043 -0.1178
  143SAPE  C21615677   6.865   5.942   9.068 -0.2117 -0.4956  0.5031
  143SAPE  H16R15678   6.958   5.915   9.123  1.3665  1.6959 -0.8907
  143SAPE  H16S15679   6.899   6.016   8.992 -2.3201  2.7952  2.4916
  143SAPE  C21715680   6.817   5.807   9.019  0.2513  0.3193  0.5395
  143SAPE  H17R15681   6.720   5.827   8.969  1.1287  1.6242 -0.7397
  143SAPE  H17S15682   6.816   5.744   9.111 -0.4075 -0.2883  0.1313
  143SAPE  C21815683   6.909   5.744   8.906 -0.2150  0.3279 -0.5953
  143SAPE  H18R15684   7.016   5.742   8.936  0.2254 -0.8847 -2.1052
  143SAPE  H18S15685   6.913   5.809   8.816 -0.5982  1.2462  0.0363
  143SAPE  C21915686   6.853   5.608   8.887  0.3057  0.8664  0.7540
  143SAPE  H19R15687   6.749   5.608   8.850 -0.4901 -1.8839  2.6500
  143SAPE  H19S15688   6.838   5.562   8.987 -0.4819  2.2997  1.3250
  143SAPE  C22015689   6.936   5.528   8.789 -0.9673  0.0079  0.4963
  143SAPE  H20R15690   6.961   5.587   8.698  0.9129 -3.1615 -1.2181
  143SAPE  H20S15691   6.890   5.432   8.757  1.4573 -0.3408 -2.4556
  143SAPE  H20T15692   7.030   5.495   8.839 -0.3777 -1.4165 -1.4505
  143SAPE   C3315693   5.857   6.130  10.332  0.4943  0.6203  0.2138
  143SAPE   H3X15694   5.963   6.111  10.358  0.5791 -0.8089 -1.0227
  143SAPE   H3Y15695   5.830   6.237  10.348  1.2471  1.0830 -1.3270
  143SAPE   C3415696   5.844   6.089  10.175 -0.1350  0.5401  0.0208
  143SAPE   H4X15697   5.860   5.980  10.171  0.9869  0.6448  1.0065
  143SAPE   H4Y15698   5.935   6.132  10.126  0.3888 -0.3542  0.1873
  143SAPE   C3515699   5.716   6.126  10.105 -0.0595  0.2852 -0.0156
  143SAPE   H5X15700   5.712   6.237  10.098 -0.6555  0.1804 -1.8279
  143SAPE   H5Y15701   5.627   6.088  10.159 -0.1978 -0.0687 -0.4861
  143SAPE   C3615702   5.729   6.065   9.963  0.5681  0.4355  0.4032
  143SAPE   H6X15703   5.731   5.954   9.969  1.2957  0.3286 -1.2565
  143SAPE   H6Y15704   5.831   6.092   9.928  0.5513 -0.4379 -0.3635
  143SAPE   C3715705   5.624   6.115   9.862 -0.6516  0.6904  0.0066
  143SAPE   H7X15706   5.637   6.224   9.843 -2.1048  1.0516  0.8833
  143SAPE   H7Y15707   5.525   6.090   9.907 -0.2518  0.2374  0.6460
  143SAPE   C3815708   5.646   6.054   9.720  0.0575  0.3280 -0.1195
  143SAPE   H8X15709   5.684   5.950   9.728 -0.3634  0.2535  1.1490
  143SAPE   H8Y15710   5.723   6.117   9.669 -1.3735  3.0243  0.8119
  143SAPE   C3915711   5.514   6.066   9.635 -0.1332 -0.3039  0.2274
  143SAPE   H9X15712   5.481   6.172   9.626  0.9206 -0.0005 -0.2637
  143SAPE   H9Y15713   5.427   6.008   9.673  0.8306 -1.6669  0.4180
  143SAPE  C31015714   5.534   6.012   9.489  0.4350 -0.5279  0.0069
  143SAPE  H10X15715   5.535   5.901   9.499 -1.4696 -0.6662 -0.8627
  143SAPE  H10Y15716   5.637   6.036   9.454  1.1500 -2.1895  0.8394
  143SAPE  C31115717   5.441   6.052   9.372  0.1202  0.0358 -0.3747
  143SAPE  H11X15718   5.421   6.161   9.375 -2.5146 -0.3360 -1.6077
  143SAPE  H11Y15719   5.339   6.010   9.388  0.1769 -0.3039 -0.8905
  143SAPE  C31215720   5.483   6.023   9.229 -0.5038 -0.2636 -0.3523
  143SAPE  H12X15721   5.494   5.913   9.212  0.0472 -0.1891 -0.5180
  143SAPE  H12Y15722   5.580   6.071   9.203  0.0054 -1.5457 -0.9186
  143SAPE  C31315723   5.392   6.081   9.112 -0.4730 -0.0896 -1.0128
  143SAPE  H13X15724   5.387   6.189   9.136 -1.1854 -0.2375 -0.4798
  143SAPE  H13Y15725   5.289   6.046   9.133 -0.0519  0.4056  2.4892
  143SAPE  C31415726   5.445   6.071   8.968  0.0274  0.6521  0.0547
  143SAPE  H14X15727   5.553   6.096   8.964  0.8897 -2.2275  2.1361
  143SAPE  H14Y15728   5.399   6.154   8.910 -0.7066 -0.0339 -0.3541
  143SAPE  C31515729   5.422   5.936   8.903  0.3994  0.1848 -0.6213
  143SAPE  H15X15730   5.315   5.917   8.881 -0.5835 -0.2519  3.6199
  143SAPE  H15Y15731   5.472   5.856   8.962 -0.2705 -0.6821 -1.1984
  143SAPE  C31615732   5.501   5.925   8.772 -0.2351 -0.6566  0.3406
  143SAPE  H16X15733   5.607   5.953   8.790 -0.1771 -0.7052  0.0708
  143SAPE  H16Y15734   5.459   5.993   8.695 -2.0574  0.6973  2.3984
  143SAPE  C31715735   5.505   5.778   8.717 -0.2702 -0.6472  0.0762
  143SAPE  H17X15736   5.554   5.720   8.798  0.4095  1.2143  1.0751
  143SAPE  H17Y15737   5.583   5.789   8.639  0.3809  1.1267  0.9150
  143SAPE  C31815738   5.388   5.709   8.663  0.3030 -0.0033 -0.3294
  143SAPE  H18X15739   5.325   5.766   8.591  0.6058 -2.0003 -2.2813
  143SAPE  H18Y15740   5.323   5.676   8.746  1.0564 -3.2596 -0.9022
  143SAPE  H18Z15741   5.421   5.618   8.608  3.2703  2.3536 -2.8399
  144SAPE     N15742   5.264   4.467  10.689  0.0884  0.6263 -0.2285
  144SAPE   HN115743   5.340   4.451  10.758 -1.9323 -0.3983  1.8592
  144SAPE   HN215744   5.272   4.566  10.656  1.9175  0.3422 -0.7417
  144SAPE   HN315745   5.181   4.466  10.752  0.0253 -0.4080 -0.3206
  144SAPE   C1215746   5.260   4.355  10.584 -0.1038 -0.5142 -0.6661
  144SAPE  H12A15747   5.342   4.383  10.515  0.2214  0.0156 -0.0739
  144SAPE  H12B15748   5.160   4.357  10.536 -1.0092 -3.5079  0.8188
  144SAPE   C1115749   5.283   4.218  10.655  0.3574  0.6415  0.3830
  144SAPE  H11A15750   5.301   4.153  10.567  1.5086  2.0593 -0.4837
  144SAPE  H11B15751   5.189   4.180  10.702  0.3161 -0.4803 -0.5608
  144SAPE     P15752   5.477   4.078  10.759  0.2361 -0.1754 -0.2048
  144SAPE   O1315753   5.571   4.089  10.871  0.1454  0.0180 -1.0587
  144SAPE   O1415754   5.396   3.959  10.759  0.1550  0.2547  0.6159
  144SAPE   O1215755   5.390   4.211  10.750  0.1157  0.4150  0.8588
  144SAPE   O1115756   5.558   4.089  10.624 -0.8223 -0.3945 -0.2063
  144SAPE    C115757   5.610   4.210  10.568  0.3086  0.5885 -0.1574
  144SAPE    HA15758   5.528   4.270  10.522 -1.7642 -2.2700 -0.4178
  144SAPE    HB15759   5.651   4.270  10.652  2.5599 -1.0292 -0.0055
  144SAPE    C215760   5.728   4.185  10.466 -0.5264  0.0383  0.1510
  144SAPE    HS15761   5.755   4.281  10.418 -1.5561  0.3841  0.2481
  144SAPE   O2115762   5.700   4.086  10.363  0.3764 -0.8127 -0.6237
  144SAPE   C2115763   5.596   4.101  10.286 -0.7552  0.2005  0.0269
  144SAPE   O2215764   5.519   4.199  10.292 -0.3940 -0.3795  0.1806
  144SAPE   C2215765   5.573   3.977  10.193 -0.0790  0.2552  0.2943
  144SAPE   H2R15766   5.671   3.943  10.154 -0.0614 -0.7279  1.1229
  144SAPE   H2S15767   5.539   3.893  10.258  0.3039  1.2608  1.8506
  144SAPE    C315768   5.850   4.143  10.549  0.0258 -0.5654  0.0189
  144SAPE    HX15769   5.821   4.056  10.613  0.5148 -0.2251  0.7126
  144SAPE    HY15770   5.868   4.224  10.623 -0.9140  1.3726 -1.7838
  144SAPE   O3115771   5.966   4.109  10.468 -0.0966  0.4843 -0.0073
  144SAPE   C3115772   6.086   4.146  10.520  0.7232  0.0889  0.2621
  144SAPE   O3215773   6.099   4.196  10.628  0.3574 -0.3005  0.0964
  144SAPE   C3215774   6.195   4.120  10.411  0.5938 -0.1250  0.2781
  144SAPE   H2X15775   6.147   4.109  10.312  1.7510 -0.4600 -0.2562
  144SAPE   H2Y15776   6.235   4.023  10.448  0.5936  0.5696  2.2190
  144SAPE   C2315777   5.465   4.008  10.082 -0.2458 -0.6201 -0.6511
  144SAPE   H3R15778   5.473   4.113  10.046 -1.4589 -0.6223 -0.9443
  144SAPE   H3S15779   5.366   4.011  10.132 -0.4938  1.7369 -1.1581
  144SAPE   C2415780   5.467   3.919   9.961 -0.8802  0.4955  0.7335
  144SAPE   H4R15781   5.368   3.907   9.913 -1.0875 -0.4371  1.3532
  144SAPE   H4S15782   5.495   3.818   9.998 -2.2803  0.3934  1.5921
  144SAPE   C2515783   5.574   3.963   9.860  0.8618  0.1204 -0.8764
  144SAPE   H5R15784   5.675   3.958   9.905  0.7490  2.1347 -0.3248
  144SAPE   C2615785   5.553   4.011   9.734  0.0183 -0.2531 -0.1392
  144SAPE   H6R15786   5.643   4.020   9.671 -0.8119 -2.7060 -1.8152
  144SAPE   C2715787   5.422   4.031   9.662  0.1262  0.0903  0.0952
  144SAPE   H7R15788   5.361   4.080   9.740  0.5215 -1.3748  1.3663
  144SAPE   H7S15789   5.374   3.935   9.635 -1.7623  0.9408  0.2580
  144SAPE   C2815790   5.424   4.120   9.541 -0.0880  0.1323  0.4716
  144SAPE   H8R15791   5.386   4.222   9.553 -0.1070  0.1714  0.0875
  144SAPE   C2915792   5.458   4.077   9.418  1.1041  0.3207  0.4617
  144SAPE   H9R15793   5.453   4.146   9.332  3.0779 -1.7495 -1.4716
  144SAPE  C21015794   5.495   3.936   9.373  0.5431  0.4630 -0.6098
  144SAPE  H10R15795   5.413   3.905   9.305 -0.3190 -1.5329  1.1978
  144SAPE  H10S15796   5.489   3.867   9.461  1.8113 -0.0930 -0.9364
  144SAPE  C21115797   5.624   3.938   9.303  0.1703  0.7611  0.5312
  144SAPE  H11R15798   5.702   4.005   9.342  2.2702 -0.3779 -1.4553
  144SAPE  C21215799   5.657   3.873   9.184  1.0505 -0.1306 -0.4365
  144SAPE  H12R15800   5.750   3.899   9.132  1.9255 -0.8511  0.7306
  144SAPE  C21315801   5.569   3.778   9.107  0.1971 -0.1761  0.3766
  144SAPE  H13R15802   5.463   3.800   9.131  0.3376  0.9429  0.0121
  144SAPE  H13S15803   5.599   3.673   9.127  1.3272  0.2477  0.9630
  144SAPE  C21415804   5.588   3.805   8.962 -0.5145  0.4911  0.0132
  144SAPE  H14R15805   5.674   3.751   8.919 -0.2424  1.2396 -0.3864
  144SAPE  C21515806   5.526   3.883   8.871 -0.0970 -0.4099  0.5761
  144SAPE  H15R15807   5.564   3.896   8.768  2.5172 -0.4712  1.4653
  144SAPE  C21615808   5.407   3.968   8.908  0.2667 -0.1166 -0.5914
  144SAPE  H16R15809   5.342   3.924   8.987 -0.2892  0.6992 -0.5870
  144SAPE  H16S15810   5.335   3.985   8.826 -0.8357 -0.2142  0.3203
  144SAPE  C21715811   5.458   4.100   8.970  0.4504  0.5383 -0.9411
  144SAPE  H17R15812   5.534   4.078   9.048  0.3241 -0.6739 -1.1424
  144SAPE  H17S15813   5.365   4.137   9.017 -0.9125 -1.4111 -1.9502
  144SAPE  C21815814   5.504   4.202   8.871  0.0022  0.0266  0.2406
  144SAPE  H18R15815   5.406   4.215   8.819 -0.2624 -2.7561 -0.1091
  144SAPE  H18S15816   5.578   4.169   8.795 -0.3669  0.1803 -0.1964
  144SAPE  C21915817   5.553   4.343   8.930  0.4144 -0.1675 -0.1404
  144SAPE  H19R15818   5.637   4.317   8.998  1.0813 -1.3843 -1.3617
  144SAPE  H19S15819   5.468   4.390   8.984  0.2359 -0.2270 -0.3656
  144SAPE  C22015820   5.611   4.436   8.820  0.1612 -0.1264  0.5559
  144SAPE  H20R15821   5.544   4.443   8.731  0.0812  1.1431  0.6880
  144SAPE  H20S15822   5.709   4.401   8.783  0.1274 -1.4063  1.6340
  144SAPE  H20T15823   5.619   4.543   8.849 -0.9892 -0.4575  2.2663
  144SAPE   C3315824   6.298   4.237  10.407 -0.0732  0.1649  0.3128
  144SAPE   H3X15825   6.341   4.230  10.510 -1.1474 -0.4264  0.7342
  144SAPE   H3Y15826   6.256   4.339  10.404  2.9979  1.6804  2.7706
  144SAPE   C3415827   6.399   4.226  10.295  0.1337 -0.3438  0.7332
  144SAPE   H4X15828   6.465   4.137  10.306  2.0442  0.8158 -0.6893
  144SAPE   H4Y15829   6.471   4.310  10.301  0.8855 -0.9797  0.7249
  144SAPE   C3515830   6.336   4.225  10.156 -0.0119 -0.5868  0.5988
  144SAPE   H5X15831   6.256   4.300  10.138 -0.0226 -0.6948  0.1778
  144SAPE   H5Y15832   6.301   4.121  10.142  1.4219 -1.0428  0.1962
  144SAPE   C3615833   6.441   4.250  10.044 -0.0295 -0.5659  0.0751
  144SAPE   H6X15834   6.524   4.177  10.044  2.3188  1.9535 -0.7061
  144SAPE   H6Y15835   6.486   4.350  10.057  0.3997 -0.3949 -2.3338
  144SAPE   C3715836   6.386   4.234   9.906  0.5508  1.2909  0.3061
  144SAPE   H7X15837   6.360   4.127   9.892 -1.8006  1.9472 -0.9042
  144SAPE   H7Y15838   6.472   4.260   9.840  0.6737 -1.3898 -0.7281
  144SAPE   C3815839   6.260   4.316   9.865  0.0832 -0.0127 -0.7123
  144SAPE   H8X15840   6.236   4.400   9.933  1.0777 -0.5392  0.3162
  144SAPE   H8Y15841   6.177   4.243   9.875  1.5938 -1.8080 -0.6639
  144SAPE   C3915842   6.265   4.369   9.726  0.4686  0.4009 -0.4756
  144SAPE   H9X15843   6.164   4.406   9.698 -0.3492 -0.7951  0.7687
  144SAPE   H9Y15844   6.299   4.292   9.654  3.4509  0.7982  0.3896
  144SAPE  C31015845   6.362   4.487   9.713 -0.7257  0.3490  0.5645
  144SAPE  H10X15846   6.466   4.451   9.731 -1.4167 -0.5843  3.0877
  144SAPE  H10Y15847   6.346   4.554   9.800  2.3891  0.3486  1.2781
  144SAPE  C31115848   6.347   4.564   9.582  0.0152  0.3619 -0.5866
  144SAPE  H11X15849   6.376   4.666   9.614 -3.3405  0.7115  1.7744
  144SAPE  H11Y15850   6.239   4.574   9.558 -0.3927  0.0287  0.9929
  144SAPE  C31215851   6.433   4.509   9.468  0.1968  0.1220  0.5613
  144SAPE  H12X15852   6.437   4.400   9.488 -0.5556  0.0081  0.1048
  144SAPE  H12Y15853   6.540   4.542   9.466  0.2310  0.2279 -3.0596
  144SAPE  C31315854   6.369   4.541   9.333 -0.4749 -0.6061  0.0073
  144SAPE  H13X15855   6.373   4.648   9.303 -0.2282 -1.0700 -1.7373
  144SAPE  H13Y15856   6.263   4.509   9.343 -1.0366  1.5096  1.4117
  144SAPE  C31415857   6.439   4.475   9.213  0.2644 -0.7846 -0.8276
  144SAPE  H14X15858   6.528   4.539   9.191 -0.4942  0.7334  0.2803
  144SAPE  H14Y15859   6.362   4.481   9.133  0.0910  1.2933 -0.5771
  144SAPE  C31515860   6.485   4.330   9.239  0.3080  0.0774  0.5696
  144SAPE  H15X15861   6.408   4.283   9.304 -1.0623  1.3309 -0.0719
  144SAPE  H15Y15862   6.578   4.338   9.298  0.7060 -0.9620  0.1063
  144SAPE  C31615863   6.508   4.230   9.122  0.3357 -0.2650  0.2878
  144SAPE  H16X15864   6.567   4.144   9.160 -0.9001 -1.5544 -0.6166
  144SAPE  H16Y15865   6.581   4.277   9.053  0.9284  1.4378  1.9767
  144SAPE  C31715866   6.378   4.172   9.052 -0.3697 -1.1859  0.0999
  144SAPE  H17X15867   6.334   4.262   9.004  1.4879  1.1825  2.4826
  144SAPE  H17Y15868   6.316   4.136   9.137 -1.4828  0.0703 -0.1442
  144SAPE  C31815869   6.420   4.087   8.940 -0.1540 -0.4121 -0.2536
  144SAPE  H18X15870   6.329   4.064   8.881 -0.4235 -2.6132  0.8891
  144SAPE  H18Y15871   6.476   3.999   8.980  2.4564  1.5448  0.6635
  144SAPE  H18Z15872   6.481   4.138   8.863  0.8449 -2.6078 -1.0134
  145SAPE     N15873   0.367   6.437  11.199 -0.1028  0.0238 -0.1398
  145SAPE   HN115874   0.405   6.358  11.256 -0.1343  1.1707  1.5503
  145SAPE   HN215875   0.426   6.436  11.113 -2.0896 -0.5448 -1.5785
  145SAPE   HN315876   0.389   6.523  11.253 -1.0659 -0.7008  1.5084
  145SAPE   C1215877   0.222   6.429  11.153 -0.4472 -0.0704 -0.2960
  145SAPE  H12A15878   0.153   6.419  11.239 -0.4710 -0.3294 -0.3436
  145SAPE  H12B15879   0.217   6.336  11.093 -2.5091 -0.4022  0.3392
  145SAPE   C1115880   0.187   6.555  11.088 -0.0209  0.0435 -0.9430
  145SAPE  H11A15881   0.078   6.556  11.067  0.2041  1.5242 -2.2023
  145SAPE  H11B15882   0.245   6.580  10.997  0.2556  1.7764 -0.3496
  145SAPE     P15883   0.305   6.772  11.204 -0.2027  0.3420  0.3288
  145SAPE   O1315884   0.239   6.884  11.279 -0.1831  0.7187  0.3896
  145SAPE   O1415885   0.420   6.702  11.272 -0.0242  0.0939  0.0894
  145SAPE   O1215886   0.197   6.663  11.194  0.9396 -0.1459 -0.5963
  145SAPE   O1115887   0.335   6.811  11.057 -0.2834  0.0550  0.2945
  145SAPE    C115888   0.227   6.857  10.971  0.0572  0.5529  0.0387
  145SAPE    HA15889   0.146   6.782  10.959 -0.3224  0.6701  1.6903
  145SAPE    HB15890   0.184   6.953  11.007  0.1117  1.1745 -1.4513
  145SAPE    C215891   0.283   6.878  10.826 -0.4723 -0.7157 -0.2148
  145SAPE    HS15892   0.367   6.951  10.828 -1.6805  0.7182  0.5091
  145SAPE   O2115893   0.182   6.924  10.737 -0.2891  0.3918  0.2416
  145SAPE   C2115894   0.167   7.046  10.732  0.0868 -0.3503  0.2129
  145SAPE   O2215895   0.220   7.132  10.801 -0.1298 -0.3144  0.0573
  145SAPE   C2215896   0.076   7.095  10.615 -0.2983 -0.5515  0.1586
  145SAPE   H2R15897   0.139   7.087  10.524  2.0521  0.6697  1.6069
  145SAPE   H2S15898  -0.012   7.027  10.615 -1.0784  0.4350  0.4112
  145SAPE    C315899   0.346   6.755  10.759  0.3112  0.2325 -0.5904
  145SAPE    HX15900   0.267   6.679  10.742  0.5100  0.4574 -2.8353
  145SAPE    HY15901   0.413   6.714  10.837 -1.0848 -0.2761  0.3937
  145SAPE   O3115902   0.419   6.791  10.641  0.1940 -1.0146  0.6343
  145SAPE   C3115903   0.367   6.750  10.526 -0.5326 -0.6167 -0.1773
  145SAPE   O3215904   0.263   6.691  10.510 -0.7331  0.1805  0.7004
  145SAPE   C3215905   0.463   6.782  10.408  0.1032  0.6111 -0.0174
  145SAPE   H2X15906   0.526   6.702  10.363 -0.3347  0.3036 -0.0861
  145SAPE   H2Y15907   0.543   6.850  10.444  1.4414 -0.0497 -1.6038
  145SAPE   C2315908   0.020   7.241  10.622  0.9397 -0.5969 -0.0318
  145SAPE   H3R15909   0.093   7.319  10.655 -0.4627  0.6293  0.3074
  145SAPE   H3S15910  -0.066   7.235  10.692 -0.6033  0.6892 -1.7320
  145SAPE   C2415911  -0.057   7.285  10.491  0.3707 -0.1795  0.7581
  145SAPE   H4R15912  -0.134   7.210  10.463 -0.0323 -0.5537  2.7500
  145SAPE   H4S15913   0.027   7.301  10.420 -1.8039  1.4468 -1.6324
  145SAPE   C2515914  -0.107   7.428  10.503 -0.5472 -0.4965 -0.0470
  145SAPE   H5R15915  -0.054   7.493  10.575 -2.2417  0.8066  0.1042
  145SAPE   C2615916  -0.209   7.484  10.434  0.2704  0.1568  0.7018
  145SAPE   H6R15917  -0.243   7.588  10.450 -2.3626 -0.4318 -0.5904
  145SAPE   C2715918  -0.292   7.410  10.331  0.4403  0.2181 -0.0414
  145SAPE   H7R15919  -0.266   7.302  10.331 -2.4169 -0.5358  0.3929
  145SAPE   H7S15920  -0.265   7.453  10.232 -1.4525 -0.9026 -1.1080
  145SAPE   C2815921  -0.437   7.419  10.354 -0.1099 -0.4361 -1.0980
  145SAPE   H8R15922  -0.461   7.424  10.461  1.0720  2.4086 -0.8980
  145SAPE   C2915923  -0.529   7.411  10.260  0.0699 -0.1572 -0.4597
  145SAPE   H9R15924  -0.634   7.417  10.292  0.2712 -0.5222  0.2937
  145SAPE  C21015925  -0.506   7.396  10.111  0.1071  0.3775 -0.1881
  145SAPE  H10R15926  -0.486   7.504  10.090 -0.5179  0.2507 -1.5592
  145SAPE  H10S15927  -0.604   7.386  10.058 -1.7494 -0.7288  3.1764
  145SAPE  C21115928  -0.400   7.307  10.040  0.1515  0.2460 -0.5338
  145SAPE  H11R15929  -0.332   7.257  10.110 -1.9445  1.0386  2.2670
  145SAPE  C21215930  -0.392   7.296   9.909 -0.1795  0.4919 -0.0549
  145SAPE  H12R15931  -0.321   7.231   9.855  0.1481 -0.0331  0.9723
  145SAPE  C21315932  -0.488   7.364   9.809  0.0403  0.3087 -0.1396
  145SAPE  H13R15933  -0.416   7.397   9.731  0.6253  0.8613  0.6179
  145SAPE  H13S15934  -0.526   7.460   9.851  0.9393 -0.2304  2.0057
  145SAPE  C21415935  -0.604   7.275   9.777  0.5466  0.2750 -0.0571
  145SAPE  H14R15936  -0.625   7.196   9.852 -0.4469 -1.2031 -1.8147
  145SAPE  C21515937  -0.677   7.264   9.660 -0.8942  0.1871 -0.2688
  145SAPE  H15R15938  -0.770   7.206   9.658 -1.0962  0.3870  1.5556
  145SAPE  C21615939  -0.653   7.354   9.538 -0.4422  0.0707 -1.0779
  145SAPE  H16R15940  -0.554   7.405   9.543  0.4453 -1.6129 -0.7056
  145SAPE  H16S15941  -0.729   7.435   9.532 -0.6048  0.0250  0.0659
  145SAPE  C21715942  -0.646   7.271   9.409  0.3795 -0.0915  0.0822
  145SAPE  H17R15943  -0.743   7.221   9.387  0.6806 -0.7933  0.3058
  145SAPE  H17S15944  -0.569   7.191   9.410  0.6010  0.1148 -0.2467
  145SAPE  C21815945  -0.603   7.364   9.287 -0.4870 -0.2089 -0.0912
  145SAPE  H18R15946  -0.499   7.393   9.311  0.4949 -4.6477  2.0931
  145SAPE  H18S15947  -0.656   7.462   9.283 -2.5990 -1.2945 -0.1573
  145SAPE  C21915948  -0.610   7.307   9.140  0.0438  0.2369 -0.1564
  145SAPE  H19R15949  -0.585   7.382   9.062 -0.8900 -0.0053 -0.7006
  145SAPE  H19S15950  -0.713   7.265   9.135  0.3354 -0.3798 -1.4859
  145SAPE  C22015951  -0.499   7.203   9.111 -0.0991  0.2574  0.6208
  145SAPE  H20R15952  -0.500   7.122   9.187 -0.4440 -1.9096 -1.5555
  145SAPE  H20S15953  -0.398   7.249   9.116  0.2013 -0.2353 -0.5167
  145SAPE  H20T15954  -0.501   7.153   9.011  0.6997 -0.7254  1.0831
  145SAPE   C3315955   0.383   6.867  10.313 -0.3075  0.1668  0.8909
  145SAPE   H3X15956   0.357   6.968  10.350 -1.7201 -0.3896  1.4842
  145SAPE   H3Y15957   0.286   6.820  10.285  0.6682 -0.1363 -2.5422
  145SAPE   C3415958   0.472   6.883  10.188 -0.2912  0.7741  0.6725
  145SAPE   H4X15959   0.497   6.781  10.151 -1.4026  0.4576  0.7664
  145SAPE   H4Y15960   0.569   6.930  10.213  0.3062 -0.1169  0.1189
  145SAPE   C3515961   0.406   6.949  10.065 -0.1851 -0.3715  0.2581
  145SAPE   H5X15962   0.403   7.059  10.085 -1.8344 -0.2890 -0.2588
  145SAPE   H5Y15963   0.298   6.926  10.059 -0.9385  2.5385  0.7830
  145SAPE   C3615964   0.473   6.922   9.936 -0.2934 -0.1693  0.2190
  145SAPE   H6X15965   0.529   6.826   9.927  0.0707  0.0369  0.2531
  145SAPE   H6Y15966   0.562   6.986   9.920  0.1404 -1.0846 -1.3025
  145SAPE   C3715967   0.379   6.931   9.806 -0.5045 -0.7161  0.1201
  145SAPE   H7X15968   0.359   7.040   9.794  1.1177 -0.5592 -1.5465
  145SAPE   H7Y15969   0.280   6.885   9.824 -1.0558  1.2145  2.6478
  145SAPE   C3815970   0.447   6.881   9.672  0.4336  0.0273 -0.3688
  145SAPE   H8X15971   0.472   6.774   9.687  0.0009 -0.4941 -2.9037
  145SAPE   H8Y15972   0.533   6.949   9.652 -0.2624  1.2433  0.5976
  145SAPE   C3915973   0.352   6.905   9.553 -0.0938  0.6021  0.1620
  145SAPE   H9X15974   0.312   7.008   9.560 -0.3581  0.5077  0.0590
  145SAPE   H9Y15975   0.275   6.825   9.557 -0.3715  0.9029  1.4480
  145SAPE  C31015976   0.407   6.889   9.407 -0.5716  0.1606  0.5704
  145SAPE  H10X15977   0.455   6.789   9.404 -1.6605 -0.3518 -1.6087
  145SAPE  H10Y15978   0.490   6.958   9.383 -0.2971 -0.0264  0.9698
  145SAPE  C31115979   0.296   6.892   9.297  0.7454 -0.9353  0.6941
  145SAPE  H11X15980   0.242   6.988   9.308  0.3629 -0.8471 -1.4871
  145SAPE  H11Y15981   0.223   6.808   9.309  0.3890 -0.9220 -1.1645
  145SAPE  C31215982   0.369   6.883   9.161 -0.4775  0.1166  0.5912
  145SAPE  H12X15983   0.471   6.844   9.182 -0.5411  0.3994  1.4688
  145SAPE  H12Y15984   0.381   6.989   9.128 -1.7874  0.0739 -0.0787
  145SAPE  C31315985   0.306   6.800   9.035 -0.2052 -0.1137 -0.4281
  145SAPE  H13X15986   0.212   6.846   8.999  0.0460  0.6356 -0.1665
  145SAPE  H13Y15987   0.277   6.705   9.086 -1.6347  0.8168  0.5751
  145SAPE  C31415988   0.402   6.778   8.915 -0.0800  0.7071 -0.1837
  145SAPE  H14X15989   0.355   6.707   8.843  0.9109 -0.6068  0.4322
  145SAPE  H14Y15990   0.493   6.723   8.947 -0.3158  1.1160  1.2367
  145SAPE  C31515991   0.442   6.903   8.839  0.2786  0.5510 -0.0664
  145SAPE  H15X15992   0.519   6.968   8.887  0.6743 -0.1588  0.2858
  145SAPE  H15Y15993   0.366   6.981   8.817  0.3140  0.4445 -0.5745
  145SAPE  C31615994   0.496   6.859   8.704 -0.4366 -0.3204  0.1903
  145SAPE  H16X15995   0.410   6.800   8.664  0.6294 -0.4950 -1.9932
  145SAPE  H16Y15996   0.587   6.796   8.705  0.0943  0.4391  0.2982
  145SAPE  C31715997   0.526   6.970   8.606 -0.4325 -0.4294  0.3684
  145SAPE  H17X15998   0.442   7.042   8.595  0.7959  0.8532 -1.0666
  145SAPE  H17Y15999   0.548   6.923   8.508 -2.1590 -0.2721 -0.1368
  145SAPE  C31816000   0.652   7.061   8.632 -0.1980 -0.0324 -0.5538
  145SAPE  H18X16001   0.656   7.085   8.741  0.6314 -0.0096 -0.5895
  145SAPE  H18Y16002   0.652   7.148   8.564  1.3355  1.7278  1.5295
  145SAPE  H18Z16003   0.745   7.001   8.622 -1.1316 -1.8223  0.7336
  146SAPE     N16004   4.872   3.932  10.860 -0.6753  0.0692 -0.0886
  146SAPE   HN116005   4.845   4.026  10.895 -3.7836 -1.1629  1.2040
  146SAPE   HN216006   4.964   3.929  10.812 -0.4077  2.5504  0.1825
  146SAPE   HN316007   4.803   3.915  10.784  0.9461  1.8794 -2.0823
  146SAPE   C1216008   4.865   3.839  10.972 -0.2449 -0.2768  0.2758
  146SAPE  H12A16009   4.760   3.843  11.009 -0.7871  0.1449 -1.2289
  146SAPE  H12B16010   4.935   3.870  11.053 -1.0293  1.3705  0.3612
  146SAPE   C1116011   4.907   3.704  10.926 -0.3787  0.1947  0.3368
  146SAPE  H11A16012   4.900   3.625  11.003  1.6860 -1.6811 -1.2625
  146SAPE  H11B16013   5.014   3.706  10.896  0.0841 -0.8646  1.8115
  146SAPE     P16014   4.696   3.574  10.832 -0.0564 -0.0530  0.1245
  146SAPE   O1316015   4.707   3.484  10.950  0.0073 -0.7979 -0.0435
  146SAPE   O1416016   4.573   3.658  10.819  0.4942  0.7654  0.0622
  146SAPE   O1216017   4.827   3.663  10.817  0.2235 -0.1576  0.6023
  146SAPE   O1116018   4.708   3.488  10.702 -0.7311  0.1253 -0.3359
  146SAPE    C116019   4.813   3.393  10.687  0.0567 -0.4609 -0.3810
  146SAPE    HA16020   4.906   3.420  10.740 -1.2606  0.1359  1.7547
  146SAPE    HB16021   4.775   3.300  10.734 -1.2429  0.7064  0.9652
  146SAPE    C216022   4.859   3.363  10.543 -0.4144 -0.4074 -0.0414
  146SAPE    HS16023   4.949   3.297  10.534  0.0720  0.4193 -1.9193
  146SAPE   O2116024   4.903   3.482  10.470  0.1457  0.2254  0.1044
  146SAPE   C2116025   5.009   3.545  10.509  0.4552  0.0758 -0.5033
  146SAPE   O2216026   5.076   3.521  10.609  0.9483  0.0390  0.1836
  146SAPE   C2216027   5.042   3.647  10.388 -0.1400  0.0888 -0.5076
  146SAPE   H2R16028   4.979   3.736  10.410  0.9170  1.0702 -1.3538
  146SAPE   H2S16029   5.151   3.664  10.394  0.2781 -2.7840  2.2041
  146SAPE    C316030   4.745   3.289  10.458 -0.6783  0.0592  0.3657
  146SAPE    HX16031   4.647   3.336  10.480 -0.5184  0.9313 -0.7260
  146SAPE    HY16032   4.753   3.185  10.497  2.3288  0.8037  2.0950
  146SAPE   O3116033   4.781   3.291  10.322 -0.0884  0.0908 -0.3993
  146SAPE   C3116034   4.704   3.362  10.242  0.0919 -0.4109 -0.1223
  146SAPE   O3216035   4.629   3.448  10.282 -0.0347 -0.0274  0.0044
  146SAPE   C3216036   4.751   3.357  10.101 -0.7622 -0.4423 -0.3283
  146SAPE   H2X16037   4.692   3.270  10.066 -2.6650  1.6632 -2.7940
  146SAPE   H2Y16038   4.859   3.332  10.096 -0.9551 -1.4591  0.3539
  146SAPE   C2316039   5.023   3.600  10.243  0.0747  0.6135  0.3073
  146SAPE   H3R16040   4.917   3.573  10.220  0.1503  0.9448 -0.4629
  146SAPE   H3S16041   5.088   3.513  10.220 -1.2801 -0.4426  0.2805
  146SAPE   C2416042   5.070   3.715  10.149  0.0502  0.5503 -0.5959
  146SAPE   H4R16043   5.102   3.652  10.062 -1.1503 -0.5421 -0.2690
  146SAPE   H4S16044   5.161   3.759  10.195  1.7450 -0.5028 -2.7394
  146SAPE   C2516045   4.970   3.814  10.109  1.2836 -0.4115  0.1279
  146SAPE   H5R16046   4.897   3.846  10.184  0.1429 -1.3390 -0.5382
  146SAPE   C2616047   4.969   3.874   9.984  0.8592  0.0413 -0.8918
  146SAPE   H6R16048   4.892   3.949   9.961  0.6525  0.0781 -0.1078
  146SAPE   C2716049   5.064   3.849   9.873  0.2477 -0.4079 -0.6960
  146SAPE   H7R16050   5.166   3.824   9.910  0.3195  0.7807 -0.0343
  146SAPE   H7S16051   5.072   3.945   9.818 -3.3427 -0.0075 -0.7531
  146SAPE   C2816052   5.029   3.734   9.775  0.5890  0.6292  0.3093
  146SAPE   H8R16053   5.025   3.637   9.826 -0.7350  1.2234  1.4216
  146SAPE   C2916054   5.019   3.747   9.645  0.4633 -0.0324  0.2814
  146SAPE   H9R16055   4.989   3.662   9.584  0.4045  1.2489 -1.5531
  146SAPE  C21016056   5.014   3.877   9.560  0.0782 -0.0562  1.0062
  146SAPE  H10R16057   5.044   3.966   9.618  4.0140 -1.6861  1.7977
  146SAPE  H10S16058   4.911   3.883   9.519  0.0343 -3.0726  0.3993
  146SAPE  C21116059   5.113   3.858   9.442 -0.4171  0.2869 -0.4798
  146SAPE  H11R16060   5.204   3.798   9.456 -0.3484  0.6101  0.5736
  146SAPE  C21216061   5.098   3.897   9.314  0.1932 -0.2547  0.2194
  146SAPE  H12R16062   5.183   3.874   9.248  0.4207 -0.2426  0.5080
  146SAPE  C21316063   4.993   3.984   9.244 -0.2029  0.3399 -0.5981
  146SAPE  H13R16064   4.914   4.006   9.319  0.6527  2.4484 -0.2489
  146SAPE  H13S16065   4.940   3.924   9.167  2.4521 -2.7186 -0.2346
  146SAPE  C21416066   5.044   4.116   9.192 -0.4687  0.6088 -0.7026
  146SAPE  H14R16067   5.111   4.172   9.260  0.5440 -1.4410  0.0743
  146SAPE  C21516068   5.046   4.152   9.064 -0.1251 -0.4338 -0.2916
  146SAPE  H15R16069   5.084   4.253   9.045 -0.1587 -0.0618  1.4297
  146SAPE  C21616070   4.998   4.082   8.939 -0.6340 -0.1226  0.7717
  146SAPE  H16R16071   4.925   4.001   8.960 -0.0141 -0.0884  3.3184
  146SAPE  H16S16072   5.079   4.039   8.877  0.2029  0.5576  1.3666
  146SAPE  C21716073   4.910   4.182   8.864 -0.2363  0.2792  0.5523
  146SAPE  H17R16074   4.837   4.236   8.927  0.3402  1.2668  0.4066
  146SAPE  H17S16075   4.852   4.111   8.802 -1.9951 -1.0061  3.4817
  146SAPE  C21816076   4.975   4.276   8.758 -0.2143 -0.1285 -0.4917
  146SAPE  H18R16077   5.019   4.216   8.676 -0.8348 -2.6577  0.9044
  146SAPE  H18S16078   5.058   4.323   8.815 -1.5289 -1.5507  2.8639
  146SAPE  C21916079   4.873   4.373   8.693 -0.1475 -0.6055  0.4719
  146SAPE  H19R16080   4.937   4.434   8.625 -1.0806 -1.3910 -1.1785
  146SAPE  H19S16081   4.823   4.437   8.769 -0.6210 -3.1059  2.3917
  146SAPE  C22016082   4.756   4.305   8.617  0.3322 -0.0607 -0.0307
  146SAPE  H20R16083   4.687   4.259   8.691  1.8019  0.6080  1.8407
  146SAPE  H20S16084   4.803   4.222   8.560  0.2838 -0.3644  0.3731
  146SAPE  H20T16085   4.704   4.384   8.558  1.3601 -0.8624 -2.1227
  146SAPE   C3316086   4.711   3.482  10.026 -0.4536 -0.4791  0.1855
  146SAPE   H3X16087   4.759   3.574  10.065  1.0242 -0.9084 -0.5526
  146SAPE   H3Y16088   4.602   3.502  10.031 -0.3934  0.0526 -0.4558
  146SAPE   C3416089   4.754   3.470   9.874 -0.4120 -0.0539  0.0455
  146SAPE   H4X16090   4.713   3.374   9.835  0.9801 -0.6105 -0.1156
  146SAPE   H4Y16091   4.865   3.460   9.868 -0.2344  0.1647  2.3363
  146SAPE   C3516092   4.703   3.593   9.799  0.1362 -0.4446 -0.4898
  146SAPE   H5X16093   4.751   3.691   9.822  0.9271 -0.9806  0.1918
  146SAPE   H5Y16094   4.594   3.596   9.820 -0.0951  1.4023 -1.6819
  146SAPE   C3616095   4.714   3.578   9.651 -0.6882  0.0170  0.0718
  146SAPE   H6X16096   4.656   3.496   9.605 -0.4627  0.8374 -1.7807
  146SAPE   H6Y16097   4.822   3.554   9.639 -0.5366  0.3021  0.8003
  146SAPE   C3716098   4.667   3.707   9.585 -0.0858  0.2459 -0.2010
  146SAPE   H7X16099   4.736   3.787   9.617 -0.1593  0.4688 -0.5992
  146SAPE   H7Y16100   4.564   3.732   9.619 -0.7981 -3.3735  0.6927
  146SAPE   C3816101   4.654   3.691   9.433  0.4718 -0.0075 -0.9416
  146SAPE   H8X16102   4.594   3.600   9.411 -1.3594  0.1738  2.5616
  146SAPE   H8Y16103   4.751   3.672   9.384  0.8166 -1.6183  0.2722
  146SAPE   C3916104   4.612   3.827   9.363 -0.0609 -0.1109  0.2932
  146SAPE   H9X16105   4.668   3.911   9.410  0.0771  1.2651 -2.1503
  146SAPE   H9Y16106   4.507   3.846   9.392 -0.6758 -1.9190 -0.6426
  146SAPE  C31016107   4.614   3.848   9.209 -0.9925  0.2103 -0.5240
  146SAPE  H10X16108   4.720   3.834   9.176 -0.6189  0.1068  0.6834
  146SAPE  H10Y16109   4.565   3.941   9.173 -0.9561  0.6466  0.5108
  146SAPE  C31116110   4.547   3.731   9.132  0.3748  0.0966 -0.1339
  146SAPE  H11X16111   4.443   3.733   9.169  1.1057 -0.5023  2.1125
  146SAPE  H11Y16112   4.592   3.634   9.162 -0.2187 -0.3957 -0.8290
  146SAPE  C31216113   4.547   3.779   8.986  1.0840 -0.8635  0.1678
  146SAPE  H12X16114   4.484   3.870   8.987  1.8950 -0.2344  2.9533
  146SAPE  H12Y16115   4.498   3.698   8.928 -0.8186  0.9343 -0.8718
  146SAPE  C31316116   4.681   3.817   8.922  0.0350 -0.0240  1.0774
  146SAPE  H13X16117   4.748   3.736   8.959  0.1030 -0.4445  0.0513
  146SAPE  H13Y16118   4.714   3.912   8.970  0.1066  0.9159 -0.7744
  146SAPE  C31416119   4.675   3.848   8.771  0.1518 -0.6583  0.2383
  146SAPE  H14X16120   4.652   3.755   8.716  1.6578 -0.8266 -0.1445
  146SAPE  H14Y16121   4.771   3.891   8.737 -0.2819 -0.5508 -0.8687
  146SAPE  C31516122   4.574   3.955   8.738  0.3563 -0.2006  0.1944
  146SAPE  H15X16123   4.605   4.041   8.801  0.1082  1.7986 -2.2334
  146SAPE  H15Y16124   4.475   3.922   8.778  1.0517 -1.0924  1.2111
  146SAPE  C31616125   4.576   3.998   8.593  0.7801  0.6058 -0.3378
  146SAPE  H16X16126   4.676   4.029   8.556  1.3053  0.1381  0.6474
  146SAPE  H16Y16127   4.502   4.080   8.590  0.5738  0.8486  4.2672
  146SAPE  C31716128   4.515   3.887   8.502 -0.2924 -0.4422  0.1042
  146SAPE  H17X16129   4.409   3.866   8.529 -0.6330 -0.2488 -1.0141
  146SAPE  H17Y16130   4.578   3.798   8.517  1.9872  1.1148  0.2114
  146SAPE  C31816131   4.513   3.932   8.354  0.2889 -0.0209  0.0834
  146SAPE  H18X16132   4.617   3.945   8.318  0.6393 -1.5802  0.4492
  146SAPE  H18Y16133   4.453   4.026   8.344  1.3007  0.6513  0.1816
  146SAPE  H18Z16134   4.461   3.853   8.297  1.2758 -0.8417  0.3011
  147SAPE     N16135   3.227   1.652   5.943 -0.1237  0.1407  0.0367
  147SAPE   HN116136   3.223   1.701   5.852 -0.6562  2.1888  1.1003
  147SAPE   HN216137   3.316   1.684   5.988 -0.4015  0.0369  0.6832
  147SAPE   HN316138   3.226   1.548   5.931  0.7534  0.0268  0.8163
  147SAPE   C1216139   3.115   1.683   6.041  0.2500 -0.0726  1.0196
  147SAPE  H12A16140   3.112   1.793   6.054 -0.3333 -0.3972  4.3202
  147SAPE  H12B16141   3.151   1.632   6.133  2.6201 -2.8051 -1.1906
  147SAPE   C1116142   2.978   1.638   5.996 -0.0942  0.3686  0.0137
  147SAPE  H11A16143   2.972   1.531   5.969  2.5095  0.3606 -0.8049
  147SAPE  H11B16144   2.961   1.694   5.902  1.1176 -0.2326 -0.5837
  147SAPE     P16145   2.848   1.625   6.230  0.2171 -0.2931  0.1313
  147SAPE   O1316146   2.716   1.684   6.274  0.3955 -0.1763 -0.0533
  147SAPE   O1416147   2.849   1.476   6.239 -0.3354 -0.3316 -0.3105
  147SAPE   O1216148   2.880   1.679   6.087  0.1282  0.1366 -0.1219
  147SAPE   O1116149   2.962   1.690   6.316 -0.5017 -0.4611  0.7282
  147SAPE    C116150   3.050   1.613   6.397 -0.1666  0.5509 -0.2668
  147SAPE    HA16151   3.065   1.508   6.363  2.8493  0.8307 -0.0525
  147SAPE    HB16152   3.154   1.651   6.404  0.6359 -1.6518  0.5909
  147SAPE    C216153   2.994   1.608   6.540  0.1777 -0.2019 -0.7817
  147SAPE    HS16154   2.884   1.593   6.536 -0.1892  1.7153  0.7641
  147SAPE   O2116155   3.028   1.726   6.613  0.3308  0.5644 -0.2309
  147SAPE   C2116156   2.926   1.811   6.640  0.3234 -0.0383  0.0530
  147SAPE   O2216157   2.817   1.803   6.586 -0.0778  0.3812 -0.5517
  147SAPE   C2216158   2.972   1.913   6.734 -0.1417 -0.1058 -0.4249
  147SAPE   H2R16159   3.050   1.975   6.685  1.4289 -1.5986  0.0776
  147SAPE   H2S16160   2.886   1.981   6.753 -1.0311 -1.3751  0.2212
  147SAPE    C316161   3.049   1.485   6.624  0.3506 -0.5015 -0.2830
  147SAPE    HX16162   3.158   1.498   6.606  0.6030  0.4169  1.7275
  147SAPE    HY16163   3.014   1.389   6.579  0.5107 -1.8437  2.3071
  147SAPE   O3116164   3.038   1.485   6.770 -0.3773  0.2883  0.0597
  147SAPE   C3116165   2.923   1.462   6.813  0.0147  0.7387  0.4061
  147SAPE   O3216166   2.817   1.441   6.749  0.4542 -0.9457 -0.5237
  147SAPE   C3216167   2.929   1.473   6.964  0.3006 -0.3577  0.0121
  147SAPE   H2X16168   2.947   1.582   6.980  0.2503 -0.1922 -1.0119
  147SAPE   H2Y16169   3.016   1.419   7.006  0.4720  0.4440  0.7317
  147SAPE   C2316170   3.021   1.842   6.863 -0.5458 -0.0949  0.4815
  147SAPE   H3R16171   3.114   1.791   6.832  0.0223  1.9035 -1.4143
  147SAPE   H3S16172   2.945   1.777   6.911  0.7411 -1.2852  0.9382
  147SAPE   C2416173   3.076   1.944   6.960 -0.1772 -0.5621  0.0498
  147SAPE   H4R16174   3.152   1.999   6.900  2.6606 -2.5554  1.5734
  147SAPE   H4S16175   3.131   1.888   7.039 -2.9272 -1.3401  1.5245
  147SAPE   C2516176   2.974   2.041   7.015  0.3125 -0.7052 -0.7615
  147SAPE   H5R16177   2.928   2.107   6.939  0.2306  1.9968  1.4702
  147SAPE   C2616178   2.926   2.059   7.139  0.2186  0.0328  0.7409
  147SAPE   H6R16179   2.876   2.154   7.161 -0.6942 -1.1170  4.4295
  147SAPE   C2716180   2.971   1.989   7.270  0.3141 -0.1852  0.1898
  147SAPE   H7R16181   3.022   2.065   7.334  2.6577 -1.3741 -0.1488
  147SAPE   H7S16182   3.044   1.907   7.255  0.5633  0.2981 -1.4645
  147SAPE   C2816183   2.854   1.926   7.337 -1.1558 -0.0867  0.6390
  147SAPE   H8R16184   2.842   1.824   7.300  2.4879 -1.0607  1.7521
  147SAPE   C2916185   2.761   1.968   7.432  0.4091 -0.3972  0.2977
  147SAPE   H9R16186   2.677   1.905   7.463  1.2787 -2.0841 -0.6453
  147SAPE  C21016187   2.770   2.109   7.494 -0.5969  0.2313  0.0074
  147SAPE  H10R16188   2.701   2.177   7.439 -0.7995 -0.0408 -0.0734
  147SAPE  H10S16189   2.869   2.154   7.470 -1.3362  0.9626 -1.8951
  147SAPE  C21116190   2.733   2.095   7.635 -0.2785 -0.0860 -0.7929
  147SAPE  H11R16191   2.635   2.139   7.659  0.0968  0.8387 -0.9196
  147SAPE  C21216192   2.820   2.059   7.735 -0.8307 -0.1052  0.0635
  147SAPE  H12R16193   2.783   2.049   7.838 -2.1477 -0.9721 -0.4733
  147SAPE  C21316194   2.962   2.015   7.713 -0.0394  0.7167  0.6932
  147SAPE  H13R16195   3.028   2.095   7.753 -0.3688  0.5932  1.5107
  147SAPE  H13S16196   2.981   2.018   7.603 -1.5992 -3.2871  0.1600
  147SAPE  C21416197   2.993   1.880   7.760  0.0465  0.1673 -0.6066
  147SAPE  H14R16198   2.917   1.806   7.730 -0.6805  0.5225  0.3280
  147SAPE  C21516199   3.103   1.830   7.820  0.6497  0.2467  0.1577
  147SAPE  H15R16200   3.113   1.721   7.829 -0.7376  0.1558  1.0346
  147SAPE  C21616201   3.224   1.909   7.857  0.1532 -0.4017 -0.6431
  147SAPE  H16R16202   3.206   2.014   7.825  1.5294 -0.7212 -2.6440
  147SAPE  H16S16203   3.309   1.866   7.799 -0.2694 -0.2684 -1.3792
  147SAPE  C21716204   3.254   1.903   8.013 -0.5283 -0.0804  0.2560
  147SAPE  H17R16205   3.165   1.952   8.059 -0.5913  0.2059 -0.1671
  147SAPE  H17S16206   3.347   1.964   8.021 -0.4141  0.3208 -3.0105
  147SAPE  C21816207   3.270   1.774   8.094 -0.4045  0.5293 -0.2750
  147SAPE  H18R16208   3.349   1.720   8.038  0.8234  0.9857  0.9548
  147SAPE  H18S16209   3.181   1.707   8.091 -0.3110  0.4283 -0.7360
  147SAPE  C21916210   3.327   1.812   8.236  0.8720 -0.2537 -0.4451
  147SAPE  H19R16211   3.414   1.880   8.228  0.5303  0.4290  1.2105
  147SAPE  H19S16212   3.357   1.715   8.280 -1.8534 -0.5816  0.9185
  147SAPE  C22016213   3.217   1.874   8.330  0.6809 -0.2095 -0.4522
  147SAPE  H20R16214   3.166   1.959   8.278  1.4301  0.3721 -0.2514
  147SAPE  H20S16215   3.276   1.912   8.416  2.8095 -1.0653 -1.4825
  147SAPE  H20T16216   3.147   1.794   8.363  0.1097 -0.7535 -2.8279
  147SAPE   C3316217   2.792   1.449   7.038 -0.2420  0.5569  0.1601
  147SAPE   H3X16218   2.749   1.350   7.014 -0.1450  0.1620  1.5183
  147SAPE   H3Y16219   2.730   1.529   6.990 -0.6137 -1.1768 -2.4395
  147SAPE   C3416220   2.799   1.478   7.187  0.4533  0.4653  0.1527
  147SAPE   H4X16221   2.837   1.577   7.219  0.4694  0.4642  0.1377
  147SAPE   H4Y16222   2.865   1.398   7.230 -1.3961 -1.4590 -0.4245
  147SAPE   C3516223   2.659   1.451   7.257 -0.8564  0.5329 -0.4263
  147SAPE   H5X16224   2.631   1.344   7.240 -2.7656  1.1506 -1.4015
  147SAPE   H5Y16225   2.593   1.531   7.218 -0.2469  1.3424  0.1938
  147SAPE   C3616226   2.674   1.458   7.410 -0.1089  1.0536 -0.2089
  147SAPE   H6X16227   2.731   1.370   7.446 -1.8864  0.1905  0.6122
  147SAPE   H6Y16228   2.572   1.448   7.454  0.5027 -1.5290  0.8499
  147SAPE   C3716229   2.741   1.578   7.471 -0.1087  0.8621  0.4213
  147SAPE   H7X16230   2.669   1.660   7.448 -0.2705  0.1705 -1.8127
  147SAPE   H7Y16231   2.837   1.603   7.422 -0.7342 -1.0050 -1.9595
  147SAPE   C3816232   2.774   1.570   7.620 -0.4082 -0.0998 -0.2075
  147SAPE   H8X16233   2.782   1.673   7.662 -2.8605  0.2252 -0.3963
  147SAPE   H8Y16234   2.872   1.518   7.625  0.9610  2.4148  3.0565
  147SAPE   C3916235   2.677   1.508   7.720  0.3018  0.8984 -0.0988
  147SAPE   H9X16236   2.626   1.414   7.690 -1.2772  1.4658  0.7066
  147SAPE   H9Y16237   2.588   1.574   7.725 -0.2069  0.3479 -1.4284
  147SAPE  C31016238   2.737   1.474   7.856 -0.3513  0.2960  0.1879
  147SAPE  H10X16239   2.780   1.564   7.905  0.3355 -0.0559  0.2480
  147SAPE  H10Y16240   2.820   1.400   7.844  0.3464  0.8096  1.6495
  147SAPE  C31116241   2.631   1.411   7.959 -0.0039 -0.7771  0.1293
  147SAPE  H11X16242   2.686   1.356   8.038  1.2098 -1.0788 -0.8865
  147SAPE  H11Y16243   2.572   1.339   7.898 -2.1960 -0.0267  1.2585
  147SAPE  C31216244   2.545   1.519   8.024 -1.1428 -0.3830 -0.3534
  147SAPE  H12X16245   2.486   1.561   7.939  0.4066  0.7476 -0.9174
  147SAPE  H12Y16246   2.613   1.598   8.062 -1.9600 -0.2955  0.9657
  147SAPE  C31316247   2.454   1.483   8.141 -0.2725 -0.0847  0.4652
  147SAPE  H13X16248   2.384   1.405   8.105  0.7377 -0.3868 -0.9461
  147SAPE  H13Y16249   2.397   1.575   8.166 -0.5069  0.1733 -0.9333
  147SAPE  C31416250   2.537   1.435   8.259 -0.0465 -0.0861 -0.1752
  147SAPE  H14X16251   2.607   1.514   8.295  0.9321 -1.3079  0.7011
  147SAPE  H14Y16252   2.602   1.354   8.220  1.4207  0.2742  1.3942
  147SAPE  C31516253   2.454   1.380   8.374  0.3556 -0.3538 -0.1692
  147SAPE  H15X16254   2.392   1.293   8.342  0.2917 -0.3115 -0.1602
  147SAPE  H15Y16255   2.386   1.451   8.425 -1.3043 -1.8139 -0.2570
  147SAPE  C31616256   2.545   1.328   8.485  0.4663  0.0055  0.1130
  147SAPE  H16X16257   2.586   1.409   8.549 -2.7895  1.0340  1.0417
  147SAPE  H16Y16258   2.628   1.271   8.438  0.3641  1.2452 -1.7127
  147SAPE  C31716259   2.464   1.242   8.584  0.3287  0.8146  0.2194
  147SAPE  H17X16260   2.411   1.158   8.535 -0.0779  1.6185 -0.7483
  147SAPE  H17Y16261   2.372   1.298   8.612 -0.5290 -0.1435 -0.6264
  147SAPE  C31816262   2.554   1.203   8.700  0.1295 -0.1212  0.1884
  147SAPE  H18X16263   2.579   1.284   8.772 -0.6263 -0.4900  0.8735
  147SAPE  H18Y16264   2.652   1.168   8.662 -0.5726  0.4723 -2.4041
  147SAPE  H18Z16265   2.500   1.133   8.767 -1.0528 -1.8154 -2.3948
  148SAPE     N16266   1.943   2.014   6.092 -0.3350  0.0516  0.1237
  148SAPE   HN116267   1.859   2.018   6.154  0.6014 -1.3172  1.5542
  148SAPE   HN216268   1.923   1.943   6.019 -1.4814 -0.1553  0.6158
  148SAPE   HN316269   2.022   1.981   6.152  0.5146 -0.7665 -1.3982
  148SAPE   C1216270   1.985   2.145   6.026  0.2123 -0.1613  0.8740
  148SAPE  H12A16271   1.954   2.151   5.920  0.5399 -1.2656  0.7004
  148SAPE  H12B16272   2.095   2.144   6.018  0.2889  1.3026  1.4580
  148SAPE   C1116273   1.935   2.258   6.113 -0.3156  0.5396 -0.0263
  148SAPE  H11A16274   1.972   2.358   6.080 -0.9130  0.6574 -0.3556
  148SAPE  H11B16275   1.985   2.245   6.211 -1.6327 -0.2989  0.5529
  148SAPE     P16276   1.724   2.382   6.194 -0.0378 -0.1799  0.1370
  148SAPE   O1316277   1.768   2.491   6.113 -0.4936 -0.0233 -0.7295
  148SAPE   O1416278   1.579   2.362   6.197  0.4825 -0.0463  0.0494
  148SAPE   O1216279   1.793   2.251   6.137 -0.8064  0.2595 -0.2598
  148SAPE   O1116280   1.784   2.386   6.339 -0.0211  0.0563  0.0430
  148SAPE    C116281   1.758   2.274   6.424 -0.5230 -0.4658 -0.2286
  148SAPE    HA16282   1.650   2.249   6.428 -0.7062  0.3894  0.6209
  148SAPE    HB16283   1.810   2.180   6.396 -0.9645 -1.1929  1.2631
  148SAPE    C216284   1.806   2.293   6.572  0.2730 -0.2965  0.4211
  148SAPE    HS16285   1.772   2.216   6.644 -2.5822 -0.2102 -0.7352
  148SAPE   O2116286   1.753   2.419   6.618 -0.5544 -0.0995  0.1941
  148SAPE   C2116287   1.620   2.427   6.639  0.0882  0.1639 -0.1917
  148SAPE   O2216288   1.540   2.335   6.645 -0.1691  0.5249 -0.5499
  148SAPE   C2216289   1.594   2.572   6.675  0.7108 -0.2333  0.0953
  148SAPE   H2R16290   1.621   2.647   6.597 -0.5717 -0.9108 -1.0340
  148SAPE   H2S16291   1.490   2.582   6.713  0.6626 -0.6812  0.0813
  148SAPE    C316292   1.965   2.308   6.567  0.2680 -0.4533  0.7152
  148SAPE    HX16293   1.981   2.381   6.485 -1.7083 -0.2014  0.5161
  148SAPE    HY16294   2.005   2.211   6.532  0.3393 -0.4219  0.7077
  148SAPE   O3116295   2.017   2.353   6.700  0.0022  0.2901  0.2467
  148SAPE   C3116296   2.055   2.483   6.707  0.0869 -0.8893 -0.7083
  148SAPE   O3216297   2.029   2.576   6.628 -1.0284  0.7111 -0.4146
  148SAPE   C3216298   2.133   2.491   6.844  0.0471 -0.1295 -0.4052
  148SAPE   H2X16299   2.201   2.577   6.857  0.8737 -0.9294  0.8032
  148SAPE   H2Y16300   2.207   2.408   6.839 -0.2191 -0.5353  1.6432
  148SAPE   C2316301   1.682   2.620   6.793 -0.6524 -0.4648  0.1657
  148SAPE   H3R16302   1.667   2.727   6.820  1.1863 -0.5161  1.6500
  148SAPE   H3S16303   1.791   2.615   6.769 -1.0267  1.1727 -2.0896
  148SAPE   C2416304   1.638   2.546   6.923  0.0490 -0.2909  0.6309
  148SAPE   H4R16305   1.693   2.450   6.933  0.2418 -0.0282  2.3022
  148SAPE   H4S16306   1.529   2.528   6.917  0.1642 -1.7019  2.2619
  148SAPE   C2516307   1.664   2.611   7.053 -0.1624 -0.6197  0.6172
  148SAPE   H5R16308   1.724   2.547   7.120  0.7760 -0.3807  0.0224
  148SAPE   C2616309   1.612   2.723   7.105 -0.6913 -0.6255 -0.0535
  148SAPE   H6R16310   1.628   2.739   7.212 -0.7810 -2.5709  0.2808
  148SAPE   C2716311   1.515   2.823   7.044  1.0462  0.0163  0.3526
  148SAPE   H7R16312   1.419   2.797   7.094  1.4131  0.3764  1.2749
  148SAPE   H7S16313   1.492   2.807   6.937 -0.0733  1.4298  0.3499
  148SAPE   C2816314   1.536   2.969   7.057  0.3518 -0.7842  0.0021
  148SAPE   H8R16315   1.542   3.025   6.963  0.8256 -0.3437  0.2914
  148SAPE   C2916316   1.530   3.042   7.171  1.1102 -0.5323  0.1239
  148SAPE   H9R16317   1.551   3.150   7.176 -0.4121 -0.2312  4.0372
  148SAPE  C21016318   1.515   2.994   7.311  0.0369  0.4626  0.2102
  148SAPE  H10R16319   1.586   3.039   7.384 -0.7948 -1.4384  2.3183
  148SAPE  H10S16320   1.545   2.887   7.318  1.3790  0.8314  0.5186
  148SAPE  C21116321   1.374   3.018   7.361  0.5026  0.0760  0.0093
  148SAPE  H11R16322   1.292   3.014   7.287  0.9874 -0.0596 -0.5262
  148SAPE  C21216323   1.344   3.039   7.489 -0.4514 -0.6634 -0.0917
  148SAPE  H12R16324   1.239   3.060   7.513 -0.4966 -0.8274 -0.1481
  148SAPE  C21316325   1.443   3.035   7.604  0.1965 -0.5611  0.5351
  148SAPE  H13R16326   1.445   3.137   7.648 -0.0586  0.8433 -2.4540
  148SAPE  H13S16327   1.546   3.014   7.569  0.0533  1.0929 -1.0078
  148SAPE  C21416328   1.402   2.932   7.704 -0.6603  0.6954  0.0814
  148SAPE  H14R16329   1.370   2.832   7.669 -0.7136 -0.1408  2.3189
  148SAPE  C21516330   1.395   2.956   7.830 -0.4270  0.2618 -0.3126
  148SAPE  H15R16331   1.358   2.875   7.894 -2.3518  1.2454 -0.1229
  148SAPE  C21616332   1.432   3.088   7.894 -0.1857  0.5080  0.8184
  148SAPE  H16R16333   1.348   3.160   7.889 -0.4172  0.2736  1.2790
  148SAPE  H16S16334   1.522   3.132   7.846 -1.0643  1.8131  0.2878
  148SAPE  C21716335   1.459   3.069   8.038  0.0660  0.3053  0.4643
  148SAPE  H17R16336   1.503   3.165   8.072  0.1823  1.6752 -3.1616
  148SAPE  H17S16337   1.542   2.995   8.052  0.2920 -0.3595 -3.3002
  148SAPE  C21816338   1.341   3.033   8.134 -0.1099 -0.4412  0.5900
  148SAPE  H18R16339   1.285   2.953   8.083  0.5401 -0.5402  0.0207
  148SAPE  H18S16340   1.281   3.126   8.132  0.8020  0.1638  0.5476
  148SAPE  C21916341   1.396   2.997   8.272  0.1473 -0.7054  0.0112
  148SAPE  H19R16342   1.498   3.042   8.280  0.5700 -1.5671 -0.3553
  148SAPE  H19S16343   1.412   2.887   8.272 -0.1621 -0.7776  2.1117
  148SAPE  C22016344   1.306   3.028   8.385 -0.0914 -0.2521 -0.1419
  148SAPE  H20R16345   1.216   2.964   8.384 -0.6790  0.5533  0.3662
  148SAPE  H20S16346   1.258   3.128   8.378 -1.2411 -0.7885 -0.0970
  148SAPE  H20T16347   1.357   3.023   8.483  0.1916 -0.3853 -0.2931
  148SAPE   C3316348   2.032   2.463   6.953 -0.1717  0.0759 -0.4219
  148SAPE   H3X16349   1.977   2.368   6.937  0.2740 -0.0171 -1.4699
  148SAPE   H3Y16350   1.960   2.548   6.955 -0.4438 -0.1530  1.4655
  148SAPE   C3416351   2.088   2.452   7.098 -0.0270 -0.6738  0.5365
  148SAPE   H4X16352   2.140   2.549   7.118 -1.1154 -0.3289  1.8508
  148SAPE   H4Y16353   2.153   2.363   7.103  1.9806  0.6621 -0.3158
  148SAPE   C3516354   1.977   2.440   7.202  0.3008  0.2341  0.0059
  148SAPE   H5X16355   1.928   2.340   7.195 -0.5500  0.6929 -0.9396
  148SAPE   H5Y16356   1.898   2.512   7.171 -2.1631 -1.9484  0.8789
  148SAPE   C3616357   2.034   2.468   7.340  0.2452 -0.2860 -0.0933
  148SAPE   H6X16358   2.096   2.560   7.338  0.7501 -0.5759  1.2564
  148SAPE   H6Y16359   2.098   2.379   7.357  1.6305  0.6407 -0.3230
  148SAPE   C3716360   1.930   2.468   7.460 -0.4003  0.1622 -0.6596
  148SAPE   H7X16361   1.842   2.536   7.450 -0.2995  0.7057  1.7192
  148SAPE   H7Y16362   1.988   2.519   7.539 -0.5360 -0.8618  0.1215
  148SAPE   C3816363   1.884   2.329   7.513 -0.4891 -0.4436 -0.3085
  148SAPE   H8X16364   1.965   2.254   7.517  0.2914  0.4218  1.2316
  148SAPE   H8Y16365   1.814   2.294   7.435 -0.9260  2.3124 -1.2814
  148SAPE   C3916366   1.818   2.335   7.653 -0.0077  0.1730  0.9586
  148SAPE   H9X16367   1.740   2.256   7.644  1.3752 -1.2012  0.4869
  148SAPE   H9Y16368   1.763   2.431   7.659 -3.3197 -1.4673 -0.4295
  148SAPE  C31016369   1.918   2.310   7.762  0.2344 -0.0140 -0.0101
  148SAPE  H10X16370   2.015   2.358   7.736  0.2553 -0.3739 -0.6019
  148SAPE  H10Y16371   1.932   2.201   7.779 -0.6634 -0.2109 -0.4902
  148SAPE  C31116372   1.897   2.374   7.895  0.2404 -0.4355 -0.2607
  148SAPE  H11X16373   1.974   2.336   7.966 -0.9634 -1.6203  0.4747
  148SAPE  H11Y16374   1.802   2.339   7.941  0.4608  0.5777  1.0379
  148SAPE  C31216375   1.897   2.527   7.909 -0.2777  0.5872  0.2989
  148SAPE  H12X16376   1.809   2.570   7.858  0.3608  1.5736  0.0014
  148SAPE  H12Y16377   1.988   2.566   7.858 -1.2536 -0.4964 -2.4584
  148SAPE  C31316378   1.907   2.576   8.051 -0.6130  0.2243 -0.0307
  148SAPE  H13X16379   1.973   2.514   8.115 -1.3033  0.2869  0.7647
  148SAPE  H13Y16380   1.802   2.562   8.086 -0.4521 -1.1911 -0.0284
  148SAPE  C31416381   1.954   2.721   8.065 -0.7132  0.4996 -0.7962
  148SAPE  H14X16382   1.902   2.795   8.002 -2.2967 -0.2688 -0.4306
  148SAPE  H14Y16383   2.059   2.739   8.032  0.1026 -0.4931  1.0882
  148SAPE  C31516384   1.934   2.754   8.210 -0.2206  0.0295 -0.2352
  148SAPE  H15X16385   1.987   2.852   8.210  0.1628 -0.1778 -0.1240
  148SAPE  H15Y16386   1.995   2.682   8.269  0.6195  1.3081  0.4968
  148SAPE  C31616387   1.799   2.791   8.260  0.5106  0.4472 -0.5156
  148SAPE  H16X16388   1.738   2.698   8.261 -0.9451  1.0933  4.7959
  148SAPE  H16Y16389   1.751   2.862   8.190 -1.4914  0.7073  0.9969
  148SAPE  C31716390   1.802   2.830   8.410  0.5155 -0.3812 -0.0935
  148SAPE  H17X16391   1.861   2.756   8.469 -0.0190 -0.1489  0.7510
  148SAPE  H17Y16392   1.697   2.822   8.444  0.3411  0.7558 -0.3144
  148SAPE  C31816393   1.843   2.974   8.445 -0.5359 -0.7714 -0.5829
  148SAPE  H18X16394   1.776   3.038   8.384  0.9008  1.5626  0.1715
  148SAPE  H18Y16395   1.947   3.008   8.423 -0.3385 -0.4998  0.7059
  148SAPE  H18Z16396   1.818   2.993   8.552 -0.3039 -1.2489 -0.4368
  149SAPE     N16397   6.208   2.876   6.489 -0.6255  0.7412 -0.4968
  149SAPE   HN116398   6.112   2.876   6.531 -0.3138 -3.5748  0.6763
  149SAPE   HN216399   6.196   2.804   6.414 -0.4225  0.3779 -0.1814
  149SAPE   HN316400   6.278   2.844   6.559 -2.7802  0.9545  1.9316
  149SAPE   C1216401   6.245   3.007   6.439  0.4237 -0.4309 -0.1654
  149SAPE  H12A16402   6.181   3.017   6.349 -1.6208 -1.1055  1.1498
  149SAPE  H12B16403   6.354   2.995   6.419  0.4953 -1.8412  0.8866
  149SAPE   C1116404   6.201   3.114   6.542  0.9261  0.0762 -0.4573
  149SAPE  H11A16405   6.273   3.196   6.524  0.1472  0.1149 -4.1969
  149SAPE  H11B16406   6.224   3.092   6.648  2.8428 -1.5856 -1.1411
  149SAPE     P16407   5.940   3.091   6.575  0.6176 -0.1800  0.0321
  149SAPE   O1316408   5.821   3.123   6.486 -0.6186  0.6203 -0.2466
  149SAPE   O1416409   5.965   2.947   6.599  0.2800  0.1295  0.1413
  149SAPE   O1216410   6.068   3.157   6.507 -0.5852 -0.4489  0.4194
  149SAPE   O1116411   5.923   3.180   6.707 -0.8934  0.1981 -0.1939
  149SAPE    C116412   5.946   3.320   6.726 -0.0325 -0.1883 -0.4070
  149SAPE    HA16413   6.033   3.329   6.795 -0.7803  0.3359  0.5061
  149SAPE    HB16414   5.991   3.371   6.639  1.7069 -0.0618  0.5196
  149SAPE    C216415   5.828   3.403   6.776 -0.1135 -0.2090 -0.8721
  149SAPE    HS16416   5.836   3.509   6.744  1.9589  1.3561  3.9175
  149SAPE   O2116417   5.834   3.416   6.919 -0.0226 -0.2960 -0.4107
  149SAPE   C2116418   5.765   3.523   6.972 -0.0113  0.6736  0.2002
  149SAPE   O2216419   5.721   3.617   6.906  0.0835  0.1339  0.0561
  149SAPE   C2216420   5.758   3.496   7.128  0.4976  0.4734 -0.0428
  149SAPE   H2R16421   5.709   3.397   7.136 -0.3254  0.8942  0.2739
  149SAPE   H2S16422   5.863   3.495   7.164 -0.2229  0.1522  2.2760
  149SAPE    C316423   5.688   3.345   6.727 -0.0180 -0.2995 -0.1052
  149SAPE    HX16424   5.703   3.238   6.751  0.8273 -0.7825 -2.4897
  149SAPE    HY16425   5.687   3.369   6.618  1.6330 -0.2097 -0.1398
  149SAPE   O3116426   5.573   3.400   6.797  0.1341  0.2490  0.3276
  149SAPE   C3116427   5.467   3.352   6.731 -0.6318  0.0436 -0.1305
  149SAPE   O3216428   5.459   3.283   6.634 -0.4205  0.1715 -0.7776
  149SAPE   C3216429   5.346   3.400   6.812 -0.1428  0.1349 -0.1947
  149SAPE   H2X16430   5.281   3.440   6.731 -0.0117  0.7638  0.0036
  149SAPE   H2Y16431   5.360   3.489   6.877 -1.4029 -1.0461  1.8379
  149SAPE   C2316432   5.680   3.597   7.220 -0.3189 -0.1513 -0.9681
  149SAPE   H3R16433   5.581   3.560   7.254 -0.6234 -0.8547 -2.5191
  149SAPE   H3S16434   5.672   3.694   7.166 -1.2929 -1.2496 -2.9137
  149SAPE   C2416435   5.764   3.632   7.336 -0.1777 -0.0237  0.0747
  149SAPE   H4R16436   5.722   3.722   7.386  1.1371 -0.2389  1.6672
  149SAPE   H4S16437   5.859   3.677   7.300  0.0691 -0.5655  0.0252
  149SAPE   C2516438   5.790   3.522   7.433  0.3403 -0.3887 -0.1425
  149SAPE   H5R16439   5.874   3.455   7.412  0.1048 -0.1860 -1.8297
  149SAPE   C2616440   5.725   3.498   7.548  0.1158 -0.3575 -0.3977
  149SAPE   H6R16441   5.742   3.410   7.611 -0.2788 -1.1749 -1.4122
  149SAPE   C2716442   5.607   3.578   7.604  0.6080  0.3730  0.3209
  149SAPE   H7R16443   5.534   3.496   7.622 -0.6051  0.9657 -1.5635
  149SAPE   H7S16444   5.566   3.631   7.515  1.1551 -1.4519 -1.1033
  149SAPE   C2816445   5.632   3.673   7.724  0.4261 -0.7573  0.2998
  149SAPE   H8R16446   5.674   3.771   7.701  0.1081 -0.8809 -0.8583
  149SAPE   C2916447   5.608   3.642   7.854 -0.0995 -0.1953 -0.5285
  149SAPE   H9R16448   5.628   3.717   7.932  0.8831 -1.1146  0.1377
  149SAPE  C21016449   5.554   3.512   7.900  0.3658 -0.6081 -0.3471
  149SAPE  H10R16450   5.614   3.470   7.984 -0.1832 -0.4498  0.1372
  149SAPE  H10S16451   5.559   3.434   7.822 -2.0748  0.9731 -2.2219
  149SAPE  C21116452   5.410   3.509   7.942  0.2922 -0.0719  0.0643
  149SAPE  H11R16453   5.342   3.471   7.863  1.2363 -1.7035 -0.0106
  149SAPE  C21216454   5.371   3.526   8.064  0.2558  0.5902  0.0306
  149SAPE  H12R16455   5.264   3.513   8.083  0.7368 -0.6322  2.2445
  149SAPE  C21316456   5.459   3.553   8.184 -0.4236 -0.0820 -0.3769
  149SAPE  H13R16457   5.393   3.609   8.254 -1.1066  0.4605 -1.4175
  149SAPE  H13S16458   5.555   3.602   8.158  1.2335 -3.3817 -0.9724
  149SAPE  C21416459   5.501   3.418   8.243 -0.5721  0.0911 -0.2359
  149SAPE  H14R16460   5.517   3.337   8.170  0.4936  0.6411 -0.6363
  149SAPE  C21516461   5.518   3.397   8.373  0.3438 -0.0258  0.7429
  149SAPE  H15R16462   5.571   3.309   8.411 -0.5223 -0.7469  0.3241
  149SAPE  C21616463   5.500   3.508   8.480  0.4186  0.3616  0.1939
  149SAPE  H16R16464   5.402   3.500   8.532  0.8603 -2.1595  0.7527
  149SAPE  H16S16465   5.501   3.613   8.443 -0.7191  2.0676  4.3717
  149SAPE  C21716466   5.614   3.509   8.583  0.8191 -0.1009  0.2520
  149SAPE  H17R16467   5.624   3.611   8.624  0.3895  0.9659 -2.0933
  149SAPE  H17S16468   5.707   3.497   8.523  1.1265  2.2627  0.1724
  149SAPE  C21816469   5.614   3.390   8.682 -0.1332 -0.6243  0.4435
  149SAPE  H18R16470   5.707   3.335   8.653 -0.0148 -0.9084  1.3331
  149SAPE  H18S16471   5.524   3.328   8.662 -0.7267  0.2542  0.3546
  149SAPE  C21916472   5.608   3.454   8.826 -0.6085  0.7582  0.0827
  149SAPE  H19R16473   5.523   3.526   8.830 -0.6246  0.8504 -1.2694
  149SAPE  H19S16474   5.704   3.507   8.844  0.7724 -1.5514 -0.0874
  149SAPE  C22016475   5.577   3.345   8.922 -0.2700  0.7117  0.0445
  149SAPE  H20R16476   5.470   3.356   8.952 -1.0197  1.3960 -2.6066
  149SAPE  H20S16477   5.652   3.329   9.002 -0.2033  0.1796 -0.1164
  149SAPE  H20T16478   5.581   3.247   8.870 -1.8817  1.0103 -0.6973
  149SAPE   C3316479   5.271   3.290   6.902  0.4147 -0.1942  0.2450
  149SAPE   H3X16480   5.306   3.189   6.873 -0.2815 -0.4233  0.2016
  149SAPE   H3Y16481   5.164   3.307   6.876  0.2991 -1.4720 -0.1579
  149SAPE   C3416482   5.300   3.309   7.048  0.0707  0.3181 -0.1301
  149SAPE   H4X16483   5.273   3.411   7.084 -4.6172 -0.4116 -0.9472
  149SAPE   H4Y16484   5.411   3.304   7.058  0.0336 -1.0766 -0.2150
  149SAPE   C3516485   5.225   3.214   7.146 -0.8988 -0.2153 -0.2905
  149SAPE   H5X16486   5.262   3.114   7.117  2.3553  1.0926 -1.0451
  149SAPE   H5Y16487   5.119   3.229   7.116 -1.2763 -1.6106  0.2629
  149SAPE   C3616488   5.277   3.252   7.286 -0.3402 -0.3361 -0.0341
  149SAPE   H6X16489   5.228   3.348   7.312  0.4629  0.1158 -0.1606
  149SAPE   H6Y16490   5.386   3.271   7.291 -0.1526 -1.5386  1.1331
  149SAPE   C3716491   5.239   3.163   7.402  0.1728  0.0906  0.1638
  149SAPE   H7X16492   5.265   3.059   7.374  1.2697  0.6364 -0.9464
  149SAPE   H7Y16493   5.129   3.161   7.421  0.4431  0.0523  1.9279
  149SAPE   C3816494   5.319   3.192   7.531 -0.1353 -1.3502  0.5856
  149SAPE   H8X16495   5.291   3.294   7.564  1.8549 -0.4589 -0.2713
  149SAPE   H8Y16496   5.421   3.218   7.496 -0.6968  3.1632  1.6718
  149SAPE   C3916497   5.297   3.092   7.640 -0.3987  0.5162 -0.0111
  149SAPE   H9X16498   5.347   2.997   7.612  0.4625  0.8983  0.1893
  149SAPE   H9Y16499   5.191   3.060   7.655  0.4092 -1.9202  0.9214
  149SAPE  C31016500   5.368   3.143   7.766 -0.4139 -0.2437 -0.4003
  149SAPE  H10X16501   5.315   3.239   7.777  0.4328  0.0261  1.7690
  149SAPE  H10Y16502   5.476   3.153   7.742 -0.3042 -0.4392 -0.0076
  149SAPE  C31116503   5.351   3.052   7.882 -0.5783 -0.0926 -0.4244
  149SAPE  H11X16504   5.393   2.952   7.861  0.7169  0.8636 -2.8954
  149SAPE  H11Y16505   5.247   3.014   7.895 -0.7484  0.4421 -0.1742
  149SAPE  C31216506   5.400   3.110   8.011  0.6203 -0.2842 -0.1293
  149SAPE  H12X16507   5.351   3.209   8.026 -2.4044 -1.8109  0.9331
  149SAPE  H12Y16508   5.509   3.130   8.021  0.2894  0.5812  3.1527
  149SAPE  C31316509   5.362   3.025   8.132  0.0243  0.2862  0.4836
  149SAPE  H13X16510   5.409   2.925   8.121  0.7554  0.6876 -0.1649
  149SAPE  H13Y16511   5.254   3.002   8.134  0.1561 -0.4308 -0.2731
  149SAPE  C31416512   5.387   3.093   8.268  0.2349 -0.9909 -0.7774
  149SAPE  H14X16513   5.352   3.198   8.256  2.3745 -0.3225 -1.6705
  149SAPE  H14Y16514   5.495   3.099   8.293  0.3242  0.2390 -1.3349
  149SAPE  C31516515   5.312   3.034   8.386  0.1088  0.0301  1.1814
  149SAPE  H15X16516   5.338   2.927   8.403 -1.0244 -0.2099  1.4959
  149SAPE  H15Y16517   5.203   3.035   8.363  0.1278  0.4533  1.1180
  149SAPE  C31616518   5.322   3.095   8.528  0.4981  0.3855 -0.6122
  149SAPE  H16X16519   5.313   3.205   8.521  1.1321  0.4641 -0.2507
  149SAPE  H16Y16520   5.422   3.073   8.572  0.5269 -0.0766 -0.8940
  149SAPE  C31716521   5.205   3.029   8.616 -0.8999 -0.2997  0.1233
  149SAPE  H17X16522   5.225   2.920   8.607  2.0729  0.1797 -0.1071
  149SAPE  H17Y16523   5.107   3.058   8.572 -0.8748  1.2659  1.0370
  149SAPE  C31816524   5.206   3.071   8.765 -0.4661  0.1794  0.4845
  149SAPE  H18X16525   5.201   3.182   8.779  0.3246  0.5297 -1.5891
  149SAPE  H18Y16526   5.306   3.038   8.801 -0.6985 -0.2815  0.7017
  149SAPE  H18Z16527   5.129   3.019   8.824  0.8241 -0.4401  1.6853
  150SAPE     N16528   1.122   2.950   6.189 -0.3758  0.2702 -0.2401
  150SAPE   HN116529   1.190   3.005   6.246 -1.1447  2.9661 -1.7400
  150SAPE   HN216530   1.138   2.978   6.090  0.8697 -2.6550 -0.9922
  150SAPE   HN316531   1.023   2.974   6.206 -0.6121 -0.4456 -0.5694
  150SAPE   C1216532   1.156   2.801   6.196 -0.0179 -0.1873  0.0385
  150SAPE  H12A16533   1.267   2.794   6.197 -0.1325 -3.0447  0.6112
  150SAPE  H12B16534   1.118   2.749   6.106 -2.0094 -3.2556  2.4213
  150SAPE   C1116535   1.102   2.737   6.322  0.6337 -0.6784 -0.4773
  150SAPE  H11A16536   1.148   2.777   6.415  1.9111 -0.2780 -1.2710
  150SAPE  H11B16537   1.117   2.627   6.319 -2.2768 -1.1574 -2.5687
  150SAPE     P16538   0.863   2.646   6.277  0.0621 -0.5070  0.0855
  150SAPE   O1316539   0.723   2.675   6.327 -0.0083  0.4092 -0.4790
  150SAPE   O1416540   0.882   2.632   6.132  0.8871 -0.0913  0.1311
  150SAPE   O1216541   0.957   2.763   6.327 -0.0885  0.2984 -0.1980
  150SAPE   O1116542   0.914   2.519   6.352  0.0841  0.0811  1.1837
  150SAPE    C116543   0.843   2.452   6.461  0.2652 -0.1674  0.4166
  150SAPE    HA16544   0.758   2.515   6.495 -0.7711  0.4197 -2.9200
  150SAPE    HB16545   0.788   2.359   6.435 -0.7299  0.5932 -0.2504
  150SAPE    C216546   0.957   2.427   6.577 -0.1957  0.1838 -0.3523
  150SAPE    HS16547   0.914   2.375   6.665 -0.1772 -2.5358 -1.8403
  150SAPE   O2116548   1.031   2.543   6.615  0.1545 -0.4264 -0.2793
  150SAPE   C2116549   0.963   2.637   6.688  0.8497  0.1400  0.0088
  150SAPE   O2216550   0.850   2.626   6.734  0.1975  0.4081 -0.1933
  150SAPE   C2216551   1.044   2.761   6.700 -0.6692 -0.5564  0.2682
  150SAPE   H2R16552   1.086   2.800   6.605  1.6878 -0.7522  1.1696
  150SAPE   H2S16553   0.970   2.833   6.743  0.7775 -0.0605  2.0541
  150SAPE    C316554   1.054   2.330   6.512  0.1597  0.2961  0.4079
  150SAPE    HX16555   1.126   2.384   6.446  0.3250 -0.3021  0.0982
  150SAPE    HY16556   1.002   2.253   6.452  0.2150  0.2026  0.4804
  150SAPE   O3116557   1.131   2.267   6.621 -0.5022 -0.0637  0.5909
  150SAPE   C3116558   1.226   2.177   6.585  0.1490 -0.7135  0.2819
  150SAPE   O3216559   1.265   2.156   6.470  0.2545 -0.6086  0.1620
  150SAPE   C3216560   1.289   2.122   6.713  0.2421  0.1872 -0.2760
  150SAPE   H2X16561   1.387   2.173   6.718 -0.5288  1.8004 -1.0156
  150SAPE   H2Y16562   1.303   2.018   6.677 -0.8562  0.4225 -1.4556
  150SAPE   C2316563   1.148   2.741   6.807 -0.3160 -0.1344 -0.3750
  150SAPE   H3R16564   1.216   2.830   6.806 -1.8853  1.1957  1.7390
  150SAPE   H3S16565   1.213   2.654   6.786 -0.5835 -0.9501  1.8560
  150SAPE   C2416566   1.077   2.742   6.948 -0.4050  0.5095  0.1349
  150SAPE   H4R16567   0.997   2.667   6.967 -0.9150  1.6199  2.9646
  150SAPE   H4S16568   1.017   2.836   6.954 -1.8543 -0.1235 -2.6792
  150SAPE   C2516569   1.171   2.727   7.060  0.8952  0.5888 -0.1744
  150SAPE   H5R16570   1.261   2.671   7.027  0.8431  1.0756 -1.1788
  150SAPE   C2616571   1.162   2.751   7.193 -0.1738  0.5188 -0.4023
  150SAPE   H6R16572   1.246   2.723   7.257 -1.1604 -0.8763  0.3344
  150SAPE   C2716573   1.032   2.805   7.257 -0.2737  0.2066 -0.3744
  150SAPE   H7R16574   0.962   2.851   7.184 -2.4074 -0.9528  0.8490
  150SAPE   H7S16575   1.056   2.866   7.346 -1.0518 -1.0863  0.7545
  150SAPE   C2816576   0.963   2.676   7.301  0.1412  0.0530  0.1174
  150SAPE   H8R16577   0.950   2.602   7.220  0.1625 -1.2773  1.2865
  150SAPE   C2916578   0.916   2.637   7.424 -0.0741 -0.5145 -0.6091
  150SAPE   H9R16579   0.865   2.541   7.439 -1.3406  0.3174  0.5995
  150SAPE  C21016580   0.913   2.723   7.548  0.3495  0.1003  0.1629
  150SAPE  H10R16581   0.812   2.727   7.594  1.1145  1.2965  1.8695
  150SAPE  H10S16582   0.947   2.829   7.539  0.5301 -0.0290 -0.8515
  150SAPE  C21116583   1.008   2.666   7.646 -0.7732  0.1874  0.3407
  150SAPE  H11R16584   1.083   2.595   7.607 -0.6487 -0.9109  2.4516
  150SAPE  C21216585   1.016   2.685   7.775 -0.0482 -0.5532 -0.0356
  150SAPE  H12R16586   1.078   2.615   7.833  0.9315  1.1958  1.1359
  150SAPE  C21316587   0.929   2.777   7.856  0.1153 -0.5203 -0.7570
  150SAPE  H13R16588   0.899   2.869   7.800  0.6928 -0.2347 -0.6088
  150SAPE  H13S16589   0.993   2.806   7.942 -0.9270 -1.4280  0.3553
  150SAPE  C21416590   0.806   2.715   7.906  0.6745  0.2656  0.4276
  150SAPE  H14R16591   0.750   2.645   7.841  1.3170 -0.0915  0.2545
  150SAPE  C21516592   0.758   2.710   8.032 -0.7408  0.0063 -0.2920
  150SAPE  H15R16593   0.674   2.644   8.059 -1.5895  1.3647  0.5199
  150SAPE  C21616594   0.819   2.783   8.150  0.3168 -0.2400  0.0535
  150SAPE  H16R16595   0.894   2.860   8.125  2.8676 -2.2238  1.1171
  150SAPE  H16S16596   0.871   2.708   8.213 -1.2826 -1.0806  0.4516
  150SAPE  C21716597   0.698   2.853   8.228 -0.8019  0.9045 -0.2895
  150SAPE  H17R16598   0.636   2.767   8.263  0.9643 -0.3943 -0.2106
  150SAPE  H17S16599   0.650   2.916   8.150 -1.7894  0.2278 -0.2472
  150SAPE  C21816600   0.740   2.950   8.341  0.0109 -0.1711 -0.1780
  150SAPE  H18R16601   0.750   3.053   8.300  0.2258 -1.2765 -3.1105
  150SAPE  H18S16602   0.838   2.912   8.377  0.6562 -0.0319 -1.7067
  150SAPE  C21916603   0.634   2.940   8.453 -0.8488  0.0125  0.1238
  150SAPE  H19R16604   0.629   2.831   8.477  0.1469 -0.4443 -1.5614
  150SAPE  H19S16605   0.529   2.960   8.424 -0.4168  2.4717  0.0943
  150SAPE  C22016606   0.681   3.017   8.577  0.3869  1.0288  0.2191
  150SAPE  H20R16607   0.779   2.972   8.602 -0.3226 -0.5662  0.2654
  150SAPE  H20S16608   0.611   3.015   8.663  3.4062 -0.0301  2.8636
  150SAPE  H20T16609   0.693   3.121   8.538  0.2103  0.6993 -0.7564
  150SAPE   C3316610   1.193   2.123   6.833  0.5597  0.6667  0.5092
  150SAPE   H3X16611   1.217   2.037   6.899 -0.6300  2.4339  3.4295
  150SAPE   H3Y16612   1.090   2.110   6.792 -0.1742  2.3746  1.7050
  150SAPE   C3416613   1.194   2.248   6.913 -0.0878 -0.2212  0.9234
  150SAPE   H4X16614   1.161   2.331   6.847 -2.7763 -2.2267 -0.4686
  150SAPE   H4Y16615   1.298   2.266   6.948  0.1218 -1.3900  0.9453
  150SAPE   C3516616   1.102   2.243   7.031 -0.0710 -0.2686 -0.4596
  150SAPE   H5X16617   1.081   2.135   7.050  0.5769 -0.5428 -1.2643
  150SAPE   H5Y16618   1.010   2.298   7.003 -2.1493 -2.2706  1.8320
  150SAPE   C3616619   1.170   2.299   7.157  0.5223 -0.1747 -0.0175
  150SAPE   H6X16620   1.210   2.401   7.143 -0.1802  0.3138  1.3032
  150SAPE   H6Y16621   1.248   2.228   7.192  0.3129 -0.5247 -0.2567
  150SAPE   C3716622   1.065   2.312   7.270  0.9997 -0.2731 -0.2769
  150SAPE   H7X16623   1.013   2.410   7.267  1.8364  0.3723  2.7448
  150SAPE   H7Y16624   1.132   2.319   7.358  0.9895  1.3121 -0.3701
  150SAPE   C3816625   0.958   2.202   7.273 -1.0806 -0.6543  0.9360
  150SAPE   H8X16626   0.994   2.096   7.280  0.8237  0.0215  2.4401
  150SAPE   H8Y16627   0.901   2.214   7.179  2.3171  2.7183 -0.9556
  150SAPE   C3916628   0.869   2.213   7.402  0.0938 -0.3435  0.0186
  150SAPE   H9X16629   0.780   2.153   7.375  0.1801 -0.3161 -0.3320
  150SAPE   H9Y16630   0.854   2.322   7.410 -1.1457 -0.3217 -2.1447
  150SAPE  C31016631   0.932   2.166   7.532  0.2907  0.7568  0.1182
  150SAPE  H10X16632   1.023   2.228   7.550  1.0724  0.0266 -1.1034
  150SAPE  H10Y16633   0.954   2.058   7.521  0.0548  0.7857 -0.7054
  150SAPE  C31116634   0.835   2.198   7.643  0.4375  0.2906 -0.0508
  150SAPE  H11X16635   0.745   2.133   7.636  1.2577 -1.1468  1.6830
  150SAPE  H11Y16636   0.806   2.305   7.639  2.3293  0.8267 -0.8836
  150SAPE  C31216637   0.890   2.150   7.777 -0.3380 -0.2878 -0.5740
  150SAPE  H12X16638   0.993   2.188   7.790 -0.5187  0.1296 -0.3235
  150SAPE  H12Y16639   0.892   2.040   7.789 -1.6055 -0.4803 -1.8689
  150SAPE  C31316640   0.794   2.208   7.885  0.6399 -0.1331  0.1172
  150SAPE  H13X16641   0.700   2.149   7.888  1.1390 -0.9394  2.1850
  150SAPE  H13Y16642   0.760   2.313   7.870 -2.9638 -1.0931  0.5577
  150SAPE  C31416643   0.849   2.202   8.027  0.3376 -0.6873  0.0300
  150SAPE  H14X16644   0.948   2.253   8.031  0.0812  0.0346 -1.8344
  150SAPE  H14Y16645   0.871   2.101   8.066 -1.8635 -1.0451  0.4580
  150SAPE  C31516646   0.756   2.268   8.126  0.0169  0.6434 -0.3946
  150SAPE  H15X16647   0.670   2.199   8.143  1.2468 -0.7549  0.3201
  150SAPE  H15Y16648   0.722   2.356   8.067  1.4658  0.8481 -0.9699
  150SAPE  C31616649   0.815   2.307   8.261 -0.3876 -0.2634 -0.1987
  150SAPE  H16X16650   0.862   2.217   8.305  1.3019 -0.1419 -1.6095
  150SAPE  H16Y16651   0.737   2.355   8.324  0.0854  0.8210 -0.4107
  150SAPE  C31716652   0.925   2.419   8.245 -0.8986  0.0192 -0.0092
  150SAPE  H17X16653   0.881   2.494   8.177 -1.3657 -0.7806 -0.6081
  150SAPE  H17Y16654   1.016   2.369   8.203 -0.6336 -1.7007  2.3796
  150SAPE  C31816655   0.969   2.483   8.378  0.3789 -0.1375 -0.7854
  150SAPE  H18X16656   1.040   2.420   8.436  1.4259  1.7390  0.0776
  150SAPE  H18Y16657   0.890   2.503   8.453  2.8555  1.2567  1.6532
  150SAPE  H18Z16658   1.017   2.579   8.349 -1.4879  1.0518 -0.1023
  151SAPE     N16659   2.633   1.909   6.390  0.9488 -0.0648 -0.3826
  151SAPE   HN116660   2.707   1.908   6.462  1.4530  0.5378 -0.8794
  151SAPE   HN216661   2.660   1.833   6.324  0.2210  1.1197 -2.1463
  151SAPE   HN316662   2.643   2.000   6.339  2.3694 -0.6144 -1.1286
  151SAPE   C1216663   2.500   1.885   6.455 -0.2576  0.5022 -0.3434
  151SAPE  H12A16664   2.500   1.956   6.541  2.3990 -2.8973  2.8348
  151SAPE  H12B16665   2.505   1.787   6.508 -1.4661 -0.1054 -1.3125
  151SAPE   C1116666   2.397   1.891   6.345 -0.3041  0.3557  0.0916
  151SAPE  H11A16667   2.306   1.849   6.392  1.2671 -2.5271  0.7791
  151SAPE  H11B16668   2.426   1.818   6.268  0.7339  2.3162 -1.4812
  151SAPE     P16669   2.265   2.103   6.272  0.4381  0.2876 -0.3388
  151SAPE   O1316670   2.297   2.213   6.179  0.0909 -0.7043 -1.1110
  151SAPE   O1416671   2.152   2.017   6.233  0.7876  0.3863  0.5186
  151SAPE   O1216672   2.396   2.020   6.286  0.5464 -0.0696  0.0512
  151SAPE   O1116673   2.231   2.148   6.418 -0.6780  0.1321  0.1848
  151SAPE    C116674   2.308   2.256   6.468  0.2174 -0.3078  0.2468
  151SAPE    HA16675   2.400   2.276   6.408 -0.5483  0.7404 -0.6038
  151SAPE    HB16676   2.237   2.341   6.477 -1.3328 -1.6720  1.7752
  151SAPE    C216677   2.364   2.220   6.610  0.1997  0.5748  0.2092
  151SAPE    HS16678   2.433   2.133   6.602 -1.2647 -0.7745  1.5450
  151SAPE   O2116679   2.248   2.186   6.690  0.6098  0.5675 -0.1376
  151SAPE   C2116680   2.228   2.056   6.717  0.6304  0.0472 -0.2789
  151SAPE   O2216681   2.289   1.963   6.665 -0.6259 -0.2259 -0.4789
  151SAPE   C2216682   2.113   2.038   6.808 -0.1261  0.2597 -0.7557
  151SAPE   H2R16683   2.093   2.121   6.880 -0.0116  0.5351 -1.0369
  151SAPE   H2S16684   2.024   2.030   6.741 -0.0534  1.6991 -1.0663
  151SAPE    C316685   2.441   2.341   6.668 -0.1548  0.1475 -0.2207
  151SAPE    HX16686   2.372   2.423   6.638 -1.9987 -0.8070  1.1784
  151SAPE    HY16687   2.536   2.363   6.615  1.4413  1.7847  3.0282
  151SAPE   O3116688   2.460   2.346   6.809 -0.2449  0.0240  0.0268
  151SAPE   C3116689   2.574   2.275   6.854 -0.4298 -0.4852 -0.2894
  151SAPE   O3216690   2.645   2.212   6.784  0.3719 -0.3555 -0.2373
  151SAPE   C3216691   2.580   2.303   7.009 -0.5438  0.5458  0.5328
  151SAPE   H2X16692   2.575   2.412   7.026 -0.5578  0.8954 -1.4690
  151SAPE   H2Y16693   2.676   2.252   7.034 -0.0570 -0.1488 -2.2778
  151SAPE   C2316694   2.114   1.900   6.884  0.8647 -0.1342 -0.3547
  151SAPE   H3R16695   2.213   1.889   6.932  0.4189  1.4259  1.0065
  151SAPE   H3S16696   2.114   1.823   6.804 -0.4885 -0.2186 -0.3012
  151SAPE   C2416697   2.001   1.883   6.979  0.1396  0.7766  0.0056
  151SAPE   H4R16698   1.995   1.971   7.047  0.8447  0.9192 -0.1093
  151SAPE   H4S16699   2.028   1.799   7.047 -1.5684 -0.1476 -0.4037
  151SAPE   C2516700   1.866   1.849   6.915 -0.1001  0.1755  0.2564
  151SAPE   H5R16701   1.849   1.746   6.880  3.5863 -1.4619  2.6568
  151SAPE   C2616702   1.756   1.932   6.902 -0.6108 -0.4520  0.1388
  151SAPE   H6R16703   1.655   1.900   6.873 -0.6571  1.3425 -1.8796
  151SAPE   C2716704   1.767   2.086   6.932  0.3078  0.4291 -0.3919
  151SAPE   H7R16705   1.830   2.138   6.857  0.1791  0.0654 -0.7568
  151SAPE   H7S16706   1.828   2.092   7.024 -0.5292  1.4159  0.1208
  151SAPE   C2816707   1.632   2.157   6.940 -0.0195 -0.0788  0.6961
  151SAPE   H8R16708   1.576   2.171   6.847 -2.1550  0.0569  1.9473
  151SAPE   C2916709   1.574   2.188   7.061 -0.0293  0.4767  0.0236
  151SAPE   H9R16710   1.477   2.241   7.065 -0.1615  0.1777  1.1907
  151SAPE  C21016711   1.633   2.146   7.196  0.2398  0.3695 -0.9056
  151SAPE  H10R16712   1.717   2.218   7.212 -0.4772  0.9522  0.3979
  151SAPE  H10S16713   1.680   2.046   7.187 -0.9165 -0.2759 -0.0590
  151SAPE  C21116714   1.540   2.149   7.320  0.2493 -0.0716 -0.2776
  151SAPE  H11R16715   1.504   2.055   7.364  0.6642  0.1867  0.6365
  151SAPE  C21216716   1.492   2.261   7.386 -1.1473  0.0393  0.3452
  151SAPE  H12R16717   1.420   2.250   7.468 -0.2078  1.9077  1.4822
  151SAPE  C21316718   1.527   2.396   7.350 -0.4238  0.0295 -0.4988
  151SAPE  H13R16719   1.546   2.399   7.240  0.1115  0.6306 -0.3900
  151SAPE  H13S16720   1.621   2.426   7.399 -1.1985 -0.9984  1.7340
  151SAPE  C21416721   1.413   2.488   7.366  0.2018 -0.1831  0.1096
  151SAPE  H14R16722   1.337   2.486   7.286  0.3904 -0.1595 -0.0724
  151SAPE  C21516723   1.391   2.572   7.467  0.8768 -0.3032 -0.1761
  151SAPE  H15R16724   1.300   2.633   7.472  1.0366  0.0081 -0.9758
  151SAPE  C21616725   1.492   2.582   7.579  0.1377 -0.1608 -0.2308
  151SAPE  H16R16726   1.510   2.690   7.596 -1.5103 -0.1001  1.4800
  151SAPE  H16S16727   1.592   2.536   7.561  0.4674  0.4111  0.1093
  151SAPE  C21716728   1.420   2.534   7.707 -0.0597  0.2568 -0.2781
  151SAPE  H17R16729   1.386   2.429   7.691  3.0882 -1.0516  0.8437
  151SAPE  H17S16730   1.331   2.592   7.738  0.8239  1.1255  0.7190
  151SAPE  C21816731   1.518   2.506   7.822 -0.2492 -0.4239 -0.7986
  151SAPE  H18R16732   1.592   2.587   7.838 -0.9845  0.1695 -0.3234
  151SAPE  H18S16733   1.588   2.424   7.794 -0.0158 -0.2101 -0.8492
  151SAPE  C21916734   1.454   2.477   7.957 -0.1938 -0.6102  0.4308
  151SAPE  H19R16735   1.534   2.446   8.027 -0.3961 -0.9881  0.4932
  151SAPE  H19S16736   1.390   2.388   7.940 -0.8529  0.0254 -0.5368
  151SAPE  C22016737   1.367   2.589   8.019  1.2229  0.1139 -0.0128
  151SAPE  H20R16738   1.278   2.549   8.073  1.4957 -0.4588  0.0126
  151SAPE  H20S16739   1.420   2.670   8.074 -2.0028  1.9885  0.6067
  151SAPE  H20T16740   1.316   2.638   7.932 -0.0331 -2.4328 -0.7898
  151SAPE   C3316741   2.464   2.229   7.093  0.7243  0.1834 -0.0282
  151SAPE   H3X16742   2.462   2.121   7.068  0.4136  0.4005 -1.0072
  151SAPE   H3Y16743   2.366   2.257   7.048 -0.7231 -2.0367  1.5263
  151SAPE   C3416744   2.457   2.239   7.240 -0.3032  0.7922  0.1289
  151SAPE   H4X16745   2.524   2.165   7.287  0.9334  1.4542 -0.5409
  151SAPE   H4Y16746   2.351   2.224   7.268 -0.0625  0.3945  0.8266
  151SAPE   C3516747   2.473   2.379   7.300  0.0933 -0.4207  0.0618
  151SAPE   H5X16748   2.413   2.451   7.239 -1.4508 -0.2913  1.6479
  151SAPE   H5Y16749   2.575   2.421   7.287 -0.2599  0.6592  0.5995
  151SAPE   C3616750   2.434   2.387   7.444  0.4793  0.4147 -0.1056
  151SAPE   H6X16751   2.483   2.300   7.493  0.6904  0.4457 -0.2624
  151SAPE   H6Y16752   2.327   2.370   7.468  0.7454 -0.6100  0.4108
  151SAPE   C3716753   2.484   2.518   7.513  0.0036  0.3351  0.5610
  151SAPE   H7X16754   2.423   2.602   7.474 -0.3627 -0.5669 -0.8521
  151SAPE   H7Y16755   2.589   2.537   7.480 -0.1818 -0.3827 -0.4819
  151SAPE   C3816756   2.480   2.512   7.667  0.5422 -0.7474 -0.1393
  151SAPE   H8X16757   2.552   2.582   7.715  0.2268 -0.2290 -0.4214
  151SAPE   H8Y16758   2.527   2.415   7.694  1.3616 -0.1058  0.8031
  151SAPE   C3916759   2.340   2.527   7.723  0.3904 -0.3400  0.4197
  151SAPE   H9X16760   2.267   2.472   7.660  1.5346  0.2773 -1.5137
  151SAPE   H9Y16761   2.303   2.631   7.712  1.3396  0.2906  2.5597
  151SAPE  C31016762   2.310   2.488   7.869 -0.4185 -0.0624 -1.0698
  151SAPE  H10X16763   2.215   2.537   7.900  0.9890  2.3920 -0.3382
  151SAPE  H10Y16764   2.391   2.533   7.931  0.1985 -0.4061 -1.6166
  151SAPE  C31116765   2.297   2.336   7.888 -0.4819 -0.7261 -0.2276
  151SAPE  H11X16766   2.391   2.281   7.865  1.1648  1.7603  0.1578
  151SAPE  H11Y16767   2.217   2.306   7.817  0.8015 -0.0303 -2.0561
  151SAPE  C31216768   2.242   2.300   8.031 -0.7092 -0.0838 -0.4170
  151SAPE  H12X16769   2.183   2.207   8.022 -0.4764 -0.1503 -1.5114
  151SAPE  H12Y16770   2.175   2.383   8.061 -1.1750 -0.1896 -1.1427
  151SAPE  C31316771   2.339   2.278   8.139 -1.1192  0.7268 -0.7010
  151SAPE  H13X16772   2.410   2.201   8.101 -0.6877 -1.0263  3.1734
  151SAPE  H13Y16773   2.304   2.234   8.235  0.4453  1.0134  0.0493
  151SAPE  C31416774   2.424   2.400   8.188  0.3403 -0.8677  0.5739
  151SAPE  H14X16775   2.359   2.488   8.169  1.2992 -0.5759 -1.6134
  151SAPE  H14Y16776   2.519   2.415   8.133  0.0143  0.2431  0.3024
  151SAPE  C31516777   2.479   2.400   8.331  0.0877  0.5977  0.1497
  151SAPE  H15X16778   2.404   2.382   8.410 -0.9744  1.9534 -0.5110
  151SAPE  H15Y16779   2.526   2.498   8.353  1.8737 -0.0677 -0.5151
  151SAPE  C31616780   2.596   2.288   8.353  0.3092 -0.0960  0.0520
  151SAPE  H16X16781   2.583   2.208   8.277 -0.0094 -0.0817  0.0934
  151SAPE  H16Y16782   2.581   2.248   8.456 -0.1983  0.6532  0.2740
  151SAPE  C31716783   2.737   2.343   8.335 -0.5178  0.0288 -0.3004
  151SAPE  H17X16784   2.735   2.431   8.402 -0.4392 -1.2361  1.4464
  151SAPE  H17Y16785   2.757   2.375   8.230  0.7154  2.1097  0.5096
  151SAPE  C31816786   2.853   2.242   8.370 -0.5452 -0.4668 -0.3771
  151SAPE  H18X16787   2.842   2.152   8.306 -2.0577 -0.0748 -0.7282
  151SAPE  H18Y16788   2.849   2.209   8.476 -0.7829 -0.9736 -0.5416
  151SAPE  H18Z16789   2.958   2.275   8.355 -1.1747  1.3699 -1.0889
  152SAPE     N16790   6.798   3.073   6.356 -0.1224  0.0367 -0.0849
  152SAPE   HN116791   6.866   2.994   6.352  1.3381  1.2936 -1.1702
  152SAPE   HN216792   6.703   3.048   6.323 -1.3886  1.9479  1.8464
  152SAPE   HN316793   6.829   3.157   6.303 -0.2088  0.7932  1.0287
  152SAPE   C1216794   6.772   3.096   6.507  0.5574 -0.0541 -0.1104
  152SAPE  H12A16795   6.858   3.157   6.543  0.0304  0.9095 -0.4603
  152SAPE  H12B16796   6.776   2.994   6.553  0.0798 -0.1684 -0.3256
  152SAPE   C1116797   6.639   3.175   6.525 -0.2759 -0.2344  0.2682
  152SAPE  H11A16798   6.628   3.194   6.634  2.3156 -2.3883  1.0247
  152SAPE  H11B16799   6.550   3.112   6.505 -1.2563  1.4568 -0.8939
  152SAPE     P16800   6.513   3.384   6.456 -0.1293  0.2792 -0.0776
  152SAPE   O1316801   6.562   3.524   6.440 -0.6654 -0.3594  0.2863
  152SAPE   O1416802   6.427   3.333   6.345 -0.4018  0.4240  0.0210
  152SAPE   O1216803   6.644   3.297   6.452 -0.4537 -0.1841 -0.1250
  152SAPE   O1116804   6.447   3.362   6.598 -0.6603 -0.1099  0.1244
  152SAPE    C116805   6.396   3.484   6.667 -0.0608  0.2376  0.1253
  152SAPE    HA16806   6.333   3.543   6.598 -0.2326 -0.5300 -0.3771
  152SAPE    HB16807   6.324   3.436   6.737  1.1138 -2.9678 -0.7008
  152SAPE    C216808   6.500   3.556   6.750 -0.0561  0.3516  0.5829
  152SAPE    HS16809   6.599   3.543   6.701 -0.6420 -0.8255 -0.3529
  152SAPE   O2116810   6.503   3.499   6.880  0.7219 -0.2956 -0.0227
  152SAPE   C2116811   6.615   3.514   6.940  0.1858 -0.0409  0.8678
  152SAPE   O2216812   6.705   3.592   6.909  0.4011  0.3126  0.9040
  152SAPE   C2216813   6.627   3.420   7.055 -0.4838 -0.0027 -1.0077
  152SAPE   H2R16814   6.649   3.489   7.139 -0.1428 -0.3512 -0.8064
  152SAPE   H2S16815   6.528   3.380   7.086  0.7953 -0.4050  3.1565
  152SAPE    C316816   6.460   3.706   6.763  0.3346 -0.4487  0.2162
  152SAPE    HX16817   6.445   3.740   6.658  0.1804 -1.0319  0.0459
  152SAPE    HY16818   6.537   3.758   6.823 -0.3598 -0.7577  1.4123
  152SAPE   O3116819   6.329   3.719   6.830 -0.6478 -0.4003 -0.4324
  152SAPE   C3116820   6.250   3.821   6.798 -0.1689 -0.1010 -0.2791
  152SAPE   O3216821   6.265   3.898   6.704 -0.5144  0.3921  0.1587
  152SAPE   C3216822   6.138   3.833   6.900  0.3205  0.7144  1.2490
  152SAPE   H2X16823   6.167   3.772   6.988  0.2140  0.8393  1.3713
  152SAPE   H2Y16824   6.050   3.778   6.863  0.7758  1.5580 -1.2428
  152SAPE   C2316825   6.735   3.315   7.040  0.4580 -0.5837 -0.1413
  152SAPE   H3R16826   6.831   3.363   7.013 -0.0798  1.0964  0.7642
  152SAPE   H3S16827   6.700   3.252   6.956  1.0447 -1.2395  0.0960
  152SAPE   C2416828   6.771   3.245   7.173  0.4575 -0.5873 -0.2380
  152SAPE   H4R16829   6.787   3.330   7.244 -3.2328 -0.8905  1.1775
  152SAPE   H4S16830   6.868   3.193   7.155  1.0856  0.9593 -1.6025
  152SAPE   C2516831   6.673   3.138   7.235 -0.5638  0.0866 -0.5710
  152SAPE   H5R16832   6.641   3.046   7.184 -2.9270  0.4664  0.1228
  152SAPE   C2616833   6.618   3.155   7.361 -0.5724 -0.0739 -0.0106
  152SAPE   H6R16834   6.548   3.074   7.389 -0.9497  0.5161  0.8057
  152SAPE   C2716835   6.637   3.266   7.456  0.3467  0.2517 -0.0877
  152SAPE   H7R16836   6.720   3.337   7.435  1.2655 -0.8204 -0.1723
  152SAPE   H7S16837   6.670   3.215   7.549  1.4207  2.5901  0.8904
  152SAPE   C2816838   6.505   3.336   7.486 -0.3528  0.0558  0.2941
  152SAPE   H8R16839   6.473   3.427   7.433 -2.1996 -0.7156 -0.0065
  152SAPE   C2916840   6.424   3.295   7.582  0.8468  0.0909  0.6911
  152SAPE   H9R16841   6.342   3.365   7.606  1.5104  0.9353  0.5328
  152SAPE  C21016842   6.427   3.183   7.677  0.0084 -0.1374 -0.2313
  152SAPE  H10R16843   6.472   3.102   7.616  0.7267 -0.0704  0.2100
  152SAPE  H10S16844   6.325   3.147   7.704 -0.0940 -1.1123 -1.8133
  152SAPE  C21116845   6.514   3.229   7.789  0.4089  0.2545 -0.8067
  152SAPE  H11R16846   6.618   3.254   7.764  0.4363  0.0333 -0.9220
  152SAPE  C21216847   6.462   3.241   7.916  0.1451  0.4285 -0.6884
  152SAPE  H12R16848   6.530   3.268   7.998  0.8024  0.4757 -1.2363
  152SAPE  C21316849   6.313   3.223   7.959  0.2605 -0.4081 -0.1477
  152SAPE  H13R16850   6.270   3.133   7.909 -1.3275  0.0617  0.3427
  152SAPE  H13S16851   6.256   3.311   7.924  2.6436  0.7973 -1.2621
  152SAPE  C21416852   6.294   3.203   8.111  0.0396 -0.8998 -0.1474
  152SAPE  H14R16853   6.256   3.103   8.137 -1.3440 -0.3614 -0.0387
  152SAPE  C21516854   6.327   3.293   8.208  0.4702 -0.1492  0.5296
  152SAPE  H15R16855   6.306   3.261   8.311 -0.0654 -2.4003 -0.2094
  152SAPE  C21616856   6.380   3.430   8.197  0.4272 -0.4971 -0.0556
  152SAPE  H16R16857   6.310   3.496   8.141 -0.6892  0.1030  1.9402
  152SAPE  H16S16858   6.459   3.436   8.119  0.0994  0.0900 -0.3442
  152SAPE  C21716859   6.434   3.504   8.319 -0.3844  0.4849  0.0107
  152SAPE  H17R16860   6.478   3.601   8.287  0.6830  0.5871  1.6519
  152SAPE  H17S16861   6.520   3.438   8.345  0.4114 -0.0335 -3.3888
  152SAPE  C21816862   6.339   3.516   8.437  0.6811  0.3796 -0.2148
  152SAPE  H18R16863   6.288   3.420   8.460  0.3519 -0.0150 -2.3799
  152SAPE  H18S16864   6.260   3.590   8.412 -0.2367 -0.7414 -0.7100
  152SAPE  C21916865   6.411   3.559   8.564  0.1146 -0.5602 -0.0061
  152SAPE  H19R16866   6.485   3.635   8.529  0.3575 -0.7616  0.0625
  152SAPE  H19S16867   6.476   3.483   8.613 -0.3334  0.5270  2.4633
  152SAPE  C22016868   6.337   3.630   8.684 -0.2326 -0.2981 -1.0071
  152SAPE  H20R16869   6.419   3.667   8.750 -0.9224 -0.9856  0.2700
  152SAPE  H20S16870   6.276   3.551   8.732 -1.6284  1.1438 -0.3597
  152SAPE  H20T16871   6.281   3.713   8.637 -0.6937 -0.1509 -0.2049
  152SAPE   C3316872   6.101   3.976   6.934 -0.3330 -0.5687 -0.0803
  152SAPE   H3X16873   6.082   4.039   6.843  0.0190 -0.3972 -0.0376
  152SAPE   H3Y16874   6.194   4.018   6.979 -0.0904 -1.1659 -0.0236
  152SAPE   C3416875   5.982   3.977   7.031 -0.6307 -0.1656 -0.4087
  152SAPE   H4X16876   5.889   3.924   7.001 -1.2688  0.7644 -0.1134
  152SAPE   H4Y16877   5.952   4.083   7.046 -0.7059 -0.4122  1.4122
  152SAPE   C3516878   6.029   3.938   7.179  0.2945  0.2605  0.5972
  152SAPE   H5X16879   6.131   3.981   7.189  1.0880 -1.3805 -0.0906
  152SAPE   H5Y16880   6.055   3.831   7.193 -2.1191 -0.4423  0.1547
  152SAPE   C3616881   5.914   3.970   7.283 -0.5823  0.9696  0.1881
  152SAPE   H6X16882   5.825   3.905   7.272  0.4663 -1.0267  2.4296
  152SAPE   H6Y16883   5.881   4.071   7.250 -2.1896  0.9119  1.4863
  152SAPE   C3716884   5.975   3.958   7.422 -0.2439 -0.1748 -0.6982
  152SAPE   H7X16885   6.033   3.863   7.424  0.2117  0.1018 -0.6068
  152SAPE   H7Y16886   5.898   3.960   7.503  0.1752  0.0988 -0.3042
  152SAPE   C3816887   6.088   4.058   7.467  0.3118  0.3455 -0.0895
  152SAPE   H8X16888   6.171   4.044   7.394 -1.5645  2.2099 -2.7546
  152SAPE   H8Y16889   6.140   4.033   7.562  0.4501  2.9983  0.6086
  152SAPE   C3916890   6.049   4.207   7.464  0.4726 -0.6835 -0.1732
  152SAPE   H9X16891   6.003   4.223   7.364  0.6075 -1.1222 -0.3063
  152SAPE   H9Y16892   6.140   4.269   7.485 -0.3905  0.3039  0.7779
  152SAPE  C31016893   5.939   4.239   7.562  0.3206  0.3524  0.8397
  152SAPE  H10X16894   5.837   4.201   7.537  0.9558 -1.3715  0.7056
  152SAPE  H10Y16895   5.925   4.348   7.573 -0.8474  0.1581  1.4469
  152SAPE  C31116896   5.973   4.197   7.707  0.0284  0.3638  0.2360
  152SAPE  H11X16897   6.083   4.192   7.720  0.3205  2.0860 -1.2184
  152SAPE  H11Y16898   5.927   4.098   7.729 -1.1767  0.8002 -0.2425
  152SAPE  C31216899   5.926   4.303   7.809 -0.2257  0.3730  0.3285
  152SAPE  H12X16900   5.845   4.361   7.759  0.2188  0.2356 -0.5731
  152SAPE  H12Y16901   6.020   4.359   7.828  0.2112 -1.0718  2.9047
  152SAPE  C31316902   5.869   4.243   7.931  0.6435 -0.4000 -0.4847
  152SAPE  H13X16903   5.933   4.153   7.946 -3.4869 -3.4652  0.4262
  152SAPE  H13Y16904   5.764   4.209   7.918  0.3714  0.5213 -0.7583
  152SAPE  C31416905   5.911   4.322   8.051  1.5414  0.0613 -0.2157
  152SAPE  H14X16906   5.845   4.409   8.073 -0.9983 -1.6741 -0.5290
  152SAPE  H14Y16907   6.018   4.353   8.042  1.7618 -0.5246  0.3312
  152SAPE  C31516908   5.905   4.239   8.186 -0.0869 -0.1302  0.1151
  152SAPE  H15X16909   5.961   4.144   8.171 -1.2302 -0.6288 -1.2698
  152SAPE  H15Y16910   5.806   4.192   8.205 -0.7945  1.1941 -0.2006
  152SAPE  C31616911   5.967   4.322   8.298  0.2232 -0.1292  0.1274
  152SAPE  H16X16912   5.932   4.426   8.281  1.9264  0.5742  0.7123
  152SAPE  H16Y16913   6.078   4.327   8.295  0.2286 -0.4011 -0.1998
  152SAPE  C31716914   5.932   4.271   8.440  0.3164 -0.0808  0.5035
  152SAPE  H17X16915   5.977   4.334   8.520 -1.0938  1.3826  0.2140
  152SAPE  H17Y16916   5.967   4.166   8.438 -1.0061 -0.5301 -0.9545
  152SAPE  C31816917   5.778   4.285   8.464  0.3340 -0.0355  0.0551
  152SAPE  H18X16918   5.746   4.379   8.414  0.9491  1.0248  1.5821
  152SAPE  H18Y16919   5.750   4.292   8.571 -0.2226  2.6077 -0.2168
  152SAPE  H18Z16920   5.726   4.202   8.411  1.6201 -0.8759  0.0596
  153SAPE     N16921   6.592   4.193   6.424 -0.6388  0.0271 -0.1430
  153SAPE   HN116922   6.514   4.133   6.459  0.8426 -0.6161  2.3294
  153SAPE   HN216923   6.657   4.198   6.505 -0.9541  1.0510  0.0680
  153SAPE   HN316924   6.555   4.289   6.405  0.5379  0.8411  1.3900
  153SAPE   C1216925   6.659   4.154   6.300  0.1357  0.7261 -0.0074
  153SAPE  H12A16926   6.584   4.161   6.217 -0.6411  1.5665  0.7458
  153SAPE  H12B16927   6.689   4.048   6.313 -1.1412  0.5159  1.4636
  153SAPE   C1116928   6.777   4.244   6.266 -0.4524 -0.0583 -0.1571
  153SAPE  H11A16929   6.739   4.347   6.285 -2.8650 -0.9903  0.3798
  153SAPE  H11B16930   6.809   4.239   6.159  0.0624  0.2656 -0.0254
  153SAPE     P16931   6.973   4.089   6.315  0.4186  0.1121  0.1200
  153SAPE   O1316932   6.922   3.968   6.385  0.1386 -0.3031  0.0402
  153SAPE   O1416933   6.983   4.082   6.168 -0.4697 -0.6948  0.3069
  153SAPE   O1216934   6.889   4.218   6.350 -0.0402  0.2967  0.5417
  153SAPE   O1116935   7.120   4.118   6.359 -0.4991  0.4273  0.1690
  153SAPE    C116936   7.145   4.220   6.470  0.1904  0.1487  0.3249
  153SAPE    HA16937   7.179   4.316   6.427  0.6506 -0.6346 -1.1444
  153SAPE    HB16938   7.053   4.252   6.524 -1.9111 -2.0916 -1.6557
  153SAPE    C216939   7.266   4.173   6.562  0.3946 -0.9732  0.2937
  153SAPE    HS16940   7.329   4.106   6.499  1.0759  0.5915 -0.7549
  153SAPE   O2116941   7.215   4.088   6.667 -0.6433 -0.6712  0.9261
  153SAPE   C2116942   7.310   4.025   6.734  0.1685 -0.1873  0.1711
  153SAPE   O2216943   7.427   4.017   6.705 -0.1947  0.0303  0.3438
  153SAPE   C2216944   7.252   3.943   6.846  0.5044  0.0815 -0.1822
  153SAPE   H2R16945   7.238   4.008   6.936  0.9443  0.9309 -0.7172
  153SAPE   H2S16946   7.155   3.905   6.810  1.0311 -0.9084 -0.5754
  153SAPE    C316947   7.338   4.284   6.634  0.8812 -0.9101 -0.2728
  153SAPE    HX16948   7.368   4.357   6.557  0.3913  0.3516  0.6851
  153SAPE    HY16949   7.429   4.242   6.681  1.6961 -0.8286 -1.7298
  153SAPE   O3116950   7.248   4.357   6.721  0.1105  0.0322 -0.2184
  153SAPE   C3116951   7.264   4.351   6.852 -0.0174  0.0830 -0.3231
  153SAPE   O3216952   7.330   4.267   6.915  0.6113 -0.7451  0.0329
  153SAPE   C3216953   7.203   4.474   6.916  0.0182 -1.0921 -0.4961
  153SAPE   H2X16954   7.107   4.503   6.869  0.6637 -1.6604 -2.2295
  153SAPE   H2Y16955   7.279   4.555   6.910 -0.2998 -0.7673 -0.2223
  153SAPE   C2316956   7.332   3.808   6.870  0.2204 -0.8331  0.1799
  153SAPE   H3R16957   7.431   3.836   6.911 -0.7174  1.3777  1.1188
  153SAPE   H3S16958   7.350   3.757   6.774  0.3181 -2.1687  0.8859
  153SAPE   C2416959   7.263   3.711   6.975 -0.1466 -0.9099  0.7346
  153SAPE   H4R16960   7.309   3.613   6.950  1.0250 -0.2627  0.2743
  153SAPE   H4S16961   7.155   3.718   6.949 -0.0658  0.7931  0.7716
  153SAPE   C2516962   7.283   3.758   7.121  0.7113  0.1476 -0.2120
  153SAPE   H5R16963   7.375   3.723   7.169  1.5974  2.2701 -0.2718
  153SAPE   C2616964   7.191   3.810   7.208 -0.9114  0.1126  0.6564
  153SAPE   H6R16965   7.234   3.841   7.304  0.2974  1.0369 -0.1506
  153SAPE   C2716966   7.044   3.842   7.189  0.6929 -0.5557  0.5860
  153SAPE   H7R16967   7.043   3.903   7.096  1.2689 -1.8965 -0.3325
  153SAPE   H7S16968   6.999   3.910   7.263  3.7356  2.8104 -0.3541
  153SAPE   C2816969   6.953   3.713   7.171  0.2947 -0.2589  0.3813
  153SAPE   H8R16970   6.980   3.650   7.085  1.0583  0.4749  0.0658
  153SAPE   C2916971   6.851   3.670   7.252  0.3660  0.2458 -0.0318
  153SAPE   H9R16972   6.803   3.579   7.213 -0.7339  0.6650  0.2961
  153SAPE  C21016973   6.803   3.734   7.378  0.0556  0.1533 -0.3491
  153SAPE  H10R16974   6.713   3.680   7.413 -0.9723  2.0690  0.0932
  153SAPE  H10S16975   6.767   3.835   7.348  1.2637  0.2411 -1.6575
  153SAPE  C21116976   6.915   3.742   7.486  0.5564 -0.2290  0.3444
  153SAPE  H11R16977   7.016   3.732   7.444  0.7630  1.2016  0.4608
  153SAPE  C21216978   6.895   3.760   7.618  0.6377  0.1209 -0.3436
  153SAPE  H12R16979   6.989   3.759   7.675  0.3297  0.3295  0.1682
  153SAPE  C21316980   6.759   3.773   7.690 -0.3619 -0.0404  0.8342
  153SAPE  H13R16981   6.683   3.806   7.616  1.0505  0.8768 -0.2590
  153SAPE  H13S16982   6.775   3.853   7.766  1.6834  1.0844 -0.6683
  153SAPE  C21416983   6.720   3.647   7.751  0.5319 -0.4527 -0.5312
  153SAPE  H14R16984   6.731   3.560   7.684  0.3100 -1.9003  1.2490
  153SAPE  C21516985   6.664   3.629   7.878 -0.0142 -0.2916  0.8156
  153SAPE  H15R16986   6.635   3.529   7.913 -0.3072 -1.6301 -2.7983
  153SAPE  C21616987   6.639   3.747   7.975  0.4951  1.1865  0.1037
  153SAPE  H16R16988   6.533   3.753   8.006  0.5458  0.7672  0.3814
  153SAPE  H16S16989   6.666   3.849   7.941  2.9501 -0.3765 -3.2665
  153SAPE  C21716990   6.711   3.730   8.112  0.1114 -0.3461 -0.4046
  153SAPE  H17R16991   6.678   3.632   8.152 -0.8112 -0.0246 -0.3562
  153SAPE  H17S16992   6.682   3.813   8.180 -0.4044 -1.0225  0.2112
  153SAPE  C21816993   6.864   3.723   8.098 -0.4867  0.0400 -0.1470
  153SAPE  H18R16994   6.893   3.779   8.006  0.9092  1.5561  1.1594
  153SAPE  H18S16995   6.900   3.619   8.088 -1.1003 -0.3645  1.5947
  153SAPE  C21916996   6.945   3.785   8.213 -0.0611  0.5296 -0.1520
  153SAPE  H19R16997   6.889   3.879   8.232 -0.8238 -0.3013  2.0145
  153SAPE  H19S16998   7.051   3.802   8.183 -0.6066  0.1608 -2.5007
  153SAPE  C22016999   6.945   3.700   8.341 -0.4650  0.2810 -0.6609
  153SAPE  H20R17000   6.840   3.678   8.369  0.2259 -0.9232  1.1931
  153SAPE  H20S17001   7.009   3.748   8.418 -1.9381  0.3798  0.5456
  153SAPE  H20T17002   6.993   3.602   8.321 -2.1432 -0.3078 -2.0858
  153SAPE   C3317003   7.183   4.448   7.069  0.3310  0.0458 -0.7257
  153SAPE   H3X17004   7.181   4.549   7.115 -0.9505  1.5292 -3.7809
  153SAPE   H3Y17005   7.275   4.405   7.114 -0.4015  1.4828  2.3807
  153SAPE   C3417006   7.065   4.362   7.097  0.0845 -0.3401  0.6609
  153SAPE   H4X17007   7.080   4.260   7.055 -2.9837  0.3101 -2.4211
  153SAPE   H4Y17008   6.974   4.403   7.050  0.8346 -1.2218 -1.7259
  153SAPE   C3517009   7.035   4.344   7.251  0.1638  0.9672 -0.8643
  153SAPE   H5X17010   6.934   4.299   7.262  0.6534 -0.6765 -2.5969
  153SAPE   H5Y17011   7.036   4.439   7.307  1.6171  1.1751 -1.2183
  153SAPE   C3617012   7.144   4.272   7.335  0.1514 -0.0728 -0.2062
  153SAPE   H6X17013   7.237   4.328   7.311  0.0114 -0.1859 -1.0369
  153SAPE   H6Y17014   7.154   4.166   7.304 -1.8758 -0.3664  0.0319
  153SAPE   C3717015   7.106   4.282   7.486 -0.4514  0.2627  0.1562
  153SAPE   H7X17016   7.079   4.387   7.510  0.4569  0.5856 -0.2230
  153SAPE   H7Y17017   7.187   4.248   7.554 -1.3490 -0.7826  0.7542
  153SAPE   C3817018   6.988   4.199   7.528  0.4443 -0.0848 -0.4273
  153SAPE   H8X17019   6.985   4.100   7.478 -2.4538 -1.1828  1.6068
  153SAPE   H8Y17020   6.888   4.241   7.505 -0.5374 -3.0136 -2.0811
  153SAPE   C3917021   6.982   4.180   7.686 -0.4947 -0.0802  0.2102
  153SAPE   H9X17022   7.016   4.270   7.743  2.1660 -1.8517  1.6504
  153SAPE   H9Y17023   7.055   4.098   7.702 -1.6185 -0.9621  0.9166
  153SAPE  C31017024   6.841   4.139   7.734  0.8254 -1.0328  0.7674
  153SAPE  H10X17025   6.819   4.048   7.675 -0.5127  0.5365 -1.3151
  153SAPE  H10Y17026   6.768   4.219   7.706 -0.2705 -2.7510 -1.6892
  153SAPE  C31117027   6.826   4.094   7.877  0.4830  0.0370 -0.0109
  153SAPE  H11X17028   6.899   4.012   7.891  1.5087  0.1819 -3.3988
  153SAPE  H11Y17029   6.721   4.058   7.872  0.4716  0.2196 -1.9837
  153SAPE  C31217030   6.824   4.201   7.981 -0.0976  0.2264 -0.6605
  153SAPE  H12X17031   6.780   4.295   7.942  0.8314  0.4283 -1.2553
  153SAPE  H12Y17032   6.934   4.211   7.993 -0.2187 -0.2617  1.1979
  153SAPE  C31317033   6.746   4.143   8.104 -1.3776  0.1720  0.3913
  153SAPE  H13X17034   6.771   4.035   8.112 -2.1913 -0.0690 -0.1441
  153SAPE  H13Y17035   6.640   4.125   8.077 -1.2005 -2.5530  1.2716
  153SAPE  C31417036   6.768   4.235   8.227  0.0396  0.3898  0.0295
  153SAPE  H14X17037   6.876   4.252   8.244 -0.0529  0.7995  0.2368
  153SAPE  H14Y17038   6.726   4.184   8.317  3.4401  0.3520  1.7575
  153SAPE  C31517039   6.701   4.364   8.197  0.5479 -0.1223 -0.2664
  153SAPE  H15X17040   6.608   4.340   8.141  0.5453  1.9248 -1.2433
  153SAPE  H15Y17041   6.753   4.427   8.121  1.5887 -1.4569 -0.7162
  153SAPE  C31617042   6.664   4.438   8.321 -0.4922 -0.0794 -0.1184
  153SAPE  H16X17043   6.628   4.365   8.396  0.1750 -1.0328 -0.7066
  153SAPE  H16Y17044   6.590   4.519   8.303  0.1814  0.4458 -0.5981
  153SAPE  C31717045   6.784   4.511   8.392  0.5067  1.1136  0.2145
  153SAPE  H17X17046   6.803   4.600   8.327  0.8885 -0.8044 -2.4442
  153SAPE  H17Y17047   6.872   4.444   8.385 -0.6558 -0.3431 -0.8064
  153SAPE  C31817048   6.765   4.546   8.539  0.2198 -0.8580 -0.5878
  153SAPE  H18X17049   6.754   4.452   8.599 -1.3427 -0.9357 -0.9557
  153SAPE  H18Y17050   6.665   4.592   8.556  0.2770 -0.0239 -2.3875
  153SAPE  H18Z17051   6.833   4.622   8.583 -2.5322  1.2873  0.2750
  154SAPE     N17052   1.003   3.950   6.454 -0.8273 -0.0447  0.2660
  154SAPE   HN117053   1.044   3.953   6.358 -3.3812  1.1542 -0.9057
  154SAPE   HN217054   1.002   4.047   6.493  0.5277  0.7341 -1.4762
  154SAPE   HN317055   1.059   3.884   6.511 -2.2044 -0.8746  0.6917
  154SAPE   C1217056   0.856   3.912   6.454  0.6972 -0.3132 -0.4108
  154SAPE  H12A17057   0.835   3.894   6.562  0.0726  2.0789 -0.0809
  154SAPE  H12B17058   0.853   3.819   6.394 -0.0866 -0.8486  0.4267
  154SAPE   C1117059   0.770   4.030   6.405 -0.2999  0.3815 -0.7821
  154SAPE  H11A17060   0.673   4.032   6.458  0.4051  5.5824  0.8838
  154SAPE  H11B17061   0.747   4.021   6.297 -2.2781  1.9979 -0.5557
  154SAPE     P17062   0.809   4.298   6.376  0.1808 -0.1661 -0.1636
  154SAPE   O1317063   0.894   4.307   6.257  0.0642 -0.4085  0.2541
  154SAPE   O1417064   0.670   4.330   6.358  0.3814  0.3128 -0.0505
  154SAPE   O1217065   0.825   4.158   6.448 -0.1522  0.3773 -0.6453
  154SAPE   O1117066   0.864   4.402   6.480 -0.0797  0.2216  0.2197
  154SAPE    C117067   1.008   4.408   6.498  0.5536 -0.0336  0.4540
  154SAPE    HA17068   1.065   4.322   6.456  0.9574  0.8737 -0.9380
  154SAPE    HB17069   1.049   4.501   6.452  0.5104  0.6030  1.6699
  154SAPE    C217070   1.039   4.414   6.651  0.1981 -0.8509 -0.8800
  154SAPE    HS17071   1.147   4.389   6.661 -0.2085 -1.5851  3.3403
  154SAPE   O2117072   0.956   4.327   6.722  0.5572  0.3777  0.0275
  154SAPE   C2117073   0.990   4.201   6.724  0.5230  0.1990  0.1749
  154SAPE   O2217074   1.086   4.153   6.670 -0.2712  0.2305 -0.0899
  154SAPE   C2217075   0.882   4.133   6.811  0.3407  0.2673  0.1732
  154SAPE   H2R17076   0.784   4.182   6.793  1.1237  1.5884 -0.7653
  154SAPE   H2S17077   0.882   4.026   6.780  1.7392 -0.1321  1.4401
  154SAPE    C317078   1.016   4.550   6.704  0.4828  0.1608  0.0651
  154SAPE    HX17079   0.925   4.591   6.654 -0.3404  1.8897  2.7622
  154SAPE    HY17080   1.091   4.625   6.671  0.4604  0.9153  1.6550
  154SAPE   O3117081   0.998   4.553   6.848  0.1296 -0.4450 -0.0280
  154SAPE   C3117082   0.875   4.547   6.888  0.2101 -0.2314 -0.7488
  154SAPE   O3217083   0.783   4.535   6.814  0.0696  0.2926 -0.1937
  154SAPE   C3217084   0.872   4.556   7.040 -0.2543 -0.0498 -0.0337
  154SAPE   H2X17085   0.938   4.637   7.077 -0.2980 -0.1186  0.1969
  154SAPE   H2Y17086   0.911   4.461   7.082  0.3344  0.1667 -0.0784
  154SAPE   C2317087   0.922   4.143   6.963 -0.4269 -0.2066  0.9566
  154SAPE   H3R17088   0.921   4.247   7.002  0.0901  0.3679 -0.5097
  154SAPE   H3S17089   1.031   4.124   6.971 -0.2728  0.6528  0.9564
  154SAPE   C2417090   0.848   4.050   7.063 -0.1265  0.8177  0.7711
  154SAPE   H4R17091   0.891   4.054   7.166 -1.4693  0.6549  1.3533
  154SAPE   H4S17092   0.873   3.949   7.024  0.2799  1.2082  0.0111
  154SAPE   C2517093   0.701   4.078   7.062 -0.5683  0.4004  0.3090
  154SAPE   H5R17094   0.658   4.071   6.961  0.6763 -0.6175 -0.1689
  154SAPE   C2617095   0.624   4.104   7.168  0.2703 -0.0841 -0.7124
  154SAPE   H6R17096   0.517   4.127   7.152  1.0992  3.0709 -2.5082
  154SAPE   C2717097   0.678   4.129   7.309 -0.1800 -0.3302 -0.6826
  154SAPE   H7R17098   0.617   4.215   7.344  0.0405 -0.6762  0.6115
  154SAPE   H7S17099   0.784   4.160   7.317  0.0912 -0.8968 -1.9001
  154SAPE   C2817100   0.644   4.010   7.399  0.4950  0.0799  0.0298
  154SAPE   H8R17101   0.625   3.919   7.340 -0.5158 -0.2684  0.8646
  154SAPE   C2917102   0.611   4.011   7.531 -0.2719  0.4863  0.0205
  154SAPE   H9R17103   0.577   3.914   7.572 -1.6878  0.6677 -0.6687
  154SAPE  C21017104   0.618   4.133   7.617 -0.4763  0.6332  0.1670
  154SAPE  H10R17105   0.522   4.190   7.615 -0.3101  0.9057 -0.0356
  154SAPE  H10S17106   0.703   4.195   7.582  0.7557 -1.3872 -0.5569
  154SAPE  C21117107   0.669   4.104   7.761  0.3167  1.0411 -0.0929
  154SAPE  H11R17108   0.773   4.067   7.771  1.0024  1.8852 -2.9242
  154SAPE  C21217109   0.594   4.116   7.870  1.4657 -0.4200  0.5182
  154SAPE  H12R17110   0.623   4.085   7.972 -3.0204  0.7644  2.4168
  154SAPE  C21317111   0.444   4.165   7.885 -0.3778  0.4886  0.3288
  154SAPE  H13R17112   0.380   4.075   7.890  0.7666 -0.3838 -0.2665
  154SAPE  H13S17113   0.417   4.231   7.800  3.4065  1.5532 -0.2401
  154SAPE  C21417114   0.430   4.239   8.016 -0.3719 -0.5131 -0.3133
  154SAPE  H14R17115   0.467   4.343   8.011 -1.1703 -0.1982  0.1907
  154SAPE  C21517116   0.380   4.203   8.130  1.0565 -0.1198 -0.4414
  154SAPE  H15R17117   0.396   4.270   8.216 -2.2311  1.3775 -0.8452
  154SAPE  C21617118   0.329   4.071   8.176 -0.0041 -0.1139  0.2066
  154SAPE  H16R17119   0.321   3.996   8.094 -2.2845 -0.2166  0.4579
  154SAPE  H16S17120   0.226   4.079   8.218  0.2245  1.4637  0.5345
  154SAPE  C21717121   0.416   4.004   8.289  0.0292 -0.7115 -0.0697
  154SAPE  H17R17122   0.372   3.923   8.351 -0.3574  0.5421  1.3541
  154SAPE  H17S17123   0.437   4.079   8.367 -0.4483 -0.4536 -0.1858
  154SAPE  C21817124   0.546   3.946   8.236  0.4422  0.1430 -0.3779
  154SAPE  H18R17125   0.614   4.019   8.186 -0.1972  0.2349 -1.1303
  154SAPE  H18S17126   0.530   3.866   8.161 -2.3979  0.6524 -0.4399
  154SAPE  C21917127   0.632   3.885   8.346 -0.2271  0.9055  0.0186
  154SAPE  H19R17128   0.562   3.820   8.402  1.3229 -0.6554  0.2444
  154SAPE  H19S17129   0.681   3.959   8.412 -0.3403  0.4938  0.5766
  154SAPE  C22017130   0.749   3.800   8.283 -0.0818  0.0360  0.6404
  154SAPE  H20R17131   0.726   3.691   8.273 -1.7110  0.4268 -0.2656
  154SAPE  H20S17132   0.844   3.821   8.337  0.4212  2.2379 -0.9974
  154SAPE  H20T17133   0.766   3.836   8.180  0.0630  2.0059  1.3217
  154SAPE   C3317134   0.735   4.580   7.098  0.3104  0.3919  0.4072
  154SAPE   H3X17135   0.670   4.492   7.082  0.4535  0.0264  1.7139
  154SAPE   H3Y17136   0.682   4.665   7.049  1.0437 -0.1714 -1.4722
  154SAPE   C3417137   0.754   4.588   7.248  0.6648  0.7749 -0.7456
  154SAPE   H4X17138   0.837   4.656   7.275  0.4927  1.0317 -0.8626
  154SAPE   H4Y17139   0.793   4.490   7.285 -1.1297  0.4895  0.5759
  154SAPE   C3517140   0.614   4.603   7.322  0.3290  0.4418 -0.7140
  154SAPE   H5X17141   0.522   4.575   7.266 -0.3063 -1.5662  1.1757
  154SAPE   H5Y17142   0.612   4.713   7.338 -0.3673  0.3637 -0.2251
  154SAPE   C3617143   0.613   4.524   7.457  0.3634 -0.0341 -0.3268
  154SAPE   H6X17144   0.700   4.527   7.526 -1.1577 -0.5325  1.6939
  154SAPE   H6Y17145   0.591   4.418   7.432 -1.7368 -0.6370  3.3201
  154SAPE   C3717146   0.493   4.579   7.537  0.6340 -0.7248 -0.1505
  154SAPE   H7X17147   0.391   4.582   7.492  0.9179  0.5972 -0.7541
  154SAPE   H7Y17148   0.530   4.679   7.569  1.1942 -1.0343  0.1694
  154SAPE   C3817149   0.463   4.514   7.674  0.3268  0.1062 -0.0415
  154SAPE   H8X17150   0.556   4.509   7.734 -0.2726  1.5630  1.0650
  154SAPE   H8Y17151   0.430   4.409   7.655 -0.5965  0.8258 -2.9458
  154SAPE   C3917152   0.355   4.598   7.746 -0.1808 -0.2622 -0.0526
  154SAPE   H9X17153   0.259   4.603   7.691 -0.7583  2.6553  1.0173
  154SAPE   H9Y17154   0.392   4.703   7.752  0.0902 -0.3563 -0.0507
  154SAPE  C31017155   0.321   4.556   7.884  0.0171  0.2959 -0.2140
  154SAPE  H10X17156   0.416   4.561   7.941  1.0552  2.3485 -1.9440
  154SAPE  H10Y17157   0.282   4.452   7.885  0.9003 -0.0472  0.2034
  154SAPE  C31117158   0.214   4.639   7.950  0.9224 -0.1336 -0.1970
  154SAPE  H11X17159   0.182   4.581   8.039  0.5682  3.5418  2.2923
  154SAPE  H11Y17160   0.122   4.640   7.888  1.4224 -2.4776 -1.0889
  154SAPE  C31217161   0.243   4.786   7.981 -0.0303 -0.1740  1.2753
  154SAPE  H12X17162   0.151   4.822   8.031 -0.6023  0.8752 -0.4568
  154SAPE  H12Y17163   0.267   4.823   7.879 -1.5351 -2.6115 -0.0860
  154SAPE  C31317164   0.361   4.796   8.073 -0.9967 -0.1307  0.5212
  154SAPE  H13X17165   0.355   4.907   8.084 -2.8438  0.3053 -3.1977
  154SAPE  H13Y17166   0.452   4.762   8.021  0.3388  1.2567  1.8246
  154SAPE  C31417167   0.335   4.736   8.216  0.1390 -0.6351  0.0700
  154SAPE  H14X17168   0.330   4.625   8.222  1.1824 -0.8893 -2.3111
  154SAPE  H14Y17169   0.235   4.772   8.248  0.2602  0.5918 -0.8812
  154SAPE  C31517170   0.434   4.790   8.324 -1.0714 -1.0121  0.6988
  154SAPE  H15X17171   0.472   4.892   8.301  0.5649 -1.6920  0.2436
  154SAPE  H15Y17172   0.528   4.731   8.329  1.1919  2.3624  1.0273
  154SAPE  C31617173   0.368   4.814   8.461 -1.0184 -0.4319 -0.2714
  154SAPE  H16X17174   0.305   4.905   8.448  0.5597  0.6618 -0.4914
  154SAPE  H16Y17175   0.447   4.829   8.538 -1.2317 -1.1383  0.0971
  154SAPE  C31717176   0.287   4.692   8.514 -0.2116  0.3048 -0.3844
  154SAPE  H17X17177   0.349   4.601   8.495 -0.3019  0.7584 -3.3870
  154SAPE  H17Y17178   0.191   4.693   8.458 -0.4969  0.4928  0.1081
  154SAPE  C31817179   0.250   4.717   8.658  0.4819  0.3602  0.1559
  154SAPE  H18X17180   0.336   4.713   8.728 -0.5434  0.0085  1.4278
  154SAPE  H18Y17181   0.164   4.658   8.694  0.5725  0.1158 -0.0243
  154SAPE  H18Z17182   0.213   4.821   8.671 -0.4885 -0.0244  0.4737
  155SAPE     N17183   4.511   4.900   6.272 -0.2294  0.0836 -0.6525
  155SAPE   HN117184   4.580   4.975   6.251 -1.1987  1.6047  1.3239
  155SAPE   HN217185   4.459   4.865   6.190 -1.9034 -2.3630  1.2977
  155SAPE   HN317186   4.443   4.930   6.345 -0.3839 -2.0593  0.1643
  155SAPE   C1217187   4.611   4.798   6.322  0.6521  0.6642 -0.2404
  155SAPE  H12A17188   4.676   4.785   6.232  1.8959  0.0942  0.7028
  155SAPE  H12B17189   4.554   4.706   6.347 -0.4850  1.1667 -0.9356
  155SAPE   C1117190   4.693   4.853   6.445 -0.0814  0.0544  0.3513
  155SAPE  H11A17191   4.769   4.776   6.469 -0.3595 -0.2994  0.1132
  155SAPE  H11B17192   4.620   4.869   6.527 -1.5096  1.3887 -1.1178
  155SAPE     P17193   4.853   5.045   6.507 -0.0306 -0.0184 -0.3730
  155SAPE   O1317194   4.988   5.008   6.457 -0.0840 -0.1988 -0.4732
  155SAPE   O1417195   4.816   5.186   6.510  0.5682 -0.1463  0.2671
  155SAPE   O1217196   4.751   4.976   6.406  0.2535 -0.0264 -0.4597
  155SAPE   O1117197   4.814   4.970   6.640  0.5950  0.0155 -0.5955
  155SAPE    C117198   4.830   5.054   6.758  0.7093  0.1606 -0.1410
  155SAPE    HA17199   4.753   5.134   6.765 -1.1913 -1.4979 -1.0849
  155SAPE    HB17200   4.800   4.994   6.847 -0.3342 -0.3310 -0.7954
  155SAPE    C217201   4.970   5.106   6.795 -0.1080  0.3388 -0.0806
  155SAPE    HS17202   4.997   5.185   6.721  0.4489  1.5511  1.3518
  155SAPE   O2117203   5.067   4.994   6.808  0.6710  0.3836  0.7075
  155SAPE   C2117204   5.196   5.030   6.805  0.6675  0.8164 -0.9589
  155SAPE   O2217205   5.235   5.146   6.790 -0.3551  0.3925 -0.0769
  155SAPE   C2217206   5.272   4.902   6.792 -0.1388 -0.6103 -0.2196
  155SAPE   H2R17207   5.227   4.814   6.844 -1.6148 -0.3655 -1.0490
  155SAPE   H2S17208   5.260   4.862   6.689 -1.5519 -1.6348  0.3187
  155SAPE    C317209   4.974   5.181   6.930  0.1295  0.0104  0.1118
  155SAPE    HX17210   5.071   5.209   6.977 -0.7183  1.0902  1.2714
  155SAPE    HY17211   4.941   5.103   7.002 -1.2659  2.1616  1.9183
  155SAPE   O3117212   4.897   5.302   6.928 -0.2510 -0.1425 -0.7327
  155SAPE   C3117213   4.801   5.313   7.031  0.3798 -0.6178  0.4968
  155SAPE   O3217214   4.763   5.223   7.099  0.3216 -0.0119  0.2905
  155SAPE   C3217215   4.738   5.457   7.011 -0.3392 -0.2839 -0.0444
  155SAPE   H2X17216   4.757   5.489   6.906 -1.1294  1.0645  0.1982
  155SAPE   H2Y17217   4.794   5.525   7.079  1.1723 -1.7207  0.2171
  155SAPE   C2317218   5.423   4.909   6.835  0.5561  0.0218  0.1231
  155SAPE   H3R17219   5.488   4.954   6.756  0.3796  0.6516  0.3302
  155SAPE   H3S17220   5.453   4.802   6.837 -2.4592 -0.9264 -0.4585
  155SAPE   C2417221   5.441   4.982   6.974  1.1232 -0.1505  0.6402
  155SAPE   H4R17222   5.383   5.075   6.961 -2.2878 -2.2681 -0.6806
  155SAPE   H4S17223   5.544   5.012   7.003  1.2351 -0.1089  0.2045
  155SAPE   C2517224   5.400   4.891   7.084 -0.1565  1.1182 -0.0105
  155SAPE   H5R17225   5.400   4.782   7.068  1.0128  0.7344  2.2378
  155SAPE   C2617226   5.355   4.938   7.196  0.3207  0.4955  0.0790
  155SAPE   H6R17227   5.318   4.869   7.273 -2.1555  1.1488 -0.4509
  155SAPE   C2717228   5.350   5.087   7.239 -0.0474 -0.3055 -0.4603
  155SAPE   H7R17229   5.249   5.124   7.266 -0.4806 -0.8034 -1.3532
  155SAPE   H7S17230   5.363   5.145   7.146 -0.4529  0.4654 -0.0476
  155SAPE   C2817231   5.447   5.125   7.351 -0.6290  0.1489 -0.2730
  155SAPE   H8R17232   5.541   5.176   7.327 -1.7879  1.8973 -1.2828
  155SAPE   C2917233   5.427   5.084   7.482  0.0793 -0.2806 -0.0994
  155SAPE   H9R17234   5.496   5.109   7.564 -3.4837  0.4126  2.9401
  155SAPE  C21017235   5.310   5.009   7.537 -0.8959 -0.1596 -0.4727
  155SAPE  H10R17236   5.347   4.925   7.601  0.8974  1.7166  1.0906
  155SAPE  H10S17237   5.246   4.964   7.458  0.1670 -1.3480 -0.6907
  155SAPE  C21117238   5.228   5.106   7.623 -0.8122 -0.4410  0.1699
  155SAPE  H11R17239   5.148   5.162   7.573 -1.1157 -1.2579 -0.2762
  155SAPE  C21217240   5.238   5.116   7.760  0.9297 -0.3446  0.7449
  155SAPE  H12R17241   5.176   5.189   7.815  1.0722 -0.7165  1.4215
  155SAPE  C21317242   5.328   5.023   7.854  1.0245 -0.3527 -0.0456
  155SAPE  H13R17243   5.347   4.929   7.798 -1.5696 -0.2780 -1.1744
  155SAPE  H13S17244   5.250   5.011   7.933  0.5352  0.8221 -0.3193
  155SAPE  C21417245   5.459   5.067   7.916  0.1377 -0.0422 -0.1598
  155SAPE  H14R17246   5.548   5.029   7.863  0.5931 -1.8442  1.7764
  155SAPE  C21517247   5.481   5.114   8.039  0.0761 -0.8473  0.0645
  155SAPE  H15R17248   5.584   5.124   8.076 -0.0621  1.1975 -0.0053
  155SAPE  C21617249   5.373   5.149   8.138  0.4275 -0.1792 -0.6880
  155SAPE  H16R17250   5.273   5.124   8.097  1.1510 -1.8413 -1.5651
  155SAPE  H16S17251   5.373   5.257   8.162  0.4775 -0.0226 -1.3606
  155SAPE  C21717252   5.393   5.053   8.253  0.0267 -0.5190  0.6861
  155SAPE  H17R17253   5.491   5.077   8.300  0.5738  0.5155 -0.8826
  155SAPE  H17S17254   5.379   4.948   8.220  1.0650 -0.3098 -0.4939
  155SAPE  C21817255   5.282   5.091   8.363  0.2824  0.1960  0.1504
  155SAPE  H18R17256   5.263   5.011   8.438  3.4849  0.3914  1.3534
  155SAPE  H18S17257   5.188   5.109   8.307  0.4112  0.5261  0.0409
  155SAPE  C21917258   5.310   5.204   8.461 -0.0961 -0.2965 -0.2883
  155SAPE  H19R17259   5.222   5.240   8.518  0.9847  0.7201  0.7950
  155SAPE  H19S17260   5.355   5.287   8.402  1.9799  1.1807  3.0407
  155SAPE  C22017261   5.414   5.162   8.567  0.1025 -0.0036 -0.0030
  155SAPE  H20R17262   5.361   5.087   8.630  1.7168 -1.5637 -0.4245
  155SAPE  H20S17263   5.440   5.251   8.628 -2.1436  2.0865 -1.8603
  155SAPE  H20T17264   5.501   5.110   8.522  1.4301  0.7382  1.6237
  155SAPE   C3317265   4.589   5.481   7.036 -0.5346  0.7408 -0.1791
  155SAPE   H3X17266   4.524   5.400   6.997 -0.0789  0.0607  0.4481
  155SAPE   H3Y17267   4.544   5.570   6.989  0.3819  1.0773 -0.4479
  155SAPE   C3417268   4.560   5.485   7.184 -0.1149  0.1833 -0.1221
  155SAPE   H4X17269   4.604   5.576   7.230 -0.6078  0.2727  0.1799
  155SAPE   H4Y17270   4.606   5.407   7.249  0.3747  0.1414 -0.5185
  155SAPE   C3517271   4.405   5.480   7.209  0.7492  0.0452 -0.4614
  155SAPE   H5X17272   4.351   5.387   7.179 -0.7907  1.1538 -1.2530
  155SAPE   H5Y17273   4.359   5.567   7.157 -0.4816 -1.4117 -1.9389
  155SAPE   C3617274   4.383   5.482   7.363 -1.0825 -0.2553  0.5202
  155SAPE   H6X17275   4.442   5.567   7.402 -0.4599  0.0420 -1.0123
  155SAPE   H6Y17276   4.422   5.387   7.405 -0.0184 -1.3304 -2.6556
  155SAPE   C3717277   4.236   5.488   7.402  0.1711  0.0396  0.0087
  155SAPE   H7X17278   4.181   5.404   7.354  0.7280 -0.6113  0.4953
  155SAPE   H7Y17279   4.194   5.575   7.347  2.2264  1.4362  0.5565
  155SAPE   C3817280   4.221   5.502   7.555 -0.1777  0.3028 -0.6916
  155SAPE   H8X17281   4.114   5.485   7.580 -0.2333 -0.3461 -1.3189
  155SAPE   H8Y17282   4.238   5.610   7.574  0.6798  0.1636 -0.5873
  155SAPE   C3917283   4.317   5.415   7.646  0.0094  0.0516 -0.5837
  155SAPE   H9X17284   4.418   5.459   7.628  0.1166 -0.6522 -1.8138
  155SAPE   H9Y17285   4.318   5.308   7.619  0.5274 -1.0113  3.1840
  155SAPE  C31017286   4.265   5.419   7.786 -0.7172 -0.2286 -0.4164
  155SAPE  H10X17287   4.168   5.363   7.791 -1.4758  1.0818 -0.0316
  155SAPE  H10Y17288   4.251   5.524   7.817 -1.8099 -0.2259 -0.8310
  155SAPE  C31117289   4.380   5.366   7.883  0.3849  0.5066  0.4133
  155SAPE  H11X17290   4.452   5.450   7.879  0.0844  0.7213 -0.9724
  155SAPE  H11Y17291   4.424   5.277   7.834 -0.1827  0.3798  0.1291
  155SAPE  C31217292   4.337   5.345   8.027  0.5655 -0.0079 -0.6532
  155SAPE  H12X17293   4.268   5.259   8.039  0.6082  0.1062  0.6010
  155SAPE  H12Y17294   4.287   5.436   8.065  1.1251 -0.7068  1.9944
  155SAPE  C31317295   4.460   5.324   8.116 -0.0602 -0.0386 -0.4190
  155SAPE  H13X17296   4.529   5.407   8.089 -0.1996 -0.0058 -0.6805
  155SAPE  H13Y17297   4.501   5.225   8.085  3.2267  0.7601  0.9455
  155SAPE  C31417298   4.420   5.330   8.266 -0.8402  0.2707  0.1263
  155SAPE  H14X17299   4.342   5.251   8.276 -0.8303  0.2006 -0.3264
  155SAPE  H14Y17300   4.383   5.434   8.283  1.0085  1.0088 -0.1925
  155SAPE  C31517301   4.542   5.301   8.352 -0.2968 -0.7441 -0.1108
  155SAPE  H15X17302   4.619   5.378   8.331 -1.5338  0.5098 -0.2316
  155SAPE  H15Y17303   4.589   5.212   8.305  1.1042 -0.5033  0.7778
  155SAPE  C31617304   4.516   5.276   8.503  0.8101  0.4381  0.3920
  155SAPE  H16X17305   4.429   5.209   8.520  1.2449 -0.1647  0.2749
  155SAPE  H16Y17306   4.484   5.373   8.546 -0.5484 -0.0731  0.5626
  155SAPE  C31717307   4.631   5.217   8.573  0.4470 -0.0286  0.0918
  155SAPE  H17X17308   4.717   5.193   8.506  1.4541 -3.7044  2.3984
  155SAPE  H17Y17309   4.603   5.122   8.623  0.7613  0.2006  0.7092
  155SAPE  C31817310   4.696   5.314   8.676 -0.9254  0.4863 -0.0941
  155SAPE  H18X17311   4.623   5.333   8.758  0.5460  0.7676  1.2087
  155SAPE  H18Y17312   4.726   5.408   8.625  0.2707 -1.2738 -2.8858
  155SAPE  H18Z17313   4.786   5.262   8.716 -0.3024 -0.0080 -2.0536
  156SAPE     N17314   3.807   6.264   6.412  0.6267 -0.4783 -0.4399
  156SAPE   HN117315   3.792   6.174   6.363  1.0215 -0.6271 -0.2934
  156SAPE   HN217316   3.844   6.330   6.340  1.0396 -0.4278 -0.1861
  156SAPE   HN317317   3.886   6.246   6.478  1.2749  0.8329 -0.8199
  156SAPE   C1217318   3.680   6.319   6.469 -0.7157  0.1124 -0.0976
  156SAPE  H12A17319   3.696   6.412   6.526 -3.9432  1.2348 -0.8287
  156SAPE  H12B17320   3.643   6.249   6.547 -1.3747  2.3029  1.6209
  156SAPE   C1117321   3.564   6.336   6.368  0.0673  0.0655  0.0916
  156SAPE  H11A17322   3.587   6.424   6.305  1.7595 -1.0410 -0.9053
  156SAPE  H11B17323   3.476   6.338   6.436  0.8204 -1.0093  1.1418
  156SAPE     P17324   3.409   6.144   6.265 -0.0192  0.0128 -0.0954
  156SAPE   O1317325   3.308   6.248   6.239  0.3822 -0.0401  0.0057
  156SAPE   O1417326   3.423   6.041   6.158  0.0005  0.2743  0.1891
  156SAPE   O1217327   3.551   6.214   6.288  0.3916 -0.1773 -0.0097
  156SAPE   O1117328   3.378   6.083   6.398  0.2628  0.2418  0.5728
  156SAPE    C117329   3.439   5.958   6.443 -0.4064 -0.0183  0.3875
  156SAPE    HA17330   3.509   5.922   6.365 -2.5786 -0.7734 -1.3093
  156SAPE    HB17331   3.495   5.972   6.538 -0.3568  0.3579  0.3049
  156SAPE    C217332   3.323   5.849   6.464 -0.4775  0.6014  0.1346
  156SAPE    HS17333   3.302   5.813   6.362  5.1934 -0.6036 -0.9232
  156SAPE   O2117334   3.215   5.921   6.535  0.1165  0.1720 -0.2729
  156SAPE   C2117335   3.101   5.857   6.518  0.3950  0.7072 -0.9805
  156SAPE   O2217336   3.078   5.769   6.435 -0.5115  0.0095  0.6299
  156SAPE   C2217337   3.006   5.909   6.630 -0.3544  0.2926 -0.2150
  156SAPE   H2R17338   3.049   6.005   6.667 -1.6639  0.9623 -0.3420
  156SAPE   H2S17339   2.905   5.928   6.586 -0.9498 -0.7553  0.6631
  156SAPE    C317340   3.361   5.734   6.557 -0.3169  0.0868 -0.7195
  156SAPE    HX17341   3.441   5.671   6.512  2.0092  1.7598  0.8156
  156SAPE    HY17342   3.278   5.663   6.576 -1.0003  0.9779 -0.2824
  156SAPE   O3117343   3.412   5.787   6.685  0.5089  0.3461 -0.0860
  156SAPE   C3117344   3.362   5.737   6.795 -0.5843  0.4237  0.1280
  156SAPE   O3217345   3.310   5.630   6.812  0.3046 -0.3473  0.4876
  156SAPE   C3217346   3.404   5.826   6.913 -0.0458  0.3045 -0.2373
  156SAPE   H2X17347   3.337   5.914   6.905 -0.8157 -0.2267  0.2132
  156SAPE   H2Y17348   3.511   5.853   6.903 -0.6893  3.6802  0.6738
  156SAPE   C2317349   2.988   5.808   6.747  0.1216 -0.1078 -0.1346
  156SAPE   H3R17350   3.085   5.774   6.788 -0.9232  0.0418  2.6841
  156SAPE   H3S17351   2.932   5.726   6.698  0.3891  0.3374 -1.2251
  156SAPE   C2417352   2.905   5.856   6.871 -0.7749 -0.0160 -0.0356
  156SAPE   H4R17353   2.886   5.766   6.933 -0.1195  0.1822  0.4642
  156SAPE   H4S17354   2.802   5.886   6.842 -1.1417  0.3377  1.5181
  156SAPE   C2517355   2.978   5.961   6.952  1.1572 -0.3747  0.1129
  156SAPE   H5R17356   2.999   6.052   6.895 -1.1982 -0.9403 -1.8199
  156SAPE   C2617357   3.022   5.955   7.084 -0.5600  0.2296  0.2538
  156SAPE   H6R17358   3.069   6.044   7.129 -0.6252 -1.1230  3.2501
  156SAPE   C2717359   2.999   5.841   7.183  0.1905  0.4955  0.3598
  156SAPE   H7R17360   3.085   5.772   7.173  0.5996  1.1233 -0.6256
  156SAPE   H7S17361   2.910   5.780   7.157  0.0139  0.0915  1.8244
  156SAPE   C2817362   2.979   5.887   7.327 -0.5717  0.3273  0.5869
  156SAPE   H8R17363   2.943   5.990   7.340  1.7280  1.1277  1.0568
  156SAPE   C2917364   3.009   5.817   7.435  0.3722  0.2045  0.6185
  156SAPE   H9R17365   2.991   5.864   7.533 -3.7076 -2.1735  1.2402
  156SAPE  C21017366   3.065   5.671   7.441 -0.5054 -0.0011  0.5918
  156SAPE  H10R17367   3.166   5.671   7.487  0.0891 -1.3319 -0.6350
  156SAPE  H10S17368   3.070   5.634   7.337 -1.4243 -0.7519  0.8037
  156SAPE  C21117369   2.968   5.583   7.510  0.1355  0.3070  0.2520
  156SAPE  H11R17370   2.873   5.563   7.457 -1.4594 -0.9870  3.3094
  156SAPE  C21217371   2.978   5.537   7.636  0.0585  0.2317 -0.6531
  156SAPE  H12R17372   2.894   5.475   7.672  0.2733 -1.1620 -2.3718
  156SAPE  C21317373   3.100   5.543   7.733 -0.3840 -0.1838  0.1895
  156SAPE  H13R17374   3.198   5.544   7.681  0.7865  1.2898  2.2611
  156SAPE  H13S17375   3.104   5.461   7.808 -2.0852 -0.0163  0.5060
  156SAPE  C21417376   3.107   5.679   7.801  0.2375  0.9882  0.2163
  156SAPE  H14R17377   3.141   5.762   7.738 -0.4355  1.1188  0.0120
  156SAPE  C21517378   3.092   5.709   7.932 -0.5034 -0.0963  0.5554
  156SAPE  H15R17379   3.113   5.814   7.958  0.5573 -0.5447  1.5620
  156SAPE  C21617380   3.076   5.615   8.051 -0.2967  0.3999 -0.0519
  156SAPE  H16R17381   3.135   5.647   8.139  0.3680  0.4872 -0.5262
  156SAPE  H16S17382   3.121   5.516   8.028 -1.2414  0.1814 -1.0748
  156SAPE  C21717383   2.930   5.592   8.096 -0.2600  0.1642  0.2712
  156SAPE  H17R17384   2.866   5.527   8.033 -0.9232 -0.3579  1.4530
  156SAPE  H17S17385   2.887   5.693   8.106  1.9604  1.3576 -1.3342
  156SAPE  C21817386   2.919   5.516   8.233 -0.6786 -0.5121  0.4301
  156SAPE  H18R17387   2.959   5.584   8.311  0.7832  0.9456 -1.4757
  156SAPE  H18S17388   2.988   5.430   8.217  0.0155  0.1199 -0.0282
  156SAPE  C21917389   2.784   5.462   8.282  0.2785  0.1986  0.2541
  156SAPE  H19R17390   2.806   5.404   8.374 -0.8285 -1.7702 -0.6685
  156SAPE  H19S17391   2.737   5.390   8.212  1.7517 -1.9583  1.3605
  156SAPE  C22017392   2.683   5.572   8.300 -0.4931 -0.5570  0.2534
  156SAPE  H20R17393   2.655   5.617   8.202 -1.0801 -0.5367  0.4279
  156SAPE  H20S17394   2.723   5.662   8.352 -0.7008  0.0069 -0.5404
  156SAPE  H20T17395   2.586   5.534   8.337 -0.5754 -1.7767 -1.1325
  156SAPE   C3317396   3.369   5.762   7.049 -0.0274  0.3470 -0.2487
  156SAPE   H3X17397   3.438   5.677   7.068  1.5562  2.0371  2.0808
  156SAPE   H3Y17398   3.265   5.724   7.054 -0.0864  0.3783 -0.9868
  156SAPE   C3417399   3.404   5.866   7.165  0.2564  0.0216 -0.4785
  156SAPE   H4X17400   3.332   5.951   7.153 -2.0096 -1.4297  1.7818
  156SAPE   H4Y17401   3.502   5.916   7.155  0.3769  0.3099  1.6756
  156SAPE   C3517402   3.396   5.812   7.308 -0.7795 -0.1226 -0.6486
  156SAPE   H5X17403   3.461   5.723   7.317 -0.6799 -0.0043 -0.1169
  156SAPE   H5Y17404   3.294   5.778   7.337 -0.0384 -1.6844  0.2196
  156SAPE   C3617405   3.444   5.915   7.415 -0.2175 -0.0889  0.8800
  156SAPE   H6X17406   3.366   5.994   7.425  1.9184  2.1322  0.9620
  156SAPE   H6Y17407   3.527   5.974   7.370 -1.0751 -0.4690 -1.3272
  156SAPE   C3717408   3.472   5.854   7.553  0.2961  0.1950  0.0017
  156SAPE   H7X17409   3.564   5.792   7.549 -0.1498 -0.5370  0.6938
  156SAPE   H7Y17410   3.386   5.785   7.567  1.2557 -1.0628 -0.1466
  156SAPE   C3817411   3.477   5.962   7.662  0.3253  0.2350 -0.5153
  156SAPE   H8X17412   3.406   6.043   7.635  0.6319  0.5045 -0.5210
  156SAPE   H8Y17413   3.576   6.011   7.674  0.4102  0.0276 -0.3540
  156SAPE   C3917414   3.444   5.914   7.802  0.2192  0.3840 -0.0433
  156SAPE   H9X17415   3.511   5.829   7.828  0.1204  0.6268  1.0419
  156SAPE   H9Y17416   3.344   5.867   7.806 -0.8543  2.5639  4.3425
  156SAPE  C31017417   3.449   6.010   7.920  0.1343 -0.3621  0.3829
  156SAPE  H10X17418   3.388   6.102   7.905  0.7159  0.1068  0.8312
  156SAPE  H10Y17419   3.552   6.049   7.936 -0.7833  3.0066 -1.1038
  156SAPE  C31117420   3.398   5.950   8.053 -0.3185 -0.1989  0.0024
  156SAPE  H11X17421   3.477   5.880   8.088 -1.4890 -1.6031 -0.0517
  156SAPE  H11Y17422   3.318   5.874   8.043  0.8568 -1.5640  0.6376
  156SAPE  C31217423   3.365   6.062   8.154 -0.2997 -0.2583  0.4877
  156SAPE  H12X17424   3.289   6.118   8.096  2.0562  0.5512 -2.0396
  156SAPE  H12Y17425   3.457   6.117   8.184 -0.1360 -0.8889  1.1786
  156SAPE  C31317426   3.301   6.008   8.282  0.5244 -0.2122  0.3608
  156SAPE  H13X17427   3.320   6.085   8.360 -0.5376 -0.9225  1.3384
  156SAPE  H13Y17428   3.356   5.921   8.323 -0.4849 -2.2327 -2.3043
  156SAPE  C31417429   3.160   5.968   8.259 -0.7562 -0.2089  0.6800
  156SAPE  H14X17430   3.155   5.930   8.155  0.8690  0.2025  0.4248
  156SAPE  H14Y17431   3.086   6.051   8.262 -0.5238 -0.0029  0.7355
  156SAPE  C31517432   3.096   5.854   8.350  0.2070 -0.0787 -0.6670
  156SAPE  H15X17433   3.146   5.764   8.310 -1.5341 -1.6419  0.5169
  156SAPE  H15Y17434   2.985   5.852   8.338  0.2089 -2.3341 -0.6841
  156SAPE  C31617435   3.126   5.859   8.502 -0.5852 -0.4566  0.3941
  156SAPE  H16X17436   3.065   5.936   8.554 -1.5374 -0.4126 -0.7461
  156SAPE  H16Y17437   3.232   5.890   8.515 -0.1402 -0.7539 -2.0967
  156SAPE  C31717438   3.090   5.733   8.579  0.4328 -0.5479  0.0851
  156SAPE  H17X17439   3.149   5.649   8.537  1.8857 -1.0550  2.8841
  156SAPE  H17Y17440   2.982   5.712   8.565  0.4076 -0.0834 -0.4438
  156SAPE  C31817441   3.131   5.744   8.728 -0.7478  0.1300  0.7330
  156SAPE  H18X17442   3.071   5.815   8.789  1.0523  0.7546  1.8724
  156SAPE  H18Y17443   3.240   5.767   8.731 -0.8659  0.5937  1.6797
  156SAPE  H18Z17444   3.113   5.648   8.780 -1.3234 -1.0777 -1.5329
  157SAPE     N17445   1.045   6.498   6.168  0.3023  0.3119  0.1168
  157SAPE   HN117446   0.949   6.497   6.128  0.5100 -2.7033 -0.5261
  157SAPE   HN217447   1.099   6.419   6.126 -1.9284 -0.8007 -0.8146
  157SAPE   HN317448   1.044   6.475   6.269  0.2114  0.4656  0.1505
  157SAPE   C1217449   1.112   6.631   6.141  0.6586 -0.8357  0.1841
  157SAPE  H12A17450   1.102   6.658   6.034  1.4978 -1.0541  0.0446
  157SAPE  H12B17451   1.220   6.625   6.167  1.5524 -0.3786 -3.0058
  157SAPE   C1117452   1.038   6.749   6.214  0.5273 -1.0591  1.2870
  157SAPE  H11A17453   0.931   6.746   6.184  0.3730  1.8277  1.2700
  157SAPE  H11B17454   1.085   6.842   6.174 -1.6411 -0.9648 -1.3564
  157SAPE     P17455   0.966   6.776   6.462 -0.2829  0.2409 -0.2607
  157SAPE   O1317456   0.904   6.652   6.504 -0.0858  0.7276  0.1882
  157SAPE   O1417457   1.046   6.854   6.561 -0.4313 -0.3763  0.4192
  157SAPE   O1217458   1.066   6.734   6.352  0.4631  0.4286  0.2826
  157SAPE   O1117459   0.864   6.874   6.390  0.0517  0.2304 -0.2158
  157SAPE    C117460   0.721   6.895   6.422  0.2426 -0.1865  0.7859
  157SAPE    HA17461   0.657   6.908   6.333 -0.9284  3.8535  2.0108
  157SAPE    HB17462   0.680   6.819   6.492  2.6486 -1.5498  0.8237
  157SAPE    C217463   0.716   7.029   6.503 -0.1034  0.4913 -0.5984
  157SAPE    HS17464   0.752   7.105   6.432  0.5134 -0.8714 -1.7947
  157SAPE   O2117465   0.810   7.011   6.610 -0.4282 -0.3736 -0.0698
  157SAPE   C2117466   0.874   7.122   6.645 -0.0553  0.2333 -0.5375
  157SAPE   O2217467   0.865   7.225   6.580 -0.1675  1.0450 -0.3455
  157SAPE   C2217468   0.942   7.108   6.780 -0.2925  0.0479  0.2055
  157SAPE   H2R17469   0.898   7.173   6.859 -1.9301 -1.6123  0.7417
  157SAPE   H2S17470   0.923   7.005   6.817 -2.5452  0.2476 -0.3031
  157SAPE    C317471   0.571   7.067   6.560  0.0172  0.2699 -0.2864
  157SAPE    HX17472   0.526   6.986   6.621 -0.7760  0.1154 -1.0437
  157SAPE    HY17473   0.502   7.082   6.474  0.2695  1.6503 -0.2723
  157SAPE   O3117474   0.576   7.182   6.647 -0.6128 -0.2700  0.2746
  157SAPE   C3117475   0.540   7.287   6.587 -0.8474  0.1290  0.5155
  157SAPE   O3217476   0.521   7.302   6.470  0.2046  0.0653 -0.4251
  157SAPE   C3217477   0.541   7.402   6.688 -0.4161 -0.7986  0.1693
  157SAPE   H2X17478   0.474   7.483   6.654  0.8282  0.6684  1.0582
  157SAPE   H2Y17479   0.647   7.436   6.688  0.3635 -2.8595  3.3966
  157SAPE   C2317480   1.091   7.137   6.757  0.6049  0.0554 -0.0333
  157SAPE   H3R17481   1.121   7.237   6.720  0.9651 -0.7545 -2.0304
  157SAPE   H3S17482   1.135   7.066   6.684  0.5209  1.9201 -1.9889
  157SAPE   C2417483   1.175   7.133   6.890  0.1503 -0.4931 -0.5900
  157SAPE   H4R17484   1.284   7.151   6.875  0.1435  0.0588 -0.0019
  157SAPE   H4S17485   1.156   7.031   6.929 -1.0495 -1.1457 -2.7389
  157SAPE   C2517486   1.141   7.247   6.989  0.9483  0.6955 -1.0302
  157SAPE   H5R17487   1.193   7.343   6.977  1.2575  0.7677  0.6174
  157SAPE   C2617488   1.072   7.237   7.106 -0.0612  0.5094 -0.0889
  157SAPE   H6R17489   1.067   7.314   7.184 -1.7597 -1.2295  1.6558
  157SAPE   C2717490   1.009   7.110   7.160 -0.4294 -0.1623 -0.3755
  157SAPE   H7R17491   1.081   7.038   7.205  0.4803  1.8766  1.6051
  157SAPE   H7S17492   0.964   7.053   7.076 -1.6597  1.0292 -0.5615
  157SAPE   C2817493   0.891   7.138   7.249  0.1141  0.7646 -0.0067
  157SAPE   H8R17494   0.791   7.143   7.203  0.2937 -1.0582 -0.6742
  157SAPE   C2917495   0.890   7.136   7.384 -0.1825 -0.5979  0.0809
  157SAPE   H9R17496   0.789   7.144   7.427 -0.5621  1.7112 -1.0462
  157SAPE  C21017497   1.013   7.109   7.465 -0.1497  0.5031  0.4606
  157SAPE  H10R17498   1.088   7.045   7.414  0.1019  0.2957  1.0832
  157SAPE  H10S17499   0.981   7.037   7.543 -0.4861 -0.5178 -0.5854
  157SAPE  C21117500   1.089   7.232   7.526  0.7333  0.2488 -0.3889
  157SAPE  H11R17501   1.160   7.278   7.456  0.9435 -0.8939 -0.9481
  157SAPE  C21217502   1.084   7.284   7.650 -0.3638 -0.1255  0.2410
  157SAPE  H12R17503   1.160   7.355   7.686 -2.6064  1.5578  1.8590
  157SAPE  C21317504   0.979   7.234   7.748  0.2046  0.1428  0.2861
  157SAPE  H13R17505   0.888   7.196   7.697  1.0803  0.4101 -1.5723
  157SAPE  H13S17506   0.945   7.323   7.805 -0.2649  1.3811 -1.8035
  157SAPE  C21417507   1.048   7.121   7.822 -1.0155  0.1027 -0.2609
  157SAPE  H14R17508   1.075   7.041   7.752  0.4384  0.9982 -0.7817
  157SAPE  C21517509   1.088   7.109   7.951 -0.4277  0.5051  0.3605
  157SAPE  H15R17510   1.129   7.010   7.979 -0.8703  0.3112  0.3367
  157SAPE  C21617511   1.076   7.204   8.068 -0.5405 -0.3137 -0.5624
  157SAPE  H16R17512   1.086   7.308   8.029  2.2211 -1.0314 -2.0389
  157SAPE  H16S17513   1.163   7.189   8.136  0.3826 -0.7627 -1.8122
  157SAPE  C21717514   0.951   7.165   8.147  0.2975  0.1935  0.0391
  157SAPE  H17R17515   1.000   7.088   8.211  0.3775 -1.9835 -2.4648
  157SAPE  H17S17516   0.872   7.126   8.079  0.7327  1.4862 -1.2450
  157SAPE  C21817517   0.901   7.273   8.240 -0.8311 -0.5024 -0.0365
  157SAPE  H18R17518   0.983   7.321   8.297  0.5147 -1.7811 -0.8298
  157SAPE  H18S17519   0.843   7.231   8.325 -1.8590  0.4189 -0.2615
  157SAPE  C21917520   0.827   7.387   8.165 -0.3150  0.7097 -0.1126
  157SAPE  H19R17521   0.740   7.345   8.110  0.7765 -0.1815 -1.1868
  157SAPE  H19S17522   0.894   7.423   8.084  1.1284 -0.8451  0.3291
  157SAPE  C22017523   0.773   7.503   8.255 -0.6238  0.3124 -0.3089
  157SAPE  H20R17524   0.848   7.582   8.275 -0.5644  0.1485  0.1460
  157SAPE  H20S17525   0.742   7.457   8.352 -1.3052  1.3249 -0.0265
  157SAPE  H20T17526   0.684   7.552   8.209 -0.4653  0.5557 -0.3590
  157SAPE   C3317527   0.512   7.353   6.833 -0.1169  0.4701  0.3340
  157SAPE   H3X17528   0.582   7.269   6.854  0.1242  0.7530  0.6743
  157SAPE   H3Y17529   0.412   7.306   6.827  0.9870 -1.8873 -1.3501
  157SAPE   C3417530   0.519   7.458   6.940  0.6536 -0.1305  0.5332
  157SAPE   H4X17531   0.474   7.554   6.908 -0.5916 -0.2522  1.8311
  157SAPE   H4Y17532   0.621   7.491   6.968  0.5731  1.5136 -0.9751
  157SAPE   C3517533   0.445   7.409   7.062 -0.1969  0.1186  0.6992
  157SAPE   H5X17534   0.362   7.341   7.034  0.0455  0.4746 -1.0571
  157SAPE   H5Y17535   0.407   7.493   7.125 -1.6607  1.6406 -2.0112
  157SAPE   C3617536   0.543   7.343   7.166 -0.6299  0.5754  0.6353
  157SAPE   H6X17537   0.645   7.354   7.124 -1.7151 -0.3104 -2.5033
  157SAPE   H6Y17538   0.518   7.235   7.164 -0.9425  0.6252 -2.0687
  157SAPE   C3717539   0.538   7.402   7.303  0.1258  0.3211 -0.2927
  157SAPE   H7X17540   0.585   7.500   7.327  1.3817 -0.8805  2.7588
  157SAPE   H7Y17541   0.613   7.345   7.362 -0.2257 -0.7197 -0.8213
  157SAPE   C3817542   0.408   7.378   7.378  1.2665  0.1598  0.1436
  157SAPE   H8X17543   0.389   7.270   7.361  0.4024  0.2470  0.5004
  157SAPE   H8Y17544   0.324   7.438   7.337  0.6467 -0.5965  0.2868
  157SAPE   C3917545   0.405   7.402   7.532  0.2794 -0.0535 -0.2837
  157SAPE   H9X17546   0.303   7.420   7.572  0.5810 -0.0924  0.5282
  157SAPE   H9Y17547   0.462   7.495   7.550 -2.6923  1.9321 -0.3297
  157SAPE  C31017548   0.456   7.281   7.610 -0.5237 -0.4819 -0.0270
  157SAPE  H10X17549   0.559   7.246   7.588  1.0522  2.3489  2.2512
  157SAPE  H10Y17550   0.388   7.193   7.606 -0.6915 -0.3464 -0.1629
  157SAPE  C31117551   0.462   7.319   7.756  0.3968  0.3408  0.2750
  157SAPE  H11X17552   0.361   7.354   7.788 -0.6994 -2.0514 -0.3398
  157SAPE  H11Y17553   0.532   7.403   7.771  0.0251  0.5453  0.9303
  157SAPE  C31217554   0.487   7.206   7.855  0.5395 -0.0324 -0.1215
  157SAPE  H12X17555   0.580   7.150   7.829 -0.0001 -1.1027  0.2124
  157SAPE  H12Y17556   0.403   7.134   7.857 -1.1398  1.8524  1.1292
  157SAPE  C31317557   0.490   7.260   7.998  0.1749 -0.5005  0.3562
  157SAPE  H13X17558   0.391   7.304   8.022  0.3338 -0.1045  0.2900
  157SAPE  H13Y17559   0.567   7.340   7.986  1.0117 -1.2083  0.8518
  157SAPE  C31417560   0.526   7.161   8.109  0.0763  0.1673 -0.5182
  157SAPE  H14X17561   0.634   7.138   8.097 -0.3941 -1.6296 -1.5909
  157SAPE  H14Y17562   0.473   7.064   8.108 -1.3709  0.9283 -1.7710
  157SAPE  C31517563   0.509   7.222   8.255  0.0511  1.1506  0.4106
  157SAPE  H15X17564   0.536   7.329   8.251 -0.5450  1.2865 -0.4678
  157SAPE  H15Y17565   0.574   7.175   8.331  0.1332  1.0136  0.2581
  157SAPE  C31617566   0.367   7.194   8.301  0.4162  0.5751 -0.2397
  157SAPE  H16X17567   0.355   7.089   8.335 -0.3755  0.6759 -0.1869
  157SAPE  H16Y17568   0.295   7.201   8.217 -0.1862 -2.5554 -0.1015
  157SAPE  C31717569   0.327   7.290   8.413 -0.0842  0.1387  0.2092
  157SAPE  H17X17570   0.404   7.295   8.493  1.2563  3.1232 -1.1116
  157SAPE  H17Y17571   0.237   7.248   8.462  0.1281  1.0039  1.3890
  157SAPE  C31817572   0.295   7.433   8.366  0.8006 -0.3364  0.2646
  157SAPE  H18X17573   0.268   7.502   8.449 -1.8194 -0.2694 -0.5454
  157SAPE  H18Y17574   0.209   7.439   8.295  0.4642  1.1183  0.7393
  157SAPE  H18Z17575   0.375   7.481   8.306  0.5059 -0.4998 -0.2639
  158SAPE     N17576   3.884   4.295   6.062  0.1456  0.0996  0.7468
  158SAPE   HN117577   3.955   4.261   6.129  1.1540  2.0905  0.7575
  158SAPE   HN217578   3.871   4.211   6.003  0.8590  0.1248  0.5500
  158SAPE   HN317579   3.937   4.366   6.008 -0.9673  1.5791  1.4967
  158SAPE   C1217580   3.753   4.358   6.104  0.0035 -0.1178  0.9592
  158SAPE  H12A17581   3.680   4.275   6.116  0.7634 -0.9783 -0.1792
  158SAPE  H12B17582   3.713   4.414   6.017 -1.1059 -1.5667  0.5042
  158SAPE   C1117583   3.767   4.461   6.221 -0.5452  0.4339 -0.3394
  158SAPE  H11A17584   3.814   4.418   6.312 -3.1795  0.8795  1.3509
  158SAPE  H11B17585   3.665   4.500   6.243 -0.8386 -0.3949 -0.1990
  158SAPE     P17586   3.856   4.713   6.241 -0.1136 -0.2587  0.0184
  158SAPE   O1317587   3.965   4.786   6.181 -0.8239 -0.0071  0.8169
  158SAPE   O1417588   3.724   4.786   6.255  0.0079  0.1804 -0.2142
  158SAPE   O1217589   3.846   4.573   6.173  0.5703  0.0511  0.2498
  158SAPE   O1117590   3.896   4.674   6.388 -0.4250  0.2602 -0.0869
  158SAPE    C117591   4.016   4.593   6.420  0.0869 -0.3018  0.1046
  158SAPE    HA17592   4.015   4.486   6.391 -0.3744 -0.2593 -0.0524
  158SAPE    HB17593   4.107   4.629   6.369  0.0544 -1.3854 -0.7580
  158SAPE    C217594   4.036   4.588   6.570  0.0123  0.8273  0.4670
  158SAPE    HS17595   4.114   4.514   6.599 -0.4767  0.0550 -0.1378
  158SAPE   O2117596   3.910   4.560   6.628  0.9323  0.0544  0.2276
  158SAPE   C2117597   3.874   4.431   6.633  0.0251  0.3699  0.0366
  158SAPE   O2217598   3.950   4.340   6.603 -0.1544  0.5660 -0.0967
  158SAPE   C2217599   3.735   4.426   6.700  0.0894 -0.0479 -0.1302
  158SAPE   H2R17600   3.669   4.495   6.644 -1.5217 -0.2914  1.3645
  158SAPE   H2S17601   3.700   4.322   6.683  0.8270 -0.2739 -0.3036
  158SAPE    C317602   4.089   4.728   6.597 -0.0135  0.3764 -0.3753
  158SAPE    HX17603   4.038   4.811   6.542 -0.1964  1.2620  1.0784
  158SAPE    HY17604   4.191   4.715   6.555  0.6308  1.8426  0.6443
  158SAPE   O3117605   4.104   4.733   6.744  0.0523  0.3400  0.0114
  158SAPE   C3117606   4.013   4.798   6.804  0.5067 -0.5102  0.0327
  158SAPE   O3217607   3.933   4.881   6.755 -0.8989 -0.6331  0.6573
  158SAPE   C3217608   4.003   4.748   6.952  0.0262  0.2856  0.6205
  158SAPE   H2X17609   4.077   4.796   7.018 -0.0554  1.1570  0.0930
  158SAPE   H2Y17610   4.024   4.639   6.956 -0.9870  0.0029 -0.6789
  158SAPE   C2317611   3.735   4.452   6.855 -0.5485 -0.5031 -0.0513
  158SAPE   H3R17612   3.777   4.553   6.878  1.6857 -1.0026 -1.5623
  158SAPE   H3S17613   3.799   4.371   6.895  0.5361  0.3873  0.0706
  158SAPE   C2417614   3.596   4.435   6.918  0.8319 -0.7666  0.3928
  158SAPE   H4R17615   3.542   4.347   6.878 -2.4132  0.7839  1.0115
  158SAPE   H4S17616   3.542   4.528   6.889 -1.3260 -2.4364 -1.2528
  158SAPE   C2517617   3.605   4.422   7.065 -0.7841  0.1167 -0.5311
  158SAPE   H5R17618   3.673   4.340   7.095 -0.7399  0.3182 -0.0773
  158SAPE   C2617619   3.533   4.488   7.153  0.7219  0.2584 -0.5541
  158SAPE   H6R17620   3.557   4.454   7.255  2.1765  1.2740 -0.5278
  158SAPE   C2717621   3.432   4.605   7.138  0.5622  0.0233  0.4717
  158SAPE   H7R17622   3.394   4.607   7.033 -1.0002 -2.8724  0.8821
  158SAPE   H7S17623   3.494   4.694   7.160  0.0634  0.3288  0.6483
  158SAPE   C2817624   3.317   4.614   7.238 -0.1375  0.1333 -0.6215
  158SAPE   H8R17625   3.221   4.585   7.193 -0.3200 -0.8511  0.3548
  158SAPE   C2917626   3.316   4.642   7.370  0.5021  0.0489 -0.2242
  158SAPE   H9R17627   3.219   4.633   7.421  0.9368  2.8050  1.2861
  158SAPE  C21017628   3.437   4.673   7.453 -0.8180  0.0437 -0.1851
  158SAPE  H10R17629   3.526   4.616   7.422  1.4126  2.0192  2.1063
  158SAPE  H10S17630   3.414   4.632   7.554  1.0429 -1.8022 -0.4466
  158SAPE  C21117631   3.471   4.819   7.447 -0.0738  0.5466 -0.5222
  158SAPE  H11R17632   3.528   4.850   7.359  0.3711 -0.1745 -0.5019
  158SAPE  C21217633   3.457   4.902   7.548  0.1555  0.5747 -0.3055
  158SAPE  H12R17634   3.475   5.006   7.516 -2.3492  0.9499 -0.6898
  158SAPE  C21317635   3.407   4.869   7.687  0.0741  0.2981  0.0709
  158SAPE  H13R17636   3.486   4.844   7.761  0.4188  1.5032  0.1256
  158SAPE  H13S17637   3.344   4.777   7.689 -0.6300  0.7457  2.6012
  158SAPE  C21417638   3.336   4.993   7.735  1.2002  0.2885  0.7315
  158SAPE  H14R17639   3.388   5.048   7.815  1.9558 -1.4631  1.4829
  158SAPE  C21517640   3.220   5.043   7.698  0.3899 -0.4689  0.7425
  158SAPE  H15R17641   3.182   5.134   7.747  0.7433  0.1674 -0.1337
  158SAPE  C21617642   3.128   4.984   7.588  0.0355 -0.1976  0.2395
  158SAPE  H16R17643   3.044   4.932   7.639  0.5537 -0.5197  0.7713
  158SAPE  H16S17644   3.182   4.904   7.532  1.6953  1.6174 -0.8947
  158SAPE  C21717645   3.075   5.080   7.484 -0.0774  0.8876  0.4896
  158SAPE  H17R17646   3.015   5.015   7.417  0.5466  2.1219 -1.3385
  158SAPE  H17S17647   3.156   5.117   7.417  0.2925  2.3683  1.6830
  158SAPE  C21817648   2.974   5.177   7.545  0.1892 -0.6150  0.7163
  158SAPE  H18R17649   2.969   5.271   7.486  0.5671 -0.3274  1.1358
  158SAPE  H18S17650   2.999   5.209   7.648 -0.6751  1.3114  0.3647
  158SAPE  C21917651   2.832   5.131   7.533  0.1702  0.1326 -0.2450
  158SAPE  H19R17652   2.817   5.052   7.610 -0.6248 -1.3952 -1.8859
  158SAPE  H19S17653   2.812   5.085   7.434  1.0234  0.1040 -0.4129
  158SAPE  C22017654   2.742   5.252   7.549  0.3763  0.2494 -0.7575
  158SAPE  H20R17655   2.778   5.321   7.628 -1.4430 -2.3082  2.5216
  158SAPE  H20S17656   2.640   5.214   7.572  0.0302  1.4521 -0.2233
  158SAPE  H20T17657   2.727   5.309   7.454 -2.2344 -0.5450 -0.9072
  158SAPE   C3317658   3.860   4.788   7.000 -0.1087  0.3335  0.0051
  158SAPE   H3X17659   3.787   4.764   6.920 -0.9153  0.2779  0.7461
  158SAPE   H3Y17660   3.851   4.893   7.036 -2.6010 -0.4492  1.9277
  158SAPE   C3417661   3.820   4.715   7.132  0.5308  0.5531  0.2707
  158SAPE   H4X17662   3.843   4.607   7.115  1.9611  0.4999  2.1499
  158SAPE   H4Y17663   3.711   4.724   7.151  0.6037  2.5625 -0.0379
  158SAPE   C3517664   3.885   4.775   7.259 -0.0501  0.8509 -0.5305
  158SAPE   H5X17665   3.870   4.884   7.270 -0.6154  0.9224 -1.7785
  158SAPE   H5Y17666   3.994   4.754   7.252 -0.2841  0.0324 -2.7376
  158SAPE   C3617667   3.839   4.694   7.385  0.6339  0.5175 -0.0301
  158SAPE   H6X17668   3.873   4.588   7.373  1.1076  0.5038  1.3073
  158SAPE   H6Y17669   3.728   4.694   7.385  0.6341  0.6812  0.2400
  158SAPE   C3717670   3.883   4.744   7.529  0.2350  0.3455 -0.7384
  158SAPE   H7X17671   3.989   4.776   7.525 -0.0439  1.7312  1.2871
  158SAPE   H7Y17672   3.828   4.839   7.547 -1.2894 -0.3061 -1.7671
  158SAPE   C3817673   3.872   4.638   7.640  0.4023 -0.2545  0.8848
  158SAPE   H8X17674   3.908   4.538   7.610 -0.6420  0.1013 -1.8013
  158SAPE   H8Y17675   3.763   4.625   7.659  0.5084  1.1320  2.7890
  158SAPE   C3917676   3.939   4.676   7.771  0.1141 -0.1079  0.0055
  158SAPE   H9X17677   3.904   4.775   7.807 -0.4563 -0.6469  0.9822
  158SAPE   H9Y17678   4.043   4.693   7.737  1.0143 -1.4201  1.8818
  158SAPE  C31017679   3.932   4.565   7.877 -0.2083 -0.4073 -0.0750
  158SAPE  H10X17680   3.949   4.461   7.841 -0.4807 -1.0993  1.6781
  158SAPE  H10Y17681   3.824   4.564   7.906 -0.1847 -1.4918  0.0059
  158SAPE  C31117682   4.033   4.599   7.992 -0.0557 -0.1185 -0.3213
  158SAPE  H11X17683   4.032   4.709   8.001  0.4813 -0.0859 -0.5920
  158SAPE  H11Y17684   4.132   4.562   7.956  0.3187  0.1360  0.4386
  158SAPE  C31217685   4.002   4.527   8.123  1.0236  0.3078  0.3187
  158SAPE  H12X17686   3.900   4.550   8.161  1.3763 -0.3211  1.7385
  158SAPE  H12Y17687   4.071   4.576   8.196  1.3733  0.0441  0.1672
  158SAPE  C31317688   4.011   4.372   8.119  0.2224  0.5332  0.1811
  158SAPE  H13X17689   4.101   4.353   8.055 -0.2464 -0.2378 -0.2658
  158SAPE  H13Y17690   3.927   4.318   8.071  0.2555 -0.3736  1.1163
  158SAPE  C31417691   4.029   4.310   8.258 -0.1129 -0.3161 -0.4012
  158SAPE  H14X17692   3.943   4.330   8.325  0.9059  0.4185  0.7302
  158SAPE  H14Y17693   4.119   4.335   8.318 -1.3893  0.8149  1.1048
  158SAPE  C31517694   4.030   4.158   8.246 -0.6636 -0.0994 -0.1252
  158SAPE  H15X17695   3.932   4.135   8.199 -1.1817  2.0699 -0.2123
  158SAPE  H15Y17696   4.021   4.118   8.349  0.2290  0.3334  0.1271
  158SAPE  C31617697   4.143   4.088   8.172  0.1624  0.2075 -0.1525
  158SAPE  H16X17698   4.240   4.115   8.220  0.9223  2.7288 -2.8208
  158SAPE  H16Y17699   4.148   4.117   8.065  0.0952 -0.7217 -0.4185
  158SAPE  C31717700   4.137   3.932   8.169  1.0012  0.5671  0.1421
  158SAPE  H17X17701   4.122   3.904   8.276 -0.4303 -0.3632 -0.2655
  158SAPE  H17Y17702   4.236   3.892   8.139  0.3766  0.1663 -1.4301
  158SAPE  C31817703   4.021   3.869   8.096 -0.1300 -0.0458  0.0282
  158SAPE  H18X17704   4.005   3.921   7.999 -2.4531  1.3433  1.0724
  158SAPE  H18Y17705   3.924   3.864   8.151 -0.6461 -1.0478 -0.9213
  158SAPE  H18Z17706   4.035   3.760   8.075 -1.4454 -0.3687  0.7043
  159SAPE     N17707   5.501   2.322   6.135  0.1210  0.3940  0.3355
  159SAPE   HN117708   5.415   2.263   6.132  0.1215  0.2363  2.1714
  159SAPE   HN217709   5.479   2.398   6.202  2.6968  1.3414  0.2102
  159SAPE   HN317710   5.503   2.354   6.036 -4.4559 -0.7717 -0.3954
  159SAPE   C1217711   5.619   2.239   6.179 -0.1117 -0.1188 -0.0602
  159SAPE  H12A17712   5.695   2.307   6.224 -2.0067  0.5410  2.4038
  159SAPE  H12B17713   5.648   2.174   6.094 -0.9791 -0.2916 -0.2335
  159SAPE   C1117714   5.576   2.141   6.299 -0.3110 -0.1326  0.1315
  159SAPE  H11A17715   5.543   2.201   6.386  0.3278  0.6323 -0.1459
  159SAPE  H11B17716   5.659   2.072   6.323  0.2826  0.8929  1.0928
  159SAPE     P17717   5.367   1.998   6.364 -0.1528  0.0134  0.1010
  159SAPE   O1317718   5.237   1.974   6.309 -0.4088 -0.2772 -0.3615
  159SAPE   O1417719   5.424   1.879   6.438 -0.0992  0.0037  1.0654
  159SAPE   O1217720   5.469   2.055   6.254 -0.0723  0.2229 -0.5192
  159SAPE   O1117721   5.354   2.114   6.468 -0.7167 -0.2473 -0.4001
  159SAPE    C117722   5.249   2.214   6.452  1.4193 -0.1457 -0.8808
  159SAPE    HA17723   5.300   2.304   6.412  0.9161  1.1246  1.1762
  159SAPE    HB17724   5.168   2.186   6.382  0.4238  0.1142  0.1456
  159SAPE    C217725   5.167   2.241   6.589  0.1144 -0.1384  0.5904
  159SAPE    HS17726   5.115   2.338   6.572  1.3714  0.8710  2.2004
  159SAPE   O2117727   5.266   2.250   6.693 -0.5252 -0.0221  0.0940
  159SAPE   C2117728   5.329   2.369   6.699  0.2948  0.8702 -0.8942
  159SAPE   O2217729   5.319   2.462   6.621 -0.0152 -0.6873  0.4435
  159SAPE   C2217730   5.410   2.372   6.820  0.7215  0.1897  0.9895
  159SAPE   H2R17731   5.368   2.421   6.910 -0.4605 -0.7590  0.9773
  159SAPE   H2S17732   5.430   2.267   6.851  0.5506  0.1985  1.1291
  159SAPE    C317733   5.064   2.128   6.617  0.8339 -0.5089 -0.1628
  159SAPE    HX17734   5.114   2.036   6.653 -1.6687 -2.3961 -1.2556
  159SAPE    HY17735   5.018   2.101   6.519 -0.1113 -0.9616  0.3950
  159SAPE   O3117736   4.944   2.178   6.694  0.4639 -0.5368  0.3153
  159SAPE   C3117737   4.966   2.196   6.827 -0.5633  0.0201  0.4250
  159SAPE   O3217738   5.073   2.180   6.888 -0.1388  0.2648 -0.2160
  159SAPE   C3217739   4.834   2.242   6.887 -0.3342  0.1886  0.1148
  159SAPE   H2X17740   4.770   2.151   6.886 -0.8319  0.5346 -1.2896
  159SAPE   H2Y17741   4.787   2.313   6.816 -0.9895  0.7379  1.0836
  159SAPE   C2317742   5.551   2.429   6.788 -0.7556 -0.5173 -0.0912
  159SAPE   H3R17743   5.544   2.531   6.745  1.6099  1.6735  4.0692
  159SAPE   H3S17744   5.598   2.378   6.701 -0.1784  0.5810 -0.4501
  159SAPE   C2417745   5.650   2.449   6.907 -0.1321  0.2093  0.4662
  159SAPE   H4R17746   5.595   2.501   6.989 -0.6470 -0.6808  0.7000
  159SAPE   H4S17747   5.723   2.528   6.881 -0.4515  0.0315 -1.0733
  159SAPE   C2517748   5.697   2.313   6.949 -0.1526  0.6517 -1.0584
  159SAPE   H5R17749   5.684   2.229   6.879  1.2229  0.3887 -1.0359
  159SAPE   C2617750   5.737   2.283   7.076  0.8057  1.3217 -0.4317
  159SAPE   H6R17751   5.768   2.180   7.097 -1.1844  0.6338 -0.6805
  159SAPE   C2717752   5.743   2.382   7.191 -0.3831 -0.3170 -0.4045
  159SAPE   H7R17753   5.677   2.471   7.186  2.6053  2.0943  0.2130
  159SAPE   H7S17754   5.844   2.427   7.194 -0.2931 -0.5004  2.3238
  159SAPE   C2817755   5.718   2.309   7.325 -0.1226  0.0360  1.2170
  159SAPE   H8R17756   5.677   2.208   7.325  2.1502 -0.9456  1.4161
  159SAPE   C2917757   5.747   2.364   7.445  0.7450  0.2849  0.2465
  159SAPE   H9R17758   5.729   2.293   7.527 -0.3581  1.2808  0.8896
  159SAPE  C21017759   5.798   2.504   7.470 -0.9056  0.5284 -0.0989
  159SAPE  H10R17760   5.764   2.554   7.377 -1.7488  0.7918  0.3414
  159SAPE  H10S17761   5.908   2.497   7.480 -0.9941  0.1933  0.6784
  159SAPE  C21117762   5.713   2.574   7.573 -0.4395  0.0306 -0.3604
  159SAPE  H11R17763   5.625   2.621   7.527 -0.0430 -0.0604 -1.2232
  159SAPE  C21217764   5.728   2.568   7.707 -0.7062  0.3366  0.3027
  159SAPE  H12R17765   5.674   2.637   7.774  0.8546  0.3024  1.6652
  159SAPE  C21317766   5.842   2.501   7.779  0.0293  0.6311 -0.8019
  159SAPE  H13R17767   5.909   2.582   7.817 -0.7769  1.8707 -1.9334
  159SAPE  H13S17768   5.898   2.445   7.701  0.0883 -1.0187  0.3856
  159SAPE  C21417769   5.784   2.415   7.897 -0.2733 -0.3453  0.2297
  159SAPE  H14R17770   5.689   2.366   7.872  0.8358 -2.0231 -0.9095
  159SAPE  C21517771   5.845   2.382   8.011 -0.5592 -0.3358 -0.5593
  159SAPE  H15R17772   5.799   2.314   8.083 -1.4456  0.3563 -0.4580
  159SAPE  C21617773   5.980   2.444   8.034  0.9090  0.2826  0.5076
  159SAPE  H16R17774   6.038   2.467   7.941  1.2167 -0.6239  0.4574
  159SAPE  H16S17775   6.045   2.373   8.089 -0.1763 -0.3164  1.0479
  159SAPE  C21717776   5.980   2.562   8.131 -0.4836 -0.1820  0.3696
  159SAPE  H17R17777   5.929   2.553   8.229  2.3852 -1.9403  1.8361
  159SAPE  H17S17778   5.931   2.645   8.075  1.5029  1.6106  1.1267
  159SAPE  C21817779   6.120   2.626   8.160 -0.4560 -0.0800  0.2807
  159SAPE  H18R17780   6.198   2.550   8.183  2.3485  3.2298  2.8140
  159SAPE  H18S17781   6.105   2.691   8.249 -0.5923 -1.1959  1.0983
  159SAPE  C21917782   6.171   2.709   8.044  0.1470  0.4243 -0.4719
  159SAPE  H19R17783   6.145   2.656   7.950  0.5825 -1.5296  0.4575
  159SAPE  H19S17784   6.280   2.730   8.047  0.2075  0.1463 -0.7380
  159SAPE  C22017785   6.097   2.842   8.039 -0.4550 -0.4695 -0.3787
  159SAPE  H20R17786   6.153   2.922   7.988 -1.4415 -1.0199 -2.4171
  159SAPE  H20S17787   6.081   2.882   8.141  3.5902 -0.1330  0.2790
  159SAPE  H20T17788   6.005   2.823   7.980 -0.5588 -0.3849 -0.2445
  159SAPE   C3317789   4.822   2.288   7.032 -0.4641 -0.3696  0.1846
  159SAPE   H3X17790   4.724   2.338   7.044 -0.5621 -0.5370  0.0927
  159SAPE   H3Y17791   4.905   2.361   7.041  0.0268 -0.8637 -0.2233
  159SAPE   C3417792   4.832   2.191   7.151  0.2524 -0.6929  0.0019
  159SAPE   H4X17793   4.929   2.137   7.145  0.6234  0.1409 -3.0563
  159SAPE   H4Y17794   4.749   2.118   7.145 -0.6124  0.3242 -0.7477
  159SAPE   C3517795   4.816   2.256   7.288  0.8644  0.6907 -0.3259
  159SAPE   H5X17796   4.708   2.278   7.306  1.1505  1.1703  0.8468
  159SAPE   H5Y17797   4.867   2.354   7.296  0.0091  1.0129  1.9969
  159SAPE   C3617798   4.864   2.175   7.408 -1.0743 -0.0418 -0.6873
  159SAPE   H6X17799   4.974   2.162   7.400 -0.3175  4.1521  0.7484
  159SAPE   H6Y17800   4.829   2.070   7.394  0.7681 -0.9191  0.8625
  159SAPE   C3717801   4.836   2.231   7.543 -0.2705 -0.6901 -0.2484
  159SAPE   H7X17802   4.728   2.223   7.569 -0.5883  1.5678 -0.6607
  159SAPE   H7Y17803   4.854   2.340   7.533 -1.3137 -0.6245 -1.7670
  159SAPE   C3817804   4.920   2.171   7.652 -0.3095  0.1605  0.3218
  159SAPE   H8X17805   5.026   2.200   7.637 -0.8673  2.0771 -0.2413
  159SAPE   H8Y17806   4.912   2.061   7.640 -0.1009  0.3748 -2.1968
  159SAPE   C3917807   4.875   2.213   7.791 -0.4758 -0.1087  0.4825
  159SAPE   H9X17808   4.776   2.171   7.819  0.3358 -1.8996  0.7641
  159SAPE   H9Y17809   4.878   2.324   7.793  1.7284 -0.0962 -0.3041
  159SAPE  C31017810   4.973   2.177   7.900 -1.0583  0.1504 -0.8470
  159SAPE  H10X17811   5.073   2.222   7.884 -1.2920  0.0928 -2.7094
  159SAPE  H10Y17812   4.977   2.066   7.904  1.1575  0.1548 -1.5959
  159SAPE  C31117813   4.927   2.234   8.039 -0.6799  0.2948 -0.3957
  159SAPE  H11X17814   4.838   2.175   8.066  0.7628 -1.1475  1.5408
  159SAPE  H11Y17815   4.903   2.343   8.047 -1.4040  0.0138  1.9285
  159SAPE  C31217816   5.041   2.209   8.135  0.0608 -0.0492 -0.0344
  159SAPE  H12X17817   5.128   2.269   8.101  1.2634 -0.9668  1.3109
  159SAPE  H12Y17818   5.066   2.101   8.135  0.2693 -0.0156  1.0650
  159SAPE  C31317819   5.027   2.251   8.279  0.3938  0.7363  0.1268
  159SAPE  H13X17820   5.038   2.361   8.282 -0.8210  0.8514  1.6032
  159SAPE  H13Y17821   5.117   2.219   8.336  1.6194 -0.5604 -2.3714
  159SAPE  C31417822   4.898   2.189   8.348  0.3586 -0.7145 -0.2326
  159SAPE  H14X17823   4.908   2.078   8.354  1.2652 -0.6309 -0.0250
  159SAPE  H14Y17824   4.805   2.206   8.289 -0.8951 -2.8001  1.0312
  159SAPE  C31517825   4.861   2.248   8.483 -0.4634 -0.7895 -0.1281
  159SAPE  H15X17826   4.919   2.220   8.573  1.0442  3.0011  0.2842
  159SAPE  H15Y17827   4.759   2.213   8.509 -1.0059 -0.0646 -1.1686
  159SAPE  C31617828   4.843   2.402   8.484 -0.2689 -0.7457 -0.2742
  159SAPE  H16X17829   4.770   2.443   8.411  0.3088  1.2358  0.2120
  159SAPE  H16Y17830   4.941   2.443   8.454 -0.4064 -0.4265 -0.2898
  159SAPE  C31717831   4.824   2.463   8.621  0.6603 -0.4810  0.1727
  159SAPE  H17X17832   4.730   2.430   8.669 -0.6262  0.1517 -1.8001
  159SAPE  H17Y17833   4.811   2.572   8.611  0.7426 -0.1825  2.7093
  159SAPE  C31817834   4.940   2.446   8.713 -0.3312 -0.4495  0.2596
  159SAPE  H18X17835   4.937   2.344   8.757 -0.0882 -0.2256  0.8173
  159SAPE  H18Y17836   4.937   2.525   8.791 -0.0528  0.2029 -0.3767
  159SAPE  H18Z17837   5.040   2.460   8.665 -1.2414  1.1832 -1.3014
  160SAPE     N17838   3.229   4.762   6.141 -0.4570 -0.0142 -0.1714
  160SAPE   HN117839   3.222   4.666   6.102  1.1795  0.2782 -1.3342
  160SAPE   HN217840   3.230   4.827   6.059  1.7378  0.8670  0.4724
  160SAPE   HN317841   3.315   4.775   6.198  0.2969  2.7841 -1.7403
  160SAPE   C1217842   3.105   4.786   6.215  0.7379 -0.1092  0.7294
  160SAPE  H12A17843   3.031   4.746   6.142  1.5991  2.3070 -1.6571
  160SAPE  H12B17844   3.085   4.895   6.217  0.3608 -0.1877  1.4091
  160SAPE   C1117845   3.085   4.707   6.346 -0.0971 -1.0171 -0.1496
  160SAPE  H11A17846   2.981   4.710   6.385  0.1015 -1.4334  0.4247
  160SAPE  H11B17847   3.139   4.766   6.423 -2.7053  1.1119  0.1539
  160SAPE     P17848   3.069   4.444   6.350 -0.2371 -0.0341 -0.1728
  160SAPE   O1317849   2.926   4.478   6.343  0.1145 -0.3216 -0.6079
  160SAPE   O1417850   3.115   4.350   6.248 -0.6112  0.1783  0.2774
  160SAPE   O1217851   3.148   4.580   6.334  1.0269  0.4436  0.6357
  160SAPE   O1117852   3.100   4.402   6.501  0.0954 -0.4761 -0.2075
  160SAPE    C117853   3.227   4.370   6.556 -0.0763 -0.0244 -0.4750
  160SAPE    HA17854   3.205   4.269   6.598 -1.7046 -0.3510 -1.9553
  160SAPE    HB17855   3.310   4.358   6.483  0.4881  0.5428  0.0659
  160SAPE    C217856   3.280   4.462   6.672  0.1383 -0.0679  1.0880
  160SAPE    HS17857   3.368   4.409   6.715 -0.5653  0.4212  3.2430
  160SAPE   O2117858   3.182   4.483   6.781 -0.8258  0.5721 -0.5389
  160SAPE   C2117859   3.161   4.370   6.854 -0.0159  0.4468 -0.3809
  160SAPE   O2217860   3.209   4.257   6.833 -0.5075  0.0376  0.3709
  160SAPE   C2217861   3.066   4.390   6.967  0.4002  0.2692 -0.3735
  160SAPE   H2R17862   3.103   4.476   7.026  2.2856 -0.1878 -0.7979
  160SAPE   H2S17863   2.978   4.427   6.910  3.4717  2.5247 -4.1591
  160SAPE    C317864   3.335   4.593   6.615 -0.3617 -0.0570 -0.5429
  160SAPE    HX17865   3.252   4.649   6.568  0.4172  1.4509 -0.1720
  160SAPE    HY17866   3.418   4.578   6.542  1.8487 -0.2811  1.8786
  160SAPE   O3117867   3.403   4.666   6.719  0.5096 -0.2743 -0.2938
  160SAPE   C3117868   3.415   4.800   6.683 -0.6946  0.5520 -0.6022
  160SAPE   O3217869   3.381   4.852   6.580 -0.7359  0.3520  0.3274
  160SAPE   C3217870   3.496   4.866   6.797  0.2174 -0.5630 -0.1012
  160SAPE   H2X17871   3.595   4.816   6.795  0.7479  0.2546  2.3660
  160SAPE   H2Y17872   3.454   4.828   6.892  1.1016 -0.2334  0.4262
  160SAPE   C2317873   3.069   4.267   7.060  0.5651  0.6629  0.6268
  160SAPE   H3R17874   3.135   4.287   7.147  0.2072 -1.9742  1.5967
  160SAPE   H3S17875   3.117   4.175   7.021 -1.1937 -0.1434  0.2467
  160SAPE   C2417876   2.936   4.227   7.133 -0.2871 -0.2915 -0.1033
  160SAPE   H4R17877   2.956   4.144   7.203 -1.1399  1.8046  2.8205
  160SAPE   H4S17878   2.864   4.197   7.054 -2.5163  3.9621 -0.0105
  160SAPE   C2517879   2.885   4.342   7.216 -0.1705  0.5055  0.5873
  160SAPE   H5R17880   2.877   4.430   7.151  1.4690  0.0449 -0.2850
  160SAPE   C2617881   2.861   4.343   7.346  0.0632 -1.1510  0.6562
  160SAPE   H6R17882   2.810   4.436   7.376 -2.0460 -1.3836 -1.8694
  160SAPE   C2717883   2.887   4.238   7.446  0.0008  0.0261  0.9493
  160SAPE   H7R17884   2.866   4.135   7.409  0.3149  0.1346  0.4672
  160SAPE   H7S17885   2.829   4.254   7.539  0.8808  0.9856  1.3509
  160SAPE   C2817886   3.039   4.234   7.468  0.4049 -0.4240  0.3001
  160SAPE   H8R17887   3.099   4.248   7.377  0.3014 -2.6073 -0.1667
  160SAPE   C2917888   3.093   4.211   7.588  0.0545  0.3479  0.1105
  160SAPE   H9R17889   3.203   4.200   7.590  0.2546  2.1188  0.1728
  160SAPE  C21017890   3.014   4.176   7.712 -0.3408 -0.1338  0.0032
  160SAPE  H10R17891   3.000   4.068   7.733  1.1266 -0.3463  0.0084
  160SAPE  H10S17892   2.907   4.203   7.705 -0.3345  0.1780  0.9168
  160SAPE  C21117893   3.085   4.242   7.823  0.1960 -0.2469 -0.2743
  160SAPE  H11R17894   3.044   4.343   7.838 -0.5679 -0.3103 -1.7470
  160SAPE  C21217895   3.161   4.188   7.921  0.9894  0.2296 -0.4878
  160SAPE  H12R17896   3.198   4.258   7.998 -0.6493 -0.0845  0.6263
  160SAPE  C21317897   3.196   4.050   7.940  0.4561  0.5230 -0.2665
  160SAPE  H13R17898   3.290   4.045   8.000  0.2031  0.5198  0.1289
  160SAPE  H13S17899   3.216   4.005   7.840 -1.6024  1.3215 -1.0779
  160SAPE  C21417900   3.079   3.978   8.006 -0.8853 -0.1213  0.2212
  160SAPE  H14R17901   2.981   4.012   7.971 -0.4651 -1.4324 -2.5803
  160SAPE  C21517902   3.082   3.884   8.100 -0.2660  0.3895  0.6012
  160SAPE  H15R17903   2.989   3.832   8.126 -1.7262  1.9322 -1.1963
  160SAPE  C21617904   3.206   3.828   8.176  0.0500  0.5330  0.1161
  160SAPE  H16R17905   3.297   3.880   8.136 -0.9434  2.1239 -0.1827
  160SAPE  H16S17906   3.217   3.720   8.157 -2.8062  0.0223  0.8866
  160SAPE  C21717907   3.200   3.845   8.329  0.3649 -0.1974  0.3533
  160SAPE  H17R17908   3.265   3.766   8.372  0.8569 -1.3253 -2.3318
  160SAPE  H17S17909   3.103   3.813   8.373  1.7574 -1.2360  2.8973
  160SAPE  C21817910   3.239   3.987   8.382 -0.5644  0.4024  0.0135
  160SAPE  H18R17911   3.199   4.057   8.306 -0.6392  1.0868  0.6787
  160SAPE  H18S17912   3.350   3.994   8.383 -0.6395  2.4022 -0.9467
  160SAPE  C21917913   3.185   4.001   8.518 -0.5497 -0.3901 -0.2725
  160SAPE  H19R17914   3.211   3.921   8.591 -0.9421  0.0923  0.4117
  160SAPE  H19S17915   3.074   3.993   8.514 -0.5121 -0.2763 -2.5034
  160SAPE  C22017916   3.221   4.129   8.592  0.8981  0.5397  0.4631
  160SAPE  H20R17917   3.147   4.119   8.674 -1.2648 -1.5611 -1.5984
  160SAPE  H20S17918   3.196   4.222   8.537  0.6209  0.5807  0.6519
  160SAPE  H20T17919   3.322   4.129   8.638  0.7944 -2.6930  0.9032
  160SAPE   C3317920   3.516   5.020   6.791  0.0728 -0.4348  0.3504
  160SAPE   H3X17921   3.421   5.072   6.817  0.9245  1.2689  0.2440
  160SAPE   H3Y17922   3.529   5.044   6.683  0.5404  1.4539  0.7899
  160SAPE   C3417923   3.633   5.080   6.868  0.6942 -0.7200  0.1504
  160SAPE   H4X17924   3.631   5.190   6.859  0.8098 -0.3342  3.4146
  160SAPE   H4Y17925   3.732   5.030   6.857  0.2353 -1.6934  0.3031
  160SAPE   C3517926   3.601   5.076   7.016 -0.4159 -0.1342 -0.4970
  160SAPE   H5X17927   3.692   5.109   7.069 -0.8588 -0.4736  0.4951
  160SAPE   H5Y17928   3.591   4.970   7.050  0.9203 -0.2310 -0.3495
  160SAPE   C3617929   3.484   5.167   7.058  0.2016  0.0269 -0.5943
  160SAPE   H6X17930   3.389   5.139   7.008  0.8023  0.7746 -2.2169
  160SAPE   H6Y17931   3.504   5.274   7.037  0.6065  0.0914  0.0826
  160SAPE   C3717932   3.460   5.172   7.209 -0.7177 -0.3699 -0.4821
  160SAPE   H7X17933   3.554   5.191   7.265  0.1213 -0.5718 -1.7822
  160SAPE   H7Y17934   3.424   5.073   7.244 -2.5101 -0.4682 -2.4519
  160SAPE   C3817935   3.363   5.280   7.263  0.3865 -0.6216 -0.1206
  160SAPE   H8X17936   3.261   5.253   7.226 -0.3326 -0.2977  1.5372
  160SAPE   H8Y17937   3.381   5.386   7.236  1.3080 -0.3050  1.6414
  160SAPE   C3917938   3.354   5.293   7.417 -0.7692  0.5067 -0.1602
  160SAPE   H9X17939   3.376   5.193   7.459 -0.5044  0.4269 -0.4837
  160SAPE   H9Y17940   3.253   5.329   7.446 -1.0124 -0.5550  0.3584
  160SAPE  C31017941   3.462   5.381   7.476 -0.0093 -0.4440 -0.3493
  160SAPE  H10X17942   3.445   5.486   7.445  1.0535  0.0194  0.5690
  160SAPE  H10Y17943   3.564   5.357   7.440  0.3678  1.3612 -0.5540
  160SAPE  C31117944   3.462   5.379   7.635  0.5529 -0.9010  0.0943
  160SAPE  H11X17945   3.496   5.278   7.669 -2.3618 -2.7329 -1.9250
  160SAPE  H11Y17946   3.358   5.396   7.669  0.6252 -1.6284  0.7034
  160SAPE  C31217947   3.565   5.479   7.688 -0.3384 -0.5183 -0.6668
  160SAPE  H12X17948   3.515   5.578   7.681 -0.1576 -0.3459  0.3419
  160SAPE  H12Y17949   3.659   5.476   7.628 -1.0599 -0.2432 -1.8437
  160SAPE  C31317950   3.602   5.458   7.838  0.8740 -0.0995  0.8322
  160SAPE  H13X17951   3.655   5.553   7.863  0.3209  0.7813 -1.1717
  160SAPE  H13Y17952   3.677   5.377   7.851  2.4904  0.9387 -1.4061
  160SAPE  C31417953   3.481   5.434   7.934 -0.2615  0.2558  0.2293
  160SAPE  H14X17954   3.443   5.329   7.938  0.5624 -0.1450 -1.5375
  160SAPE  H14Y17955   3.402   5.502   7.895 -2.8476 -2.4214  0.4490
  160SAPE  C31517956   3.509   5.472   8.082 -0.0157  0.7579 -0.8762
  160SAPE  H15X17957   3.522   5.582   8.089  1.7059  0.4909  2.0007
  160SAPE  H15Y17958   3.609   5.432   8.111  0.0373  2.3691  1.5181
  160SAPE  C31617959   3.399   5.421   8.184  0.0869 -0.6674  0.2278
  160SAPE  H16X17960   3.414   5.311   8.182 -0.1049 -0.7265 -2.6668
  160SAPE  H16Y17961   3.300   5.442   8.136 -0.0652  0.1673  0.8879
  160SAPE  C31717962   3.416   5.486   8.317 -0.7528 -0.1730 -1.2123
  160SAPE  H17X17963   3.350   5.425   8.383  0.6323 -0.0658  0.3123
  160SAPE  H17Y17964   3.378   5.591   8.316 -1.0540 -0.2363  0.3471
  160SAPE  C31817965   3.560   5.484   8.375  0.1666 -0.2584 -0.5442
  160SAPE  H18X17966   3.619   5.537   8.298 -0.6990  2.2607  0.4489
  160SAPE  H18Y17967   3.604   5.381   8.374 -0.2149 -0.4440  0.5244
  160SAPE  H18Z17968   3.543   5.538   8.471 -1.5132  1.4897 -1.7561
  161SOPE     N17969   0.638   1.280  11.094 -0.1160 -0.2541  0.1430
  161SOPE   HN117970   0.689   1.322  11.014 -1.3383 -1.8262 -1.5542
  161SOPE   HN217971   0.546   1.328  11.105  0.8313  1.7050 -0.0849
  161SOPE   HN317972   0.697   1.292  11.178 -0.5738  0.6577  0.3477
  161SOPE   C1217973   0.626   1.136  11.073 -0.0240  0.0838  0.4332
  161SOPE  H12A17974   0.552   1.092  11.143 -1.4792 -0.0050 -1.1084
  161SOPE  H12B17975   0.726   1.092  11.093 -1.6498 -2.2529  4.7435
  161SOPE   C1117976   0.573   1.098  10.928 -0.2905 -0.1437 -0.5624
  161SOPE  H11A17977   0.494   1.166  10.889 -1.1052 -1.0340 -0.5168
  161SOPE  H11B17978   0.525   0.998  10.938 -0.3525 -0.6181 -4.1706
  161SOPE     P17979   0.785   0.976  10.831 -0.0277 -0.0395  0.1247
  161SOPE   O1317980   0.815   0.919  10.960  0.0604  0.0389 -0.4915
  161SOPE   O1417981   0.905   1.021  10.755  0.3102  0.1430 -0.3697
  161SOPE   O1217982   0.680   1.096  10.833 -0.0598 -0.2590  0.3321
  161SOPE   O1117983   0.716   0.861  10.748  0.1043 -0.0683 -0.5532
  161SOPE    C117984   0.624   0.887  10.643  0.1696  0.5524 -0.3155
  161SOPE    HA17985   0.680   0.867  10.549 -0.2343  1.5131 -0.7732
  161SOPE    HB17986   0.587   0.992  10.645 -0.7493  0.2841  3.0399
  161SOPE    C217987   0.512   0.788  10.655 -0.1136 -0.1632  0.0860
  161SOPE    HS17988   0.453   0.816  10.744 -0.4867  0.7414 -0.4370
  161SOPE   O2117989   0.561   0.656  10.656 -0.2038  0.6334  0.5305
  161SOPE   C2117990   0.478   0.553  10.680 -0.6058 -0.3112  0.2869
  161SOPE   O2217991   0.362   0.560  10.721 -0.3926  0.4117 -0.6185
  161SOPE   C2217992   0.556   0.427  10.683  0.3362 -0.1239  0.2240
  161SOPE   H2R17993   0.527   0.372  10.775  1.3561  0.2142  0.7654
  161SOPE   H2S17994   0.666   0.446  10.683  0.6146 -1.5566  1.0678
  161SOPE    C317995   0.396   0.808  10.544 -0.2474 -0.5145 -0.7483
  161SOPE    HX17996   0.363   0.913  10.557 -1.2048 -0.8103 -0.7118
  161SOPE    HY17997   0.310   0.746  10.576 -0.8709  1.3639  1.4324
  161SOPE   O3117998   0.439   0.761  10.417  0.0340 -0.1705  0.3179
  161SOPE   C3117999   0.372   0.813  10.316 -0.7503  0.8202 -0.2270
  161SOPE   O3218000   0.267   0.875  10.319 -0.3701 -0.6396 -0.3609
  161SOPE   C3218001   0.443   0.776  10.188  0.2645  0.1672 -0.0914
  161SOPE   H2X18002   0.530   0.709  10.202 -0.0488 -0.4206 -0.8980
  161SOPE   H2Y18003   0.469   0.873  10.139 -0.4794 -0.1913 -1.2557
  161SOPE   C2318004   0.524   0.345  10.553  0.0420  0.1061  0.0221
  161SOPE   H3R18005   0.420   0.310  10.537 -0.5050  1.5892  0.2135
  161SOPE   H3S18006   0.589   0.255  10.554 -1.0701 -0.7138  1.1951
  161SOPE   C2418007   0.574   0.404  10.416 -0.1616  0.2258  0.6418
  161SOPE   H4R18008   0.514   0.348  10.342  2.1298 -0.4909 -0.7639
  161SOPE   H4S18009   0.548   0.512  10.411  1.4499  0.6477  0.8207
  161SOPE   C2518010   0.726   0.391  10.385 -0.2943  0.2101  1.4149
  161SOPE   H5R18011   0.791   0.458  10.445  1.1528  1.6816 -1.5972
  161SOPE   H5S18012   0.759   0.289  10.412  1.7623  0.7824  1.2207
  161SOPE   C2618013   0.776   0.419  10.241 -0.2829 -0.1810  0.3633
  161SOPE   H6R18014   0.738   0.520  10.216  1.7409  1.3325  2.9321
  161SOPE   H6S18015   0.887   0.416  10.238 -0.1813  0.9908  2.2082
  161SOPE   C2718016   0.721   0.310  10.149  0.2052 -0.1140 -0.0371
  161SOPE   H7R18017   0.761   0.209  10.173 -1.4784 -1.4720 -2.3927
  161SOPE   H7S18018   0.610   0.314  10.154  0.1807 -0.2686 -0.3879
  161SOPE   C2818019   0.765   0.341  10.001  0.9135  0.0441  0.1884
  161SOPE   H8R18020   0.875   0.332   9.990  1.2274  0.4063  2.5172
  161SOPE   H8S18021   0.728   0.256   9.939 -0.1698 -0.0290  0.9213
  161SOPE   C2918022   0.708   0.467   9.943  0.5491 -0.1308 -0.2187
  161SOPE   H9118023   0.702   0.549  10.016 -0.8080 -1.1891  0.8971
  161SOPE  C21018024   0.671   0.497   9.814  0.5577 -0.6103 -0.2499
  161SOPE  H10118025   0.630   0.594   9.783 -1.5659 -1.1609  0.6599
  161SOPE  C21118026   0.690   0.402   9.699  0.0051  0.2521  0.5087
  161SOPE  H11R18027   0.619   0.317   9.705 -0.3906  0.5952  0.7164
  161SOPE  H11S18028   0.789   0.351   9.692  1.1490  2.5232 -1.4974
  161SOPE  C21218029   0.662   0.469   9.564  0.6986  0.6556  0.4265
  161SOPE  H12R18030   0.730   0.555   9.545  0.6084  0.9496  1.3592
  161SOPE  H12S18031   0.557   0.507   9.568  0.3359 -0.3654  0.8786
  161SOPE  C21318032   0.674   0.375   9.442 -0.2015  0.5810 -0.0301
  161SOPE  H13R18033   0.607   0.287   9.453 -1.7930  1.7176 -0.2720
  161SOPE  H13S18034   0.777   0.335   9.434  0.5902  2.1463  1.7199
  161SOPE  C21418035   0.637   0.440   9.310  0.0306 -0.3293  0.6609
  161SOPE  H14R18036   0.703   0.529   9.302  0.7925 -0.9666 -0.4138
  161SOPE  H14S18037   0.537   0.488   9.304  1.1943  2.3594  1.1264
  161SOPE  C21518038   0.665   0.352   9.183 -0.1135  0.3015 -0.3557
  161SOPE  H15R18039   0.580   0.281   9.184 -0.0898  0.2592  1.7354
  161SOPE  H15S18040   0.755   0.293   9.212 -0.0469 -0.2053 -1.5075
  161SOPE  C21618041   0.696   0.423   9.055  0.1675 -0.1314  0.0177
  161SOPE  H16R18042   0.605   0.483   9.031  0.6594  1.0276  0.9231
  161SOPE  H16S18043   0.714   0.347   8.977  3.9967  0.5641  0.0297
  161SOPE  C21718044   0.826   0.502   9.079  0.4807 -0.2034  0.2421
  161SOPE  H17R18045   0.907   0.453   9.139  1.7884  0.2243 -1.1155
  161SOPE  H17S18046   0.790   0.599   9.119  1.1953 -0.7108  2.2307
  161SOPE  C21818047   0.885   0.539   8.948 -0.0314 -0.0027  0.5918
  161SOPE  H18R18048   0.805   0.599   8.899 -1.8805 -3.6231 -1.2545
  161SOPE  H18S18049   0.884   0.449   8.883  0.7430  1.4990 -1.6419
  161SOPE  H18T18050   0.981   0.595   8.950  0.4676 -0.7709 -0.8309
  161SOPE   C3318051   0.356   0.694  10.085  0.5952  0.1136 -0.1952
  161SOPE   H3X18052   0.399   0.697   9.982 -0.6501  0.9311 -0.7178
  161SOPE   H3Y18053   0.255   0.740  10.074 -0.1669 -0.4937  3.1857
  161SOPE   C3418054   0.348   0.547  10.128 -0.7897  0.5839 -0.0193
  161SOPE   H4X18055   0.343   0.542  10.239  1.4383 -2.7967  0.0618
  161SOPE   H4Y18056   0.446   0.500  10.107 -1.2280 -1.0722  1.3933
  161SOPE   C3518057   0.229   0.471  10.076 -0.2439 -0.2611 -0.0019
  161SOPE   H5X18058   0.139   0.536  10.076  1.5388  2.3874  1.0394
  161SOPE   H5Y18059   0.211   0.384  10.144 -0.2907 -1.1505 -1.1331
  161SOPE   C3618060   0.248   0.417   9.933  0.1720 -1.2133 -0.7017
  161SOPE   H6X18061   0.193   0.320   9.931 -0.3324 -0.9254 -0.8855
  161SOPE   H6Y18062   0.356   0.402   9.912  1.5442  3.8993  1.1544
  161SOPE   C3718063   0.201   0.514   9.827  0.4325 -0.4490  0.0025
  161SOPE   H7X18064   0.260   0.608   9.827 -0.0812 -0.1235 -0.7497
  161SOPE   H7Y18065   0.100   0.546   9.861  0.5460  0.4380 -0.4773
  161SOPE   C3818066   0.198   0.447   9.696 -0.2023  0.1238  0.4855
  161SOPE   H8X18067   0.125   0.363   9.700 -2.1565  1.6732 -0.3344
  161SOPE   H8Y18068   0.301   0.417   9.668  0.4180  2.9333 -0.6087
  161SOPE   C3918069   0.165   0.532   9.569 -0.1556  0.7579 -0.3238
  161SOPE   H9X18070   0.187   0.641   9.579 -0.3632  0.6837  1.1008
  161SOPE   H9Y18071   0.054   0.535   9.556 -0.3789  4.0268  1.3356
  161SOPE  C31018072   0.222   0.493   9.431  0.3986 -0.1766 -0.1478
  161SOPE  H10X18073   0.175   0.393   9.415 -0.7817  0.3234  0.1164
  161SOPE  H10Y18074   0.331   0.470   9.437  0.4352  0.0518  0.0536
  161SOPE  C31118075   0.205   0.589   9.324  0.5453  0.3605 -0.2080
  161SOPE  H11X18076   0.261   0.684   9.340 -1.0089  1.0301  1.5942
  161SOPE  H11Y18077   0.097   0.611   9.316  0.3398 -0.7338 -0.5253
  161SOPE  C31218078   0.249   0.505   9.197  0.4523 -0.1830  0.6151
  161SOPE  H12X18079   0.175   0.423   9.185  0.7574 -0.4597  0.6357
  161SOPE  H12Y18080   0.350   0.462   9.210  0.3300 -0.0889  2.0006
  161SOPE  C31318081   0.252   0.613   9.081  0.6425 -0.5544  0.1893
  161SOPE  H13X18082   0.332   0.688   9.102 -0.4225  1.3245 -1.9790
  161SOPE  H13Y18083   0.157   0.669   9.063  1.0218 -0.1518 -0.6217
  161SOPE  C31418084   0.282   0.532   8.953  0.1301  0.3394 -0.3058
  161SOPE  H14X18085   0.194   0.465   8.942 -2.1572  2.5586  2.6810
  161SOPE  H14Y18086   0.372   0.471   8.976  1.3576  2.0813 -0.2447
  161SOPE  C31518087   0.301   0.617   8.829 -0.6013 -0.1165  0.1776
  161SOPE  H15X18088   0.221   0.693   8.816 -1.1401 -0.6577  0.2887
  161SOPE  H15Y18089   0.268   0.554   8.744 -0.0822 -1.1567  0.7238
  161SOPE  C31618090   0.443   0.671   8.810 -0.1923  0.1153 -0.4993
  161SOPE  H16X18091   0.510   0.607   8.872 -0.3078  1.5620  1.2144
  161SOPE  H16Y18092   0.459   0.771   8.857  4.1275 -0.4918 -0.1880
  161SOPE  C31718093   0.485   0.675   8.661 -0.7958 -0.5612 -0.2956
  161SOPE  H17X18094   0.419   0.750   8.612  1.5395  0.4299 -2.1140
  161SOPE  H17Y18095   0.458   0.578   8.613  1.2717 -0.1640 -2.4032
  161SOPE  C31818096   0.635   0.708   8.630 -0.2100  0.5682 -0.1823
  161SOPE  H18X18097   0.696   0.618   8.654 -0.2482  0.2184 -1.3073
  161SOPE  H18Y18098   0.663   0.799   8.687 -0.8051  0.2402  0.6472
  161SOPE  H18Z18099   0.654   0.727   8.522 -0.5862 -1.4945 -0.6444
  162SOPE     N18100   1.062   1.547  10.990 -0.2390 -0.4385 -0.0892
  162SOPE   HN118101   0.961   1.522  10.988 -0.4079  0.2111 -0.1788
  162SOPE   HN218102   1.109   1.465  10.947 -1.6175 -1.8311  0.9577
  162SOPE   HN318103   1.092   1.571  11.086  1.5258  3.3062 -1.3660
  162SOPE   C1218104   1.083   1.668  10.910 -0.1199 -0.2769  0.1665
  162SOPE  H12A18105   1.189   1.684  10.883 -0.6288  1.0307 -1.1992
  162SOPE  H12B18106   1.047   1.750  10.976  2.7418 -0.6748  2.4107
  162SOPE   C1118107   0.995   1.669  10.778 -0.1741 -0.0981 -0.1190
  162SOPE  H11A18108   1.026   1.589  10.707  2.1531  1.4923 -0.9985
  162SOPE  H11B18109   1.016   1.767  10.730 -1.6628 -0.2053 -1.0821
  162SOPE     P18110   0.766   1.548  10.835 -0.0382 -0.1099  0.1012
  162SOPE   O1318111   0.626   1.591  10.822 -0.1659  0.3116 -0.0345
  162SOPE   O1418112   0.803   1.482  10.960 -0.1838  0.1063 -0.0175
  162SOPE   O1218113   0.857   1.670  10.811  0.0467  0.0453 -0.1192
  162SOPE   O1118114   0.814   1.441  10.724  0.1468  0.4521 -0.4888
  162SOPE    C118115   0.716   1.387  10.635 -0.4058 -0.2398  0.1651
  162SOPE    HA18116   0.656   1.473  10.597 -1.2920  0.3251  2.6393
  162SOPE    HB18117   0.650   1.310  10.680  2.6021 -3.1052  0.0263
  162SOPE    C218118   0.801   1.302  10.533  0.3164 -0.3522  0.2510
  162SOPE    HS18119   0.854   1.231  10.600 -1.9073 -0.6141  1.8699
  162SOPE   O2118120   0.887   1.398  10.464 -0.2670 -0.0466 -0.3164
  162SOPE   C2118121   1.004   1.339  10.442  0.6426 -0.4112 -0.2553
  162SOPE   O2218122   1.045   1.231  10.481  0.4031 -0.1272  0.1287
  162SOPE   C2218123   1.091   1.431  10.356 -0.0949 -0.0042 -0.2738
  162SOPE   H2R18124   1.134   1.494  10.437  1.2102  0.6374 -1.3990
  162SOPE   H2S18125   1.021   1.498  10.302  0.9384  1.0807 -0.3069
  162SOPE    C318126   0.701   1.235  10.436  0.4797 -0.3715 -0.2034
  162SOPE    HX18127   0.634   1.312  10.392 -2.7544 -1.7147  1.9896
  162SOPE    HY18128   0.636   1.169  10.495  1.1701 -1.5247 -0.6955
  162SOPE   O3118129   0.778   1.163  10.338  0.7654  0.3640 -0.5478
  162SOPE   C3118130   0.706   1.055  10.295 -0.1766 -0.5653 -0.3615
  162SOPE   O3218131   0.586   1.042  10.312  0.5045  0.0147 -1.1005
  162SOPE   C3218132   0.792   0.950  10.212  0.3497  0.6282  0.0160
  162SOPE   H2X18133   0.726   0.862  10.195 -0.2898  0.8593  1.2102
  162SOPE   H2Y18134   0.869   0.920  10.285  0.4893  1.2247  0.1192
  162SOPE   C2318135   1.202   1.369  10.278  0.0018  0.3471 -1.0950
  162SOPE   H3R18136   1.259   1.308  10.351 -2.6735  0.9733  1.7312
  162SOPE   H3S18137   1.264   1.454  10.241 -0.1207 -0.0321 -2.2168
  162SOPE   C2418138   1.156   1.284  10.163 -1.1281 -0.3689  0.4152
  162SOPE   H4R18139   1.090   1.204  10.205  1.2451 -2.7766 -0.1216
  162SOPE   H4S18140   1.101   1.343  10.087  1.8469  0.2620 -1.4106
  162SOPE   C2518141   1.274   1.232  10.077  0.0849  0.3699  0.0868
  162SOPE   H5R18142   1.323   1.310  10.014  1.2402 -0.1377  0.3222
  162SOPE   H5S18143   1.347   1.188  10.149 -0.3461 -1.5108 -0.5664
  162SOPE   C2618144   1.243   1.112   9.980 -0.5766 -0.0391  0.2387
  162SOPE   H6R18145   1.332   1.051   9.953 -1.4757 -0.4523 -2.1014
  162SOPE   H6S18146   1.180   1.041  10.038 -0.8221 -0.9598 -1.0958
  162SOPE   C2718147   1.183   1.146   9.841 -0.8357  0.0741  0.2524
  162SOPE   H7R18148   1.094   1.207   9.869 -1.2735 -0.6103  0.3749
  162SOPE   H7S18149   1.260   1.203   9.786  2.8137 -3.6360  1.0216
  162SOPE   C2818150   1.131   1.024   9.763 -0.0736 -0.7368  0.3648
  162SOPE   H8R18151   1.220   0.979   9.713 -0.4424 -0.3574 -0.6487
  162SOPE   H8S18152   1.097   0.935   9.821 -1.7403 -0.2335  0.1893
  162SOPE   C2918153   1.023   1.054   9.660 -0.2243 -0.0722 -0.0740
  162SOPE   H9118154   0.924   1.010   9.679 -0.5308 -0.0019 -1.4152
  162SOPE  C21018155   1.046   1.138   9.556 -1.0853  0.2057 -0.0384
  162SOPE  H10118156   0.964   1.158   9.485  1.0915  1.2666 -2.4269
  162SOPE  C21118157   1.167   1.221   9.517  0.7863  0.6475  0.2153
  162SOPE  H11R18158   1.249   1.198   9.589  0.3708 -0.2594  0.4105
  162SOPE  H11S18159   1.131   1.326   9.517 -2.8489 -0.4482  1.4410
  162SOPE  C21218160   1.226   1.181   9.382 -0.3170 -0.2230  1.0926
  162SOPE  H12R18161   1.261   1.076   9.373  1.0981  0.3671 -1.3038
  162SOPE  H12S18162   1.321   1.237   9.371 -0.2904  0.0012  2.2970
  162SOPE  C21318163   1.138   1.218   9.257 -0.3342  0.0123 -0.0394
  162SOPE  H13R18164   1.100   1.321   9.271 -1.9015 -0.6200  0.7238
  162SOPE  H13S18165   1.049   1.151   9.267  0.6325 -1.0026  2.6768
  162SOPE  C21418166   1.208   1.200   9.126 -0.8203  0.6832  0.4152
  162SOPE  H14R18167   1.196   1.092   9.105  1.5902  0.4131  0.1794
  162SOPE  H14S18168   1.316   1.225   9.116 -0.9688  0.8857 -0.8249
  162SOPE  C21518169   1.148   1.287   9.022  0.9186 -0.7079  0.1508
  162SOPE  H15R18170   1.167   1.392   9.054  0.0323 -0.2963 -0.6255
  162SOPE  H15S18171   1.039   1.265   9.020  1.0673 -1.8946  2.2032
  162SOPE  C21618172   1.186   1.249   8.882 -0.4561  0.4630  0.4375
  162SOPE  H16R18173   1.180   1.138   8.885  1.3212  0.2586 -1.3922
  162SOPE  H16S18174   1.289   1.286   8.865 -0.4961  0.4459  0.1455
  162SOPE  C21718175   1.078   1.290   8.780 -0.5028 -0.2330 -0.2663
  162SOPE  H17R18176   0.979   1.260   8.820  0.1840 -1.8075  0.3272
  162SOPE  H17S18177   1.094   1.224   8.693 -2.0721  0.1417 -0.8716
  162SOPE  C21818178   1.090   1.441   8.740 -1.0057  0.0032 -0.1221
  162SOPE  H18R18179   1.058   1.508   8.822  1.5457 -0.4403  1.3527
  162SOPE  H18S18180   1.029   1.458   8.649 -0.9493  0.5019 -0.0705
  162SOPE  H18T18181   1.196   1.463   8.716  0.4038 -0.1140  4.8429
  162SOPE   C3318182   0.869   1.027  10.102 -0.0332 -0.2794  0.5462
  162SOPE   H3X18183   0.937   0.953  10.057 -0.6772 -1.3213  1.2430
  162SOPE   H3Y18184   0.931   1.110  10.142 -0.5320 -0.3206  1.4305
  162SOPE   C3418185   0.777   1.088   9.996 -0.5134 -0.4787  0.4434
  162SOPE   H4X18186   0.836   1.155   9.930 -0.0059 -0.5358  0.8346
  162SOPE   H4Y18187   0.697   1.155  10.036  0.0413  1.1906 -1.1369
  162SOPE   C3518188   0.728   0.980   9.897 -0.3533 -0.6056  0.2571
  162SOPE   H5X18189   0.691   0.897   9.960 -1.2799  1.0150  1.9493
  162SOPE   H5Y18190   0.819   0.935   9.851 -1.0488 -2.4518  0.6171
  162SOPE   C3618191   0.635   1.023   9.785  0.0610  0.8124  0.8001
  162SOPE   H6X18192   0.683   1.111   9.738  0.8471 -0.1532 -0.2770
  162SOPE   H6Y18193   0.543   1.066   9.831 -1.3171 -1.7702  0.6484
  162SOPE   C3718194   0.595   0.904   9.689  0.0186 -0.0158 -0.4226
  162SOPE   H7X18195   0.485   0.918   9.681  0.2900  1.9625 -1.2553
  162SOPE   H7Y18196   0.616   0.808   9.742 -1.0290  0.7621  1.5083
  162SOPE   C3818197   0.650   0.917   9.549 -0.8978  0.0516  0.3840
  162SOPE   H8X18198   0.759   0.896   9.546 -0.7249  0.7564  1.2068
  162SOPE   H8Y18199   0.622   1.018   9.514 -1.4932  0.3262  1.5850
  162SOPE   C3918200   0.589   0.802   9.463  0.0029 -0.0648 -0.5780
  162SOPE   H9X18201   0.495   0.769   9.513  1.2612 -0.2065  1.8862
  162SOPE   H9Y18202   0.657   0.714   9.467 -1.7793 -1.6328 -2.5538
  162SOPE  C31018203   0.566   0.832   9.314  0.1503 -0.0383  0.1456
  162SOPE  H10X18204   0.488   0.909   9.297 -0.3028 -1.0145 -2.5704
  162SOPE  H10Y18205   0.523   0.741   9.267 -1.5547  1.6592 -1.7583
  162SOPE  C31118206   0.693   0.866   9.232  0.3054 -0.4478  0.1347
  162SOPE  H11X18207   0.771   0.788   9.245  0.6824  0.1264  1.5968
  162SOPE  H11Y18208   0.723   0.963   9.277 -2.1078  0.1696  0.5228
  162SOPE  C31218209   0.670   0.907   9.089  0.6168  0.2772  0.4903
  162SOPE  H12X18210   0.590   0.984   9.095 -0.9797 -1.3769  1.2249
  162SOPE  H12Y18211   0.642   0.825   9.020  0.8813  0.4607  0.1615
  162SOPE  C31318212   0.789   0.981   9.030 -0.1423 -0.3214 -0.0524
  162SOPE  H13X18213   0.873   0.910   9.018  0.9786  0.8759  0.4532
  162SOPE  H13Y18214   0.828   1.067   9.089 -0.8955 -0.2690  0.3781
  162SOPE  C31418215   0.759   1.045   8.892  0.1366  0.3886 -0.9346
  162SOPE  H14X18216   0.738   0.963   8.821 -0.8017  0.9124 -1.2868
  162SOPE  H14Y18217   0.854   1.096   8.863  2.6173 -2.8145  0.8556
  162SOPE  C31518218   0.634   1.137   8.882  0.0799 -0.4155 -0.3442
  162SOPE  H15X18219   0.644   1.219   8.957 -1.8416  1.0770 -1.6099
  162SOPE  H15Y18220   0.540   1.080   8.899  0.3178 -0.6282  0.2932
  162SOPE  C31618221   0.605   1.200   8.747  0.0212 -0.6964 -0.8849
  162SOPE  H16X18222   0.580   1.122   8.672 -2.1583  0.6901 -1.6953
  162SOPE  H16Y18223   0.701   1.248   8.717  1.6962 -3.3565 -0.1081
  162SOPE  C31718224   0.500   1.307   8.749 -0.6894  0.0697  0.4611
  162SOPE  H17X18225   0.526   1.368   8.661  1.4411 -0.3321  0.7563
  162SOPE  H17Y18226   0.502   1.376   8.836 -4.6768  1.0962 -0.0721
  162SOPE  C31818227   0.361   1.252   8.751  0.1696  0.1979  0.1429
  162SOPE  H18X18228   0.366   1.146   8.784  3.0173  0.4872  0.9456
  162SOPE  H18Y18229   0.318   1.258   8.649  3.2937  0.3278 -1.3117
  162SOPE  H18Z18230   0.295   1.304   8.824 -2.2426 -2.0684 -0.2630
  163SOPE     N18231   2.363   4.534  10.856  0.2379  0.0589 -0.1134
  163SOPE   HN118232   2.405   4.590  10.933  0.2894 -0.9279  0.6032
  163SOPE   HN218233   2.279   4.575  10.812 -0.0466  0.0823  0.4433
  163SOPE   HN318234   2.341   4.446  10.907 -2.4001  0.2819 -0.7298
  163SOPE   C1218235   2.469   4.509  10.754 -0.8623  0.0345  0.2737
  163SOPE  H12A18236   2.541   4.593  10.764 -2.0313  1.0597  0.3542
  163SOPE  H12B18237   2.420   4.513  10.654 -1.0897  1.5431  0.4245
  163SOPE   C1118238   2.537   4.373  10.792 -0.2645 -0.3987  0.0247
  163SOPE  H11A18239   2.456   4.298  10.799 -0.0995 -0.4145  3.3048
  163SOPE  H11B18240   2.584   4.383  10.892 -1.6856  2.0594  0.5171
  163SOPE     P18241   2.779   4.369  10.701  0.0294 -0.1670 -0.0631
  163SOPE   O1318242   2.850   4.264  10.777  0.1121  0.3226 -0.1582
  163SOPE   O1418243   2.797   4.500  10.759  0.2440  0.1385 -0.1041
  163SOPE   O1218244   2.629   4.338  10.689  0.4480  0.2152 -0.0151
  163SOPE   O1118245   2.819   4.374  10.555 -0.1923 -0.3435 -0.0031
  163SOPE    C118246   2.732   4.454  10.466 -0.5131  0.0801  0.5678
  163SOPE    HA18247   2.709   4.552  10.513 -0.8321  0.3651 -0.1639
  163SOPE    HB18248   2.637   4.401  10.443  0.4251 -1.1375 -0.7223
  163SOPE    C218249   2.802   4.478  10.334  0.7927 -0.0019 -0.8177
  163SOPE    HS18250   2.747   4.538  10.259 -0.0604 -0.7484 -0.8009
  163SOPE   O2118251   2.822   4.347  10.276  0.0344 -0.1066  0.0512
  163SOPE   C2118252   2.713   4.292  10.225 -0.2689 -0.3194 -0.0033
  163SOPE   O2218253   2.608   4.352  10.204  0.4130  0.0071  0.4547
  163SOPE   C2218254   2.741   4.139  10.208  0.0805  0.2083 -0.2678
  163SOPE   H2R18255   2.715   4.089  10.304  1.2914  0.4405  0.2032
  163SOPE   H2S18256   2.850   4.134  10.186 -0.4553 -0.4476 -3.1717
  163SOPE    C318257   2.941   4.541  10.354  0.3226 -0.0262  0.5063
  163SOPE    HX18258   3.017   4.469  10.391  1.7850  1.6130  0.8197
  163SOPE    HY18259   2.945   4.620  10.431  0.4146  0.1478  0.3245
  163SOPE   O3118260   2.989   4.584  10.227  0.0158 -0.6121  0.6514
  163SOPE   C3118261   3.015   4.706  10.198  1.0032  0.3097 -0.3148
  163SOPE   O3218262   2.987   4.798  10.273  0.0099 -0.3960  0.1743
  163SOPE   C3218263   3.077   4.718  10.065  0.0666  0.2182 -0.0020
  163SOPE   H2X18264   2.995   4.740   9.993  2.3490  0.8287 -2.5493
  163SOPE   H2Y18265   3.119   4.622  10.030 -0.8228 -0.0791 -0.2792
  163SOPE   C2318266   2.640   4.079  10.102  0.1337 -0.2445 -0.0848
  163SOPE   H3R18267   2.541   4.112  10.141  0.7177  0.0018  1.2440
  163SOPE   H3S18268   2.655   3.969  10.092 -0.1979 -0.3204  0.2100
  163SOPE   C2418269   2.649   4.126   9.955 -0.4971 -0.4188 -0.7120
  163SOPE   H4R18270   2.636   4.236   9.949  0.5979 -0.3660 -2.9131
  163SOPE   H4S18271   2.754   4.097   9.933  1.8322  0.6388  6.3602
  163SOPE   C2518272   2.557   4.051   9.854  0.4844 -0.9552  0.7340
  163SOPE   H5R18273   2.557   3.940   9.861  0.3601 -1.3535 -3.1490
  163SOPE   H5S18274   2.452   4.086   9.864  0.0025 -1.8751 -0.7007
  163SOPE   C2618275   2.593   4.097   9.707  0.4722  0.0870 -0.1379
  163SOPE   H6R18276   2.592   4.208   9.707  4.0307  0.2398  0.4340
  163SOPE   H6S18277   2.700   4.080   9.679  0.3468 -1.7589  0.3668
  163SOPE   C2718278   2.506   4.051   9.590 -0.9976  0.1542  0.5258
  163SOPE   H7R18279   2.506   3.941   9.579  2.4576  0.3038 -2.7688
  163SOPE   H7S18280   2.403   4.076   9.624 -1.6222  0.9375 -1.7313
  163SOPE   C2818281   2.519   4.131   9.461 -0.7147 -0.0858  0.5613
  163SOPE   H8R18282   2.448   4.078   9.394 -2.9604  0.3052  2.4933
  163SOPE   H8S18283   2.479   4.232   9.482  0.6181  0.4441  0.6382
  163SOPE   C2918284   2.660   4.116   9.397  0.1168  0.7201  0.8910
  163SOPE   H9118285   2.748   4.107   9.461  1.6003 -0.6952 -1.2011
  163SOPE  C21018286   2.693   4.136   9.270 -0.3052 -0.0945 -0.7807
  163SOPE  H10118287   2.792   4.101   9.240 -0.8341  0.2417 -3.0764
  163SOPE  C21118288   2.613   4.179   9.152 -0.4348  0.1398 -0.3062
  163SOPE  H11R18289   2.653   4.273   9.109  1.3290 -0.7369 -0.6780
  163SOPE  H11S18290   2.517   4.218   9.192 -0.0879  0.5637  0.1292
  163SOPE  C21218291   2.599   4.070   9.036 -0.1426 -0.1483  0.3098
  163SOPE  H12R18292   2.552   3.972   9.062 -0.6394 -0.3667 -1.2709
  163SOPE  H12S18293   2.700   4.064   8.991 -0.8793  0.1643 -1.4730
  163SOPE  C21318294   2.516   4.128   8.922 -0.0118 -0.1145 -0.2757
  163SOPE  H13R18295   2.529   4.070   8.828  2.5393 -1.7937  1.0068
  163SOPE  H13S18296   2.554   4.232   8.927  0.8366 -0.3505 -1.4396
  163SOPE  C21418297   2.367   4.142   8.956  0.0872  0.4454 -0.0809
  163SOPE  H14R18298   2.344   4.211   9.040 -0.5793  1.6549 -1.2173
  163SOPE  H14S18299   2.324   4.044   8.986  0.4174  0.3747  0.1716
  163SOPE  C21518300   2.285   4.197   8.840 -0.3400  0.2659  1.0390
  163SOPE  H15R18301   2.309   4.303   8.818  2.1580 -0.4732 -0.1570
  163SOPE  H15S18302   2.179   4.212   8.869 -0.2186  4.3216  0.0427
  163SOPE  C21618303   2.299   4.106   8.713  0.5824  0.2285 -0.2880
  163SOPE  H16R18304   2.327   4.002   8.739 -3.2403 -0.9921 -0.3327
  163SOPE  H16S18305   2.367   4.164   8.647 -0.6379  3.2548  0.9181
  163SOPE  C21718306   2.162   4.081   8.653 -0.3782  0.5818  0.1236
  163SOPE  H17R18307   2.101   4.026   8.728 -0.2888  1.3225  0.7553
  163SOPE  H17S18308   2.185   4.012   8.569  1.3791  2.9376 -1.4470
  163SOPE  C21818309   2.081   4.206   8.610  0.4757  0.1072  0.6001
  163SOPE  H18R18310   2.070   4.301   8.666 -1.5908  0.5413 -0.4298
  163SOPE  H18S18311   1.988   4.176   8.558 -0.0909  2.5897  0.0768
  163SOPE  H18T18312   2.144   4.245   8.526  1.2770  0.5853  1.4040
  163SOPE   C3318313   3.199   4.814  10.070 -0.6587  0.3576 -0.6752
  163SOPE   H3X18314   3.271   4.800  10.154 -0.2383  0.3574 -1.0345
  163SOPE   H3Y18315   3.161   4.918  10.085  2.1420  1.6342 -1.6998
  163SOPE   C3418316   3.272   4.815   9.938 -0.2804 -0.8794 -0.4262
  163SOPE   H4X18317   3.288   4.709   9.908  0.5159 -0.3943 -1.7871
  163SOPE   H4Y18318   3.369   4.867   9.952 -0.3498 -0.6814 -0.6721
  163SOPE   C3518319   3.198   4.900   9.834 -0.6906 -0.0481  0.0668
  163SOPE   H5X18320   3.191   5.009   9.854 -2.7874  0.5461 -3.1051
  163SOPE   H5Y18321   3.093   4.863   9.829 -0.7375  0.1769 -0.8606
  163SOPE   C3618322   3.244   4.883   9.690  0.0316 -0.0629 -0.3739
  163SOPE   H6X18323   3.340   4.939   9.678  0.5443 -1.2658 -2.5318
  163SOPE   H6Y18324   3.167   4.931   9.627 -0.4484  1.7607  1.5092
  163SOPE   C3718325   3.252   4.743   9.652  0.4217 -0.1139  0.3108
  163SOPE   H7X18326   3.159   4.685   9.671  0.5935 -0.4105  0.2577
  163SOPE   H7Y18327   3.327   4.682   9.705 -1.0240 -1.4264  0.9340
  163SOPE   C3818328   3.277   4.715   9.499 -0.6460 -0.0635  0.4767
  163SOPE   H8X18329   3.264   4.609   9.470  2.9428 -0.8660  1.2457
  163SOPE   H8Y18330   3.384   4.744   9.485 -1.4138  2.5942 -0.4169
  163SOPE   C3918331   3.176   4.775   9.406  0.4619  0.9534  0.0327
  163SOPE   H9X18332   3.182   4.886   9.404 -1.4846  1.0940  0.6450
  163SOPE   H9Y18333   3.072   4.756   9.439  0.9269  0.4621  1.2652
  163SOPE  C31018334   3.177   4.712   9.267  0.3251 -0.9431  0.4442
  163SOPE  H10X18335   3.084   4.745   9.215  0.4771 -0.0057  0.7451
  163SOPE  H10Y18336   3.176   4.601   9.261  1.5723 -0.9611  0.3667
  163SOPE  C31118337   3.279   4.760   9.164  0.2100 -0.6475  0.6140
  163SOPE  H11X18338   3.270   4.696   9.073  1.3040 -1.0658  0.7778
  163SOPE  H11Y18339   3.381   4.740   9.204  1.2434  1.1754 -0.9693
  163SOPE  C31218340   3.269   4.904   9.111  0.2219 -0.1271 -0.2835
  163SOPE  H12X18341   3.368   4.950   9.091 -0.7271  1.3076 -2.0016
  163SOPE  H12Y18342   3.236   4.967   9.197 -0.3797 -0.9772  0.1158
  163SOPE  C31318343   3.202   4.919   8.973 -0.0281 -0.3117  0.5148
  163SOPE  H13X18344   3.264   4.862   8.901 -0.6130  0.6674 -0.8172
  163SOPE  H13Y18345   3.223   5.022   8.937 -0.6164 -1.1544 -2.5602
  163SOPE  C31418346   3.059   4.868   8.964  0.5914  0.0537  0.4104
  163SOPE  H14X18347   2.989   4.926   9.029 -2.3500  0.4779 -2.7836
  163SOPE  H14Y18348   3.058   4.762   8.996  0.6803 -0.2299 -0.4847
  163SOPE  C31518349   3.013   4.851   8.814  0.4582  0.2049 -0.9977
  163SOPE  H15X18350   2.960   4.754   8.805  0.1230  0.2966 -0.1289
  163SOPE  H15Y18351   3.102   4.847   8.748  1.2093  0.4634 -0.0256
  163SOPE  C31618352   2.927   4.967   8.772  0.5469  0.6871 -0.9157
  163SOPE  H16X18353   2.960   5.065   8.812  0.4068 -0.3437  1.8955
  163SOPE  H16Y18354   2.833   4.948   8.827  0.8410  2.2978  0.2210
  163SOPE  C31718355   2.909   4.974   8.625 -0.6679  0.1653  0.3920
  163SOPE  H17X18356   2.868   4.891   8.564  0.6811 -1.2326  1.3157
  163SOPE  H17Y18357   3.010   4.999   8.586 -0.6549 -2.6028 -1.6120
  163SOPE  C31818358   2.821   5.101   8.600 -0.3308 -0.1405  0.0432
  163SOPE  H18X18359   2.871   5.195   8.633  0.0990  0.8597 -3.0787
  163SOPE  H18Y18360   2.719   5.082   8.638 -0.0134 -2.1060  0.0232
  163SOPE  H18Z18361   2.815   5.108   8.489  0.0945  0.7842  0.0698
  164SOPE     N18362   2.837   1.359  10.457  0.4156 -0.2041 -0.2554
  164SOPE   HN118363   2.806   1.352  10.358 -0.3564  0.7191 -0.0902
  164SOPE   HN218364   2.854   1.460  10.471 -0.5466  0.6277 -3.9752
  164SOPE   HN318365   2.921   1.310  10.493  0.8139  0.8304  0.2453
  164SOPE   C1218366   2.721   1.330  10.554 -0.6959 -0.6402  0.3632
  164SOPE  H12A18367   2.692   1.225  10.532 -1.5257  0.3129 -4.0513
  164SOPE  H12B18368   2.642   1.399  10.520  0.3130  0.1889 -0.3542
  164SOPE   C1118369   2.769   1.370  10.699  0.1973  0.7696  0.1567
  164SOPE  H11A18370   2.674   1.388  10.755 -0.1592  2.9708 -1.0358
  164SOPE  H11B18371   2.820   1.469  10.700  0.7359  0.5485 -1.5606
  164SOPE     P18372   3.007   1.266  10.751 -0.7624 -0.0599  0.1591
  164SOPE   O1318373   3.060   1.136  10.801  0.5287 -0.7808  0.9749
  164SOPE   O1418374   3.060   1.380  10.824  0.0684  0.1983  0.0240
  164SOPE   O1218375   2.854   1.268  10.756  0.1047 -0.2693  0.0092
  164SOPE   O1118376   3.033   1.287  10.598 -0.4657  0.4079 -0.2832
  164SOPE    C118377   3.163   1.309  10.535  0.8935 -0.1520  0.1831
  164SOPE    HA18378   3.165   1.234  10.454 -1.2451 -1.0630  0.8853
  164SOPE    HB18379   3.247   1.292  10.606  0.8566 -2.7736 -0.3035
  164SOPE    C218380   3.186   1.454  10.473 -0.3384  0.2872 -0.8576
  164SOPE    HS18381   3.160   1.520  10.558  2.7810  3.0033 -1.8438
  164SOPE   O2118382   3.101   1.474  10.356 -0.1849  0.5029  0.0918
  164SOPE   C2118383   3.111   1.583  10.283  0.4710 -0.0394  0.7172
  164SOPE   O2218384   3.155   1.691  10.315 -0.2305 -0.7554 -0.8431
  164SOPE   C2218385   3.057   1.553  10.142 -0.1009  0.8025 -0.8803
  164SOPE   H2R18386   2.964   1.612  10.129  0.6361  2.6023  1.3742
  164SOPE   H2S18387   3.027   1.446  10.135  0.7204  0.6041 -1.4995
  164SOPE    C318388   3.338   1.473  10.441  0.0040  0.6578 -0.4580
  164SOPE    HX18389   3.406   1.468  10.529 -1.7969  1.2009  1.0367
  164SOPE    HY18390   3.356   1.576  10.404 -0.7579 -0.0609 -2.9896
  164SOPE   O3118391   3.380   1.372  10.344  0.2746 -0.1283  0.2508
  164SOPE   C3118392   3.456   1.408  10.244  0.1886  0.3529 -0.4912
  164SOPE   O3218393   3.491   1.522  10.219 -0.0734  0.1241  0.0628
  164SOPE   C3218394   3.498   1.286  10.163  0.5062  0.2989 -0.1255
  164SOPE   H2X18395   3.413   1.217  10.151  0.8633 -0.4133  1.2517
  164SOPE   H2Y18396   3.568   1.226  10.225  0.1047 -1.5309 -1.3689
  164SOPE   C2318397   3.164   1.567  10.026 -0.1273 -0.2106 -0.5874
  164SOPE   H3R18398   3.262   1.593  10.072 -0.0747  0.1707 -0.9187
  164SOPE   H3S18399   3.136   1.659   9.971 -1.4698  1.6089  2.8258
  164SOPE   C2418400   3.186   1.455   9.915 -0.3429  0.0953 -0.6848
  164SOPE   H4R18401   3.226   1.363   9.963 -0.8330  0.0765 -0.3086
  164SOPE   H4S18402   3.086   1.422   9.881 -0.1939 -0.2589 -0.7762
  164SOPE   C2518403   3.280   1.503   9.798  1.0711 -0.5859 -0.7908
  164SOPE   H5R18404   3.237   1.596   9.755 -1.5488 -1.8773 -1.2095
  164SOPE   H5S18405   3.376   1.526   9.850 -0.1481  0.8363  0.9811
  164SOPE   C2618406   3.319   1.405   9.692 -0.4023  0.4451  0.9189
  164SOPE   H6R18407   3.359   1.319   9.749  2.8347  2.6326  2.2409
  164SOPE   H6S18408   3.235   1.370   9.628  2.0161  0.5127 -2.5481
  164SOPE   C2718409   3.413   1.464   9.579  0.1331 -0.0874  0.6266
  164SOPE   H7R18410   3.501   1.511   9.626 -0.2060  2.2874 -0.9554
  164SOPE   H7S18411   3.443   1.368   9.531  0.1951 -0.6046  1.6747
  164SOPE   C2818412   3.349   1.567   9.486  0.5109  0.9383 -0.4942
  164SOPE   H8R18413   3.246   1.530   9.469  1.4545 -1.8274 -0.6450
  164SOPE   H8S18414   3.344   1.662   9.543  0.7246  0.8995 -0.4096
  164SOPE   C2918415   3.432   1.585   9.362  0.0631 -0.1464  0.1251
  164SOPE   H9118416   3.539   1.606   9.376  0.1198 -0.1179 -0.3551
  164SOPE  C21018417   3.392   1.570   9.234 -0.1834  0.2601 -0.1431
  164SOPE  H10118418   3.462   1.605   9.156  0.1242  0.8397  0.3798
  164SOPE  C21118419   3.259   1.523   9.176 -0.0678 -0.2198  0.4462
  164SOPE  H11R18420   3.222   1.612   9.120  1.6791  2.7941  3.6835
  164SOPE  H11S18421   3.189   1.491   9.256  1.8781 -0.0717  2.3042
  164SOPE  C21218422   3.299   1.403   9.076  0.6381 -0.1098 -0.4524
  164SOPE  H12R18423   3.203   1.353   9.052  0.8889 -0.4253 -0.8038
  164SOPE  H12S18424   3.371   1.327   9.112  1.3261 -0.8383 -3.1461
  164SOPE  C21318425   3.362   1.434   8.942  0.0845 -0.3800 -0.1052
  164SOPE  H13R18426   3.471   1.457   8.941 -0.2071  1.5286 -3.7351
  164SOPE  H13S18427   3.336   1.528   8.889  0.6356 -1.6490 -2.8189
  164SOPE  C21418428   3.342   1.319   8.837 -1.0033 -0.6208 -0.7786
  164SOPE  H14R18429   3.234   1.295   8.833 -1.0773 -1.0358  2.0809
  164SOPE  H14S18430   3.395   1.225   8.864 -0.9522 -0.1671  0.7811
  164SOPE  C21518431   3.387   1.359   8.692  0.1227  0.1941 -0.7843
  164SOPE  H15R18432   3.498   1.365   8.695  0.1104  0.1073  0.8911
  164SOPE  H15S18433   3.347   1.461   8.676 -3.6786 -0.7542  1.3365
  164SOPE  C21618434   3.347   1.258   8.588  0.2090 -1.0778  0.1369
  164SOPE  H16R18435   3.237   1.255   8.572  0.0011  2.2648  0.2873
  164SOPE  H16S18436   3.370   1.159   8.633 -0.8344 -2.5538 -2.3679
  164SOPE  C21718437   3.416   1.281   8.457  0.5478  0.5013 -0.2916
  164SOPE  H17R18438   3.374   1.209   8.385 -2.5595  0.7791  1.0946
  164SOPE  H17S18439   3.525   1.263   8.468 -0.1019 -2.6529  2.8678
  164SOPE  C21818440   3.385   1.420   8.404 -0.0605 -0.4978  0.1916
  164SOPE  H18R18441   3.459   1.501   8.422  1.2054 -0.6431 -3.5367
  164SOPE  H18S18442   3.282   1.444   8.438 -0.4776 -0.5124 -1.0251
  164SOPE  H18T18443   3.377   1.410   8.294 -0.2753 -0.6769  0.2232
  164SOPE   C3318444   3.565   1.303  10.026  0.2147  0.3236  0.2525
  164SOPE   H3X18445   3.656   1.366  10.040  1.3024 -1.2373  0.3902
  164SOPE   H3Y18446   3.503   1.360   9.954  0.2779 -1.6395 -1.4394
  164SOPE   C3418447   3.608   1.171   9.962  0.6055 -0.3813 -1.1325
  164SOPE   H4X18448   3.515   1.114   9.942  1.3199 -0.9814 -2.9404
  164SOPE   H4Y18449   3.668   1.101  10.023 -0.1471 -0.9760 -1.0480
  164SOPE   C3518450   3.677   1.190   9.826 -0.3542  0.5353  0.1163
  164SOPE   H5X18451   3.783   1.181   9.857 -0.9325 -1.5540  1.7179
  164SOPE   H5Y18452   3.671   1.297   9.796 -0.0117  0.2699 -0.9438
  164SOPE   C3618453   3.627   1.098   9.716  0.1264 -0.0393  0.0038
  164SOPE   H6X18454   3.516   1.097   9.708  0.2056  1.4483 -1.7820
  164SOPE   H6Y18455   3.652   0.990   9.730  0.8492 -0.0251 -1.1055
  164SOPE   C3718456   3.673   1.143   9.577 -0.3093  0.0291 -0.1340
  164SOPE   H7X18457   3.778   1.142   9.541  0.5433  1.8395  2.0164
  164SOPE   H7Y18458   3.650   1.252   9.577  0.7805  0.2910 -1.6693
  164SOPE   C3818459   3.602   1.067   9.470 -0.1657 -0.2055 -0.6687
  164SOPE   H8X18460   3.493   1.063   9.495 -0.2829  2.3510 -0.4831
  164SOPE   H8Y18461   3.634   0.960   9.471  0.4234 -0.0290 -0.3633
  164SOPE   C3918462   3.611   1.116   9.325 -0.0920  0.6757  0.7649
  164SOPE   H9X18463   3.718   1.127   9.298 -0.4593  0.6030 -0.8143
  164SOPE   H9Y18464   3.552   1.211   9.331  0.2780  0.9565  0.0757
  164SOPE  C31018465   3.542   1.014   9.229  0.2351 -0.0259 -0.3115
  164SOPE  H10X18466   3.440   0.983   9.259 -0.0129  0.4425 -0.6518
  164SOPE  H10Y18467   3.613   0.929   9.231  0.8432  0.3376 -2.9860
  164SOPE  C31118468   3.546   1.058   9.086 -0.1482  0.9002  0.8999
  164SOPE  H11X18469   3.645   1.097   9.054  0.3869  1.2044  2.8566
  164SOPE  H11Y18470   3.470   1.131   9.050 -0.6048 -0.9745 -2.3942
  164SOPE  C31218471   3.525   0.931   8.993  0.4585  0.2540 -0.3215
  164SOPE  H12X18472   3.607   0.860   9.018 -1.3355 -1.6046  0.5632
  164SOPE  H12Y18473   3.519   0.961   8.886 -2.5768 -0.3448 -0.4104
  164SOPE  C31318474   3.397   0.851   9.023 -0.0457  0.6003  0.1030
  164SOPE  H13X18475   3.306   0.915   9.032  0.4556  1.4575 -0.7761
  164SOPE  H13Y18476   3.412   0.796   9.118 -1.2305  1.4472  0.8087
  164SOPE  C31418477   3.370   0.742   8.915  0.7564  0.7232 -0.2156
  164SOPE  H14X18478   3.461   0.689   8.880  0.4771  1.1520 -1.6702
  164SOPE  H14Y18479   3.335   0.790   8.820 -1.7804 -1.4183 -0.4663
  164SOPE  C31518480   3.263   0.646   8.964 -0.7991  0.1971  0.6085
  164SOPE  H15X18481   3.292   0.589   9.055  2.6807 -1.2540 -1.2320
  164SOPE  H15Y18482   3.250   0.575   8.880 -1.3320  0.6094  0.3335
  164SOPE  C31618483   3.129   0.711   8.985  0.5245  0.0188 -0.4645
  164SOPE  H16X18484   3.108   0.787   8.907 -0.3901  0.5513  0.2750
  164SOPE  H16Y18485   3.136   0.756   9.086  3.0201 -1.5509  0.1380
  164SOPE  C31718486   3.017   0.617   8.974  0.1816  0.2109  0.1764
  164SOPE  H17X18487   3.000   0.588   8.868  0.9139 -3.7452  0.9720
  164SOPE  H17Y18488   2.933   0.673   9.022 -0.1840 -1.1853  1.2383
  164SOPE  C31818489   3.037   0.491   9.055  0.3806 -0.1001  0.0813
  164SOPE  H18X18490   3.076   0.523   9.155  0.4772  2.2724 -0.6520
  164SOPE  H18Y18491   3.102   0.430   8.990  1.3643  1.0844 -0.0787
  164SOPE  H18Z18492   2.937   0.443   9.062  0.4881 -0.1471  2.1729
  165SOPE     N18493   4.186   2.788  10.956 -0.0711 -0.2740 -0.0210
  165SOPE   HN118494   4.214   2.709  11.017  1.6443  2.6792  3.3338
  165SOPE   HN218495   4.159   2.753  10.862 -0.0134  2.3921 -1.1250
  165SOPE   HN318496   4.265   2.855  10.942  2.3344 -3.3237 -2.6284
  165SOPE   C1218497   4.069   2.866  11.010 -0.0373 -0.1451 -0.0948
  165SOPE  H12A18498   4.099   2.889  11.114 -0.3860  1.3147 -0.2936
  165SOPE  H12B18499   3.973   2.811  11.006 -0.1045 -0.0998  0.8933
  165SOPE   C1118500   4.039   2.997  10.944 -0.6743  0.3737  0.4724
  165SOPE  H11A18501   4.125   3.065  10.957 -0.6258  0.3239  0.4091
  165SOPE  H11B18502   3.945   3.039  10.988 -3.6296 -2.5535 -2.4349
  165SOPE     P18503   3.915   3.058  10.715 -0.1332  0.0111 -0.0221
  165SOPE   O1318504   3.992   3.172  10.656 -0.7372  0.8206 -0.0898
  165SOPE   O1418505   3.794   3.077  10.792  0.9529  0.1982  0.7169
  165SOPE   O1218506   4.016   2.977  10.800 -0.3850 -0.2033 -0.1609
  165SOPE   O1118507   3.873   2.957  10.605  0.2540  0.1640  0.0859
  165SOPE    C118508   3.963   2.943  10.495 -0.8039 -0.0100  0.1331
  165SOPE    HA18509   4.068   2.961  10.524 -0.6070  1.2009 -1.2123
  165SOPE    HB18510   3.939   3.028  10.427  0.1778  0.9919  1.0047
  165SOPE    C218511   3.938   2.817  10.410 -0.3318  0.0298  0.2421
  165SOPE    HS18512   3.977   2.734  10.473  4.2721  2.0261  0.4692
  165SOPE   O2118513   4.020   2.845  10.294  0.1656 -0.6031  0.1501
  165SOPE   C2118514   4.056   2.735  10.241  0.0895 -0.2085  0.0663
  165SOPE   O2218515   4.051   2.625  10.291  0.1092 -0.0564  0.0740
  165SOPE   C2218516   4.108   2.767  10.107 -0.6883  0.2481 -0.4828
  165SOPE   H2R18517   4.214   2.733  10.103 -0.7017  0.2908 -1.7817
  165SOPE   H2S18518   4.102   2.877  10.091 -0.5567  0.0871 -1.7596
  165SOPE    C318519   3.785   2.798  10.369  0.1847  0.1167 -0.6727
  165SOPE    HX18520   3.757   2.899  10.332 -2.6876  0.5935  2.2974
  165SOPE    HY18521   3.729   2.781  10.463  2.4137 -3.9874  0.1516
  165SOPE   O3118522   3.759   2.689  10.277 -0.4416  0.1520 -0.0767
  165SOPE   C3118523   3.736   2.575  10.337 -0.1320  0.4867  0.1879
  165SOPE   O3218524   3.738   2.551  10.458  0.5465  0.2227  0.2508
  165SOPE   C3218525   3.694   2.469  10.235 -0.9174  0.3920  0.1602
  165SOPE   H2X18526   3.615   2.400  10.271 -0.4156 -0.5950 -0.5672
  165SOPE   H2Y18527   3.792   2.418  10.218  0.8724  3.5223  0.2766
  165SOPE   C2318528   4.043   2.693   9.989 -0.1491 -0.2586 -0.1815
  165SOPE   H3R18529   3.939   2.733   9.991  0.1401  0.5382 -0.5743
  165SOPE   H3S18530   4.046   2.584  10.009  1.3416 -0.1003  0.6813
  165SOPE   C2418531   4.108   2.732   9.852 -0.4139 -0.3571 -0.1784
  165SOPE   H4R18532   4.161   2.827   9.872 -2.1256  0.7929 -0.8221
  165SOPE   H4S18533   4.169   2.646   9.819  0.7256  1.2795 -2.5959
  165SOPE   C2518534   4.004   2.757   9.739 -0.2176  0.7164  0.0533
  165SOPE   H5R18535   3.936   2.669   9.748  0.3816  0.0881 -1.3299
  165SOPE   H5S18536   3.932   2.839   9.761 -0.0148  1.0613 -0.5452
  165SOPE   C2618537   4.062   2.778   9.599 -0.7817 -0.1126  0.6883
  165SOPE   H6R18538   4.144   2.703   9.592 -0.1287  0.6515 -0.0563
  165SOPE   H6S18539   3.987   2.755   9.520  0.3967 -0.8317 -0.2447
  165SOPE   C2718540   4.124   2.917   9.578  0.2423  1.0235  0.0270
  165SOPE   H7R18541   4.047   2.994   9.600 -0.9719 -0.1177 -0.1376
  165SOPE   H7S18542   4.207   2.922   9.652  0.4472 -2.4575  0.2003
  165SOPE   C2818543   4.174   2.942   9.433  0.3965  0.6214  0.0075
  165SOPE   H8R18544   4.242   3.029   9.434  0.9640  0.2119 -1.1283
  165SOPE   H8S18545   4.234   2.857   9.394  1.4148  0.8125  1.0985
  165SOPE   C2918546   4.059   2.964   9.341  0.6768  0.0279  0.5034
  165SOPE   H9118547   3.971   3.000   9.395  0.5078  0.5420 -0.1013
  165SOPE  C21018548   4.066   2.930   9.208  0.1916  0.1123 -0.0103
  165SOPE  H10118549   3.974   2.933   9.148 -0.7251  0.9254  1.4054
  165SOPE  C21118550   4.176   2.865   9.128 -0.2042 -0.2252 -0.6384
  165SOPE  H11R18551   4.133   2.769   9.091 -1.4631 -1.0964  2.7173
  165SOPE  H11S18552   4.264   2.848   9.194  0.8732  1.8809 -1.4399
  165SOPE  C21218553   4.237   2.948   9.014 -0.2599  0.4695  0.7040
  165SOPE  H12R18554   4.331   2.900   8.979 -0.5117  0.8600 -0.5385
  165SOPE  H12S18555   4.252   3.053   9.045  1.4551  1.0248 -1.7744
  165SOPE  C21318556   4.140   2.965   8.887 -0.1632 -0.7703  0.2081
  165SOPE  H13R18557   4.037   2.998   8.913  0.7927  2.4608  0.2884
  165SOPE  H13S18558   4.134   2.863   8.843  0.9879 -0.0438 -1.7871
  165SOPE  C21418559   4.191   3.063   8.781  0.1013  0.7159 -0.0857
  165SOPE  H14R18560   4.293   3.034   8.747 -0.5637 -1.1325 -0.6496
  165SOPE  H14S18561   4.188   3.167   8.821 -0.2003  0.9212 -0.6472
  165SOPE  C21518562   4.115   3.054   8.649 -0.1574 -0.6938  0.4228
  165SOPE  H15R18563   4.010   3.084   8.670  1.2303  3.1201  2.9514
  165SOPE  H15S18564   4.116   2.953   8.603  0.7105  0.2284 -1.7114
  165SOPE  C21618565   4.177   3.149   8.556 -0.4650  0.0950  0.5348
  165SOPE  H16R18566   4.286   3.133   8.561 -0.0765  0.9683 -2.6604
  165SOPE  H16S18567   4.163   3.258   8.573  0.3664  1.1855 -4.2584
  165SOPE  C21718568   4.135   3.126   8.404 -0.0851  0.3404 -0.3223
  165SOPE  H17R18569   4.161   3.023   8.372 -0.1210  0.1807  0.1592
  165SOPE  H17S18570   4.192   3.197   8.340 -0.4255  1.3899  0.5059
  165SOPE  C21818571   3.987   3.142   8.380 -0.3321 -0.0919 -0.6689
  165SOPE  H18R18572   3.956   3.241   8.420  1.5842  1.5460 -2.9373
  165SOPE  H18S18573   3.935   3.066   8.441  4.1765 -1.1444  2.3733
  165SOPE  H18T18574   3.948   3.143   8.276 -4.3247  1.4626  0.6878
  165SOPE   C3318575   3.645   2.529  10.098 -0.2169 -0.5992 -0.6028
  165SOPE   H3X18576   3.727   2.573  10.038 -1.2374  0.7619 -1.0569
  165SOPE   H3Y18577   3.570   2.611  10.107  0.2672  0.1575 -2.7620
  165SOPE   C3418578   3.572   2.424  10.018 -0.3616 -0.1480  0.8688
  165SOPE   H4X18579   3.486   2.392  10.081 -1.0044 -0.3437 -0.0901
  165SOPE   H4Y18580   3.631   2.330  10.013  0.3129  0.3037 -0.0053
  165SOPE   C3518581   3.530   2.474   9.882  0.3198 -0.3283  0.0564
  165SOPE   H5X18582   3.475   2.570   9.896  1.1448  0.0862  0.5171
  165SOPE   H5Y18583   3.448   2.414   9.837 -0.3736  0.6510 -0.0288
  165SOPE   C3618584   3.641   2.521   9.779 -0.2748  0.6730 -0.7260
  165SOPE   H6X18585   3.709   2.434   9.764  1.8110  1.5806  2.5153
  165SOPE   H6Y18586   3.696   2.601   9.832 -0.1267 -0.3473  0.7318
  165SOPE   C3718587   3.574   2.559   9.651  0.3167 -0.4741  0.6670
  165SOPE   H7X18588   3.513   2.651   9.664  1.8033  0.5836  0.4290
  165SOPE   H7Y18589   3.516   2.468   9.626 -0.9459  0.4786  0.0717
  165SOPE   C3818590   3.680   2.601   9.545  0.0680  0.0902  1.2998
  165SOPE   H8X18591   3.742   2.513   9.513 -4.0696 -1.9359 -2.1931
  165SOPE   H8Y18592   3.754   2.680   9.569  0.9310 -0.0357 -0.6540
  165SOPE   C3918593   3.612   2.669   9.416  0.8901  0.5243 -0.9996
  165SOPE   H9X18594   3.592   2.775   9.440  1.2316  0.3523  0.0850
  165SOPE   H9Y18595   3.510   2.627   9.401  1.3788 -1.3313  0.5037
  165SOPE  C31018596   3.697   2.659   9.293  1.0425  0.0901  1.0475
  165SOPE  H10X18597   3.703   2.549   9.278  0.4048  0.2427 -0.5609
  165SOPE  H10Y18598   3.799   2.695   9.319  1.5847  1.4953 -2.3904
  165SOPE  C31118599   3.661   2.742   9.169  0.1101  0.4782  0.1281
  165SOPE  H11X18600   3.676   2.851   9.185  2.7044  0.2931 -0.5748
  165SOPE  H11Y18601   3.555   2.721   9.144 -0.0987  2.4797 -0.9048
  165SOPE  C31218602   3.759   2.715   9.055  0.1022  0.2497  0.1861
  165SOPE  H12X18603   3.752   2.606   9.038 -1.1015  0.1779  1.0135
  165SOPE  H12Y18604   3.861   2.738   9.093 -0.5022  0.9445  1.4692
  165SOPE  C31318605   3.738   2.796   8.924  0.0149  0.1698  0.0137
  165SOPE  H13X18606   3.739   2.904   8.949  1.5167  0.8421 -2.5762
  165SOPE  H13Y18607   3.636   2.765   8.891  0.9998 -1.2476 -1.8479
  165SOPE  C31418608   3.829   2.754   8.815 -0.6306  0.1214  0.8980
  165SOPE  H14X18609   3.859   2.647   8.812  1.7771  0.7350  0.4618
  165SOPE  H14Y18610   3.926   2.809   8.815 -2.2982  3.2900 -0.9520
  165SOPE  C31518611   3.776   2.781   8.672  0.1125  0.4010 -0.0631
  165SOPE  H15X18612   3.764   2.890   8.657 -1.3739  0.2491 -0.0973
  165SOPE  H15Y18613   3.681   2.726   8.653  0.4519  0.1755 -1.1449
  165SOPE  C31618614   3.877   2.735   8.564  0.0782  0.0281  0.0139
  165SOPE  H16X18615   3.912   2.630   8.569  0.7355  0.3036  1.5791
  165SOPE  H16Y18616   3.972   2.787   8.589  1.0791 -1.4844 -0.5061
  165SOPE  C31718617   3.836   2.768   8.416  0.4586 -0.5177 -0.1448
  165SOPE  H17X18618   3.808   2.874   8.402 -0.7185 -0.9572 -1.3292
  165SOPE  H17Y18619   3.749   2.703   8.393  2.5842 -3.5971 -0.1979
  165SOPE  C31818620   3.954   2.737   8.323 -0.1578  0.6013  0.0848
  165SOPE  H18X18621   3.984   2.630   8.325  1.5448  1.0020  3.5358
  165SOPE  H18Y18622   4.048   2.793   8.342 -0.2978  1.4514 -1.5780
  165SOPE  H18Z18623   3.925   2.765   8.220 -1.5340  2.8367  0.9862
  166SOPE     N18624   0.900   4.659  11.384 -0.9883  0.1088  0.3026
  166SOPE   HN118625   0.898   4.557  11.366  2.3341 -0.0508  0.2159
  166SOPE   HN218626   0.956   4.672  11.470 -2.5432  0.7047  1.2776
  166SOPE   HN318627   0.802   4.689  11.405 -1.7417 -0.5401 -1.9333
  166SOPE   C1218628   0.940   4.747  11.268 -0.3701 -0.2960 -0.8007
  166SOPE  H12A18629   1.051   4.751  11.269 -0.2973 -1.8735  0.1369
  166SOPE  H12B18630   0.907   4.848  11.300 -1.1652  0.0229 -2.4796
  166SOPE   C1118631   0.890   4.712  11.135  0.3448 -0.3330 -0.1805
  166SOPE  H11A18632   0.782   4.738  11.135  0.4134  0.0014  1.3065
  166SOPE  H11B18633   0.887   4.603  11.110 -2.9647  0.1221 -2.4065
  166SOPE     P18634   0.896   4.898  10.960 -0.4033  0.3857  0.3635
  166SOPE   O1318635   0.983   4.963  10.855 -0.1355  0.4210 -0.4833
  166SOPE   O1418636   0.851   4.994  11.065  0.3811 -0.1857  0.8462
  166SOPE   O1218637   0.968   4.771  11.033 -0.0542 -0.6266  0.1644
  166SOPE   O1118638   0.763   4.832  10.899 -0.6633 -0.4476 -0.0991
  166SOPE    C118639   0.784   4.722  10.805 -0.2014 -0.0553 -0.5712
  166SOPE    HA18640   0.770   4.622  10.853 -1.7692  0.2717 -0.3070
  166SOPE    HB18641   0.883   4.726  10.754  0.3542 -0.7319  0.4095
  166SOPE    C218642   0.682   4.709  10.689  0.7302 -0.0262 -0.2918
  166SOPE    HS18643   0.681   4.614  10.632  1.5449 -0.2413  0.0558
  166SOPE   O2118644   0.703   4.826  10.604 -0.6025  0.7514 -0.0562
  166SOPE   C2118645   0.794   4.804  10.506  0.4741 -0.3092  0.2890
  166SOPE   O2218646   0.845   4.696  10.480 -0.3047 -0.1935  0.0256
  166SOPE   C2218647   0.819   4.934  10.426 -0.1102 -0.1565 -0.3185
  166SOPE   H2R18648   0.880   4.900  10.340 -2.2048  0.1825 -2.0271
  166SOPE   H2S18649   0.875   5.012  10.482  0.8748  1.8700 -3.8474
  166SOPE    C318650   0.533   4.708  10.741 -0.7607 -0.3115  0.1717
  166SOPE    HX18651   0.512   4.796  10.806  0.6789  0.5584 -0.4712
  166SOPE    HY18652   0.541   4.629  10.818  4.9659  1.9958  2.5016
  166SOPE   O3118653   0.425   4.676  10.643 -0.4397  0.5335 -0.9611
  166SOPE   C3118654   0.371   4.785  10.581 -0.2547 -0.0393 -0.4722
  166SOPE   O3218655   0.409   4.901  10.596  0.1778 -0.1012  0.0516
  166SOPE   C3218656   0.260   4.742  10.486 -0.8340 -0.0226 -0.9757
  166SOPE   H2X18657   0.186   4.825  10.488 -2.0572 -1.0921 -0.2599
  166SOPE   H2Y18658   0.215   4.650  10.530 -1.2935  1.0837  0.9902
  166SOPE   C2318659   0.691   5.001  10.380  0.0763 -0.6444  0.7209
  166SOPE   H3R18660   0.627   5.016  10.470  0.4740  1.0899  0.7430
  166SOPE   H3S18661   0.633   4.927  10.322 -2.2538  1.7824 -0.2610
  166SOPE   C2418662   0.705   5.135  10.303  0.0548  0.9554  0.2343
  166SOPE   H4R18663   0.607   5.155  10.256 -0.8564 -0.4449  1.4734
  166SOPE   H4S18664   0.728   5.217  10.375 -0.4975 -0.0726  1.6313
  166SOPE   C2518665   0.811   5.127  10.189  0.4944  0.4897 -0.1522
  166SOPE   H5R18666   0.840   5.228  10.153  1.2996 -0.3801 -2.1393
  166SOPE   H5S18667   0.901   5.071  10.223  1.1941  1.7365  0.0952
  166SOPE   C2618668   0.763   5.052  10.061 -0.4081 -0.6741 -0.2790
  166SOPE   H6R18669   0.700   4.966  10.093  0.0028 -1.5270 -1.6615
  166SOPE   H6S18670   0.697   5.131  10.019 -0.2478  0.0398  0.7815
  166SOPE   C2718671   0.874   5.031   9.950 -0.1956  0.6923  0.0718
  166SOPE   H7R18672   0.975   5.061   9.987 -0.2473  1.5082 -0.4302
  166SOPE   H7S18673   0.873   4.920   9.948 -0.7040  0.7034 -0.6705
  166SOPE   C2818674   0.830   5.091   9.815 -0.0961 -0.2056  0.3714
  166SOPE   H8R18675   0.750   5.026   9.774 -1.3138  0.9036  0.9058
  166SOPE   H8S18676   0.782   5.191   9.816 -0.0816 -0.1965  0.0943
  166SOPE   C2918677   0.935   5.078   9.712 -0.1397  0.3134 -0.3462
  166SOPE   H9118678   1.033   5.048   9.750  0.5657  0.0481 -2.2678
  166SOPE  C21018679   0.919   5.088   9.575  0.1153 -0.2840  0.4445
  166SOPE  H10118680   0.998   5.055   9.506  1.3236 -1.2294  2.2096
  166SOPE  C21118681   0.792   5.113   9.494 -0.6797  0.1774 -0.2591
  166SOPE  H11R18682   0.726   5.169   9.564  0.4958  2.3449 -0.7941
  166SOPE  H11S18683   0.732   5.025   9.465  0.9712 -1.5139  1.2097
  166SOPE  C21218684   0.812   5.220   9.389  1.5685 -0.7842 -0.0535
  166SOPE  H12R18685   0.866   5.305   9.436 -1.4754  1.0687  0.3920
  166SOPE  H12S18686   0.712   5.258   9.356 -0.2116 -1.2321  4.1735
  166SOPE  C21318687   0.890   5.171   9.263  0.1911 -0.2756 -0.0865
  166SOPE  H13R18688   0.827   5.106   9.197 -2.2328  1.6275  0.2020
  166SOPE  H13S18689   0.986   5.126   9.293  1.5354  1.2907 -1.8003
  166SOPE  C21418690   0.920   5.290   9.170  0.1328 -0.9630 -0.0106
  166SOPE  H14R18691   1.005   5.337   9.225 -0.1176 -1.2554  0.6385
  166SOPE  H14S18692   0.841   5.367   9.180  1.7370  0.7382  0.1125
  166SOPE  C21518693   0.968   5.264   9.028 -0.0549 -0.1335 -0.2511
  166SOPE  H15R18694   0.893   5.196   8.982  0.6144 -1.5522  0.6894
  166SOPE  H15S18695   1.066   5.212   9.037  0.8349  1.6522  1.0014
  166SOPE  C21618696   0.989   5.401   8.969 -0.2527 -0.5317 -0.3159
  166SOPE  H16R18697   1.046   5.466   9.040 -0.4380 -0.0116 -0.6346
  166SOPE  H16S18698   0.894   5.456   8.955  0.9970  1.3803 -1.8241
  166SOPE  C21718699   1.073   5.395   8.838  0.3461 -0.1536  0.2692
  166SOPE  H17R18700   1.052   5.302   8.781 -0.8019 -2.2540  3.8060
  166SOPE  H17S18701   1.178   5.394   8.875  0.6842 -0.0282 -0.6496
  166SOPE  C21818702   1.054   5.517   8.741  0.2559  0.0997 -0.2470
  166SOPE  H18R18703   1.109   5.611   8.766 -2.2008  1.2102  1.4189
  166SOPE  H18S18704   0.947   5.546   8.732  0.0710  0.8000  2.9386
  166SOPE  H18T18705   1.083   5.489   8.638  0.4084 -1.1709  0.1204
  166SOPE   C3318706   0.321   4.723  10.344 -0.9025  0.4388  0.1973
  166SOPE   H3X18707   0.397   4.802  10.325  0.6247 -0.8133  0.9036
  166SOPE   H3Y18708   0.238   4.752  10.276 -0.6994  0.7157  0.0635
  166SOPE   C3418709   0.390   4.592  10.328 -0.2284  0.6520  0.0119
  166SOPE   H4X18710   0.329   4.508  10.369  1.3812  0.0198  1.2340
  166SOPE   H4Y18711   0.476   4.583  10.398  0.3791 -0.5778 -0.8572
  166SOPE   C3518712   0.464   4.569  10.194 -0.4425  0.5631 -0.0107
  166SOPE   H5X18713   0.503   4.465  10.190  2.1696  1.4751 -0.5981
  166SOPE   H5Y18714   0.556   4.631  10.187  0.6235 -0.4890  3.0286
  166SOPE   C3618715   0.381   4.584  10.069 -0.5370 -0.0557  0.3932
  166SOPE   H6X18716   0.360   4.692  10.055  4.1124  0.9195 -0.8174
  166SOPE   H6Y18717   0.293   4.516  10.066  0.0572 -0.8284  0.1263
  166SOPE   C3718718   0.465   4.550   9.951  0.1288  0.2803  0.0573
  166SOPE   H7X18719   0.489   4.441   9.952 -2.5585 -0.3849  0.8782
  166SOPE   H7Y18720   0.564   4.598   9.961 -0.0674  0.8438 -0.6023
  166SOPE   C3818721   0.413   4.594   9.815  0.5745  0.1946 -0.0640
  166SOPE   H8X18722   0.371   4.697   9.822  0.7505  0.1501  2.3981
  166SOPE   H8Y18723   0.326   4.539   9.773  0.4647  0.7894 -0.6494
  166SOPE   C3918724   0.528   4.604   9.716  0.1857  0.3186  0.1366
  166SOPE   H9X18725   0.586   4.510   9.700  0.2999  0.1519  1.3949
  166SOPE   H9Y18726   0.593   4.683   9.758  0.7513 -0.1302  0.1234
  166SOPE  C31018727   0.486   4.642   9.575 -0.6039  0.1555 -1.2615
  166SOPE  H10X18728   0.426   4.735   9.579 -1.2082 -0.2747  0.3801
  166SOPE  H10Y18729   0.417   4.561   9.540  1.2327 -2.2981  0.4402
  166SOPE  C31118730   0.602   4.645   9.478  0.0616  0.3170 -0.0076
  166SOPE  H11X18731   0.654   4.547   9.474  1.1576  0.9153 -1.6429
  166SOPE  H11Y18732   0.670   4.727   9.512  0.2441 -0.4486  1.5395
  166SOPE  C31218733   0.561   4.678   9.330 -0.5154  0.3323 -0.3273
  166SOPE  H12X18734   0.473   4.745   9.339 -1.4655 -0.5768 -2.2591
  166SOPE  H12Y18735   0.517   4.593   9.274 -0.6094 -0.1391  0.4502
  166SOPE  C31318736   0.647   4.762   9.240 -0.5141  0.3428  0.3778
  166SOPE  H13X18737   0.728   4.698   9.200 -0.0952 -1.3139  3.5581
  166SOPE  H13Y18738   0.702   4.842   9.295  4.3754 -0.9937 -2.0264
  166SOPE  C31418739   0.572   4.828   9.116 -0.9022  0.2980 -0.8235
  166SOPE  H14X18740   0.491   4.888   9.161  0.4428 -0.8057  3.5684
  166SOPE  H14Y18741   0.536   4.751   9.045 -0.6485  0.8822 -1.6002
  166SOPE  C31518742   0.651   4.935   9.033 -0.5196 -0.7630  0.3763
  166SOPE  H15X18743   0.753   4.898   9.008 -0.2062  0.5885 -0.4540
  166SOPE  H15Y18744   0.682   5.024   9.093  1.0470 -0.7707 -0.3749
  166SOPE  C31618745   0.568   4.976   8.913  0.0900 -0.5564 -0.4862
  166SOPE  H16X18746   0.477   5.028   8.948  0.4568 -0.1526 -0.1058
  166SOPE  H16Y18747   0.546   4.892   8.843 -0.2872  0.4466 -1.6075
  166SOPE  C31718748   0.643   5.091   8.833  0.7226 -0.1352  0.1866
  166SOPE  H17X18749   0.593   5.081   8.735 -0.4874 -4.0244  1.0272
  166SOPE  H17Y18750   0.750   5.060   8.830  1.0124  0.5162  1.9593
  166SOPE  C31818751   0.624   5.232   8.893  0.1244  0.0638 -0.1721
  166SOPE  H18X18752   0.691   5.267   8.974 -1.1227  2.2941 -0.0196
  166SOPE  H18Y18753   0.522   5.234   8.935  0.2046 -1.0008  0.1136
  166SOPE  H18Z18754   0.621   5.309   8.812 -0.7598 -2.2939 -2.5513
  167SOPE     N18755   0.433   3.110   6.187 -0.2531 -0.2691  0.1639
  167SOPE   HN118756   0.482   3.075   6.271 -0.2592 -0.8166 -0.0543
  167SOPE   HN218757   0.347   3.158   6.220  0.5072  0.4985  1.0896
  167SOPE   HN318758   0.411   3.034   6.119  1.1387 -0.6098  0.0728
  167SOPE   C1218759   0.521   3.216   6.126 -0.1898  0.2206  0.6348
  167SOPE  H12A18760   0.460   3.266   6.046  1.0016  0.6246 -0.0492
  167SOPE  H12B18761   0.604   3.161   6.077 -0.3964  0.6879 -0.2679
  167SOPE   C1118762   0.592   3.312   6.218 -0.2856  0.3006  0.3736
  167SOPE  H11A18763   0.511   3.372   6.264 -1.5394  0.1736 -1.5319
  167SOPE  H11B18764   0.646   3.390   6.160 -0.6998  1.3366  1.3575
  167SOPE     P18765   0.833   3.222   6.300  0.2244 -0.2793  0.2078
  167SOPE   O1318766   0.908   3.338   6.266  0.6773 -0.1991  0.0753
  167SOPE   O1418767   0.859   3.103   6.224  0.2390  0.2822 -0.3847
  167SOPE   O1218768   0.672   3.243   6.305 -0.0074  0.7561  0.0988
  167SOPE   O1118769   0.871   3.189   6.448 -0.1891  0.2302 -0.2859
  167SOPE    C118770   0.871   3.059   6.509 -0.3961  0.1640 -0.4296
  167SOPE    HA18771   0.949   3.052   6.588 -0.4708 -2.8667 -0.5234
  167SOPE    HB18772   0.882   2.976   6.436  1.2498 -1.6332  1.6961
  167SOPE    C218773   0.741   3.025   6.588  0.0635 -0.1033  0.6899
  167SOPE    HS18774   0.662   3.099   6.562  0.9867  0.4624 -0.6204
  167SOPE   O2118775   0.766   3.021   6.723 -0.7426 -0.0652 -0.3229
  167SOPE   C2118776   0.674   3.052   6.818 -0.0754 -0.0846 -0.3901
  167SOPE   O2218777   0.567   3.106   6.799 -0.3983 -0.4747  0.2076
  167SOPE   C2218778   0.737   3.018   6.952  0.0951  0.2665  0.7833
  167SOPE   H2R18779   0.839   3.062   6.953  0.0927  0.4029 -1.3905
  167SOPE   H2S18780   0.746   2.907   6.958  0.5714  0.3042  0.8485
  167SOPE    C318781   0.690   2.887   6.545  0.2434  0.7897 -0.4459
  167SOPE    HX18782   0.766   2.810   6.571 -1.0333 -0.6863 -0.8869
  167SOPE    HY18783   0.689   2.884   6.434 -1.0446  0.7285 -0.4418
  167SOPE   O3118784   0.568   2.851   6.608 -0.5772 -0.1070  0.2694
  167SOPE   C3118785   0.460   2.899   6.533  0.2368  0.1286 -1.0587
  167SOPE   O3218786   0.461   2.949   6.425 -0.2716 -0.4332  0.1969
  167SOPE   C3218787   0.338   2.885   6.618 -0.3067  0.5500  0.4801
  167SOPE   H2X18788   0.252   2.932   6.565 -0.9159 -0.1078  0.8724
  167SOPE   H2Y18789   0.335   2.938   6.715 -1.2753 -1.5269  1.6573
  167SOPE   C2318790   0.651   3.067   7.063  0.6974 -0.6803 -0.1920
  167SOPE   H3R18791   0.543   3.041   7.048  1.3401 -2.9478 -1.4712
  167SOPE   H3S18792   0.648   3.177   7.073 -0.1661 -0.6865 -0.2791
  167SOPE   C2418793   0.687   2.996   7.195  0.0050  0.6066 -0.2751
  167SOPE   H4R18794   0.677   2.886   7.186  0.9660  0.3632  1.1861
  167SOPE   H4S18795   0.794   3.008   7.220 -0.2350  0.3776  0.9754
  167SOPE   C2518796   0.622   3.061   7.320 -0.3543 -0.4721  0.0096
  167SOPE   H5R18797   0.650   3.168   7.326  0.7772 -0.7525 -0.1798
  167SOPE   H5S18798   0.514   3.055   7.292 -0.5828 -2.8918  1.0740
  167SOPE   C2618799   0.645   2.979   7.446  0.4222 -0.1576  0.0824
  167SOPE   H6R18800   0.609   2.875   7.438  0.3099 -0.1856  0.9103
  167SOPE   H6S18801   0.754   2.958   7.457  0.4658 -1.5890 -2.4262
  167SOPE   C2718802   0.585   3.055   7.566 -0.1699  0.5195 -0.0123
  167SOPE   H7R18803   0.645   3.147   7.577 -0.7441  1.0093 -0.8807
  167SOPE   H7S18804   0.480   3.089   7.549  0.3048  1.7558 -0.5758
  167SOPE   C2818805   0.595   2.969   7.694  0.2732  0.4749  0.1287
  167SOPE   H8R18806   0.529   2.881   7.684  0.0132  0.8108 -1.3604
  167SOPE   H8S18807   0.698   2.929   7.706  0.3568  0.8428  0.6675
  167SOPE   C2918808   0.554   3.051   7.808  0.5588 -0.2034 -0.1622
  167SOPE   H9118809   0.600   3.150   7.825  0.0163  0.0034  0.0868
  167SOPE  C21018810   0.459   3.005   7.896 -0.7946 -0.2119  0.0509
  167SOPE  H10118811   0.414   3.078   7.964 -0.5795  0.3844 -0.4408
  167SOPE  C21118812   0.411   2.869   7.893  0.7192 -0.1227 -0.7680
  167SOPE  H11R18813   0.498   2.803   7.910  1.1985  0.6554 -0.1402
  167SOPE  H11S18814   0.364   2.846   7.795  0.5429 -1.4264 -0.3936
  167SOPE  C21218815   0.309   2.840   8.000  0.2416 -0.0026  0.7234
  167SOPE  H12R18816   0.260   2.741   7.992  0.9307 -0.2045 -2.1631
  167SOPE  H12S18817   0.223   2.910   7.988 -0.1177 -0.3716  1.1351
  167SOPE  C21318818   0.353   2.855   8.143 -0.3353  0.7323  0.0417
  167SOPE  H13R18819   0.395   2.955   8.169  0.8068  0.4176 -0.5181
  167SOPE  H13S18820   0.429   2.776   8.163 -2.3670 -1.3811 -0.2256
  167SOPE  C21418821   0.243   2.821   8.243  0.3210 -0.5917  0.2495
  167SOPE  H14R18822   0.201   2.720   8.228  0.5668 -0.3419 -2.7862
  167SOPE  H14S18823   0.153   2.884   8.225  2.1304  2.3437  0.7797
  167SOPE  C21518824   0.291   2.852   8.385 -1.0505 -0.8262 -0.8694
  167SOPE  H15R18825   0.329   2.956   8.380 -1.4273 -0.7170 -1.5004
  167SOPE  H15S18826   0.365   2.772   8.406 -2.5250 -1.8579  0.6591
  167SOPE  C21618827   0.187   2.839   8.496  0.5008  1.0066 -0.8568
  167SOPE  H16R18828   0.131   2.746   8.473 -0.1316  0.9360  0.8527
  167SOPE  H16S18829   0.112   2.919   8.480 -0.7728  0.1023  0.3741
  167SOPE  C21718830   0.247   2.851   8.632 -0.0756  0.6570 -0.5963
  167SOPE  H17R18831   0.305   2.943   8.653  2.5345 -0.6632 -1.4881
  167SOPE  H17S18832   0.329   2.778   8.649 -0.7305  0.4670  2.2319
  167SOPE  C21818833   0.154   2.823   8.752 -0.1957 -0.6019 -0.9893
  167SOPE  H18R18834   0.112   2.720   8.753  0.8092 -1.0944  2.0298
  167SOPE  H18S18835   0.073   2.899   8.763 -2.0483 -2.7396  1.4867
  167SOPE  H18T18836   0.210   2.833   8.847  0.2062  1.3914 -1.4024
  167SOPE   C3318837   0.317   2.736   6.651  0.0665 -0.4242  0.1942
  167SOPE   H3X18838   0.400   2.686   6.706 -0.2390 -0.3114  0.7745
  167SOPE   H3Y18839   0.319   2.674   6.559  0.4145 -0.7328  0.4107
  167SOPE   C3418840   0.190   2.716   6.738 -0.5275  0.9524  0.4991
  167SOPE   H4X18841   0.178   2.606   6.733 -1.0790  1.0674 -1.1146
  167SOPE   H4Y18842   0.107   2.765   6.684  0.2197 -2.0970 -3.9682
  167SOPE   C3518843   0.202   2.773   6.876 -0.2662 -0.0353 -0.5813
  167SOPE   H5X18844   0.208   2.883   6.878  0.0537 -0.0577 -0.1398
  167SOPE   H5Y18845   0.301   2.736   6.912 -1.1108  0.5356  2.5251
  167SOPE   C3618846   0.102   2.722   6.981  0.2628  0.0484  0.0526
  167SOPE   H6X18847   0.103   2.611   6.976 -1.9445 -0.0125  0.0009
  167SOPE   H6Y18848  -0.001   2.761   6.968 -0.4719 -1.2145  1.7710
  167SOPE   C3718849   0.145   2.743   7.129 -0.9610 -0.7422 -0.1359
  167SOPE   H7X18850   0.246   2.699   7.138 -1.2368 -2.1953 -2.9249
  167SOPE   H7Y18851   0.066   2.700   7.194 -2.1846 -1.5578 -2.0562
  167SOPE   C3818852   0.164   2.889   7.169  0.0832 -0.2582 -0.3784
  167SOPE   H8X18853   0.060   2.926   7.155 -1.2186 -2.6841  1.8953
  167SOPE   H8Y18854   0.242   2.934   7.105 -0.1220  3.9688  2.0016
  167SOPE   C3918855   0.208   2.908   7.313  1.1165 -0.6477  0.0283
  167SOPE   H9X18856   0.274   2.998   7.310  2.0903 -1.3731 -1.1608
  167SOPE   H9Y18857   0.282   2.828   7.334  0.0469 -1.1916  2.0323
  167SOPE  C31018858   0.092   2.922   7.408 -0.4650  0.1611 -0.7854
  167SOPE  H10X18859   0.028   2.832   7.398  2.8427 -2.6355  1.2488
  167SOPE  H10Y18860   0.028   3.012   7.396 -1.8702 -0.7780 -0.5619
  167SOPE  C31118861   0.128   2.924   7.557 -0.3410 -0.0617 -1.0053
  167SOPE  H11X18862   0.198   3.007   7.583 -0.0064 -0.5580 -0.3078
  167SOPE  H11Y18863   0.185   2.835   7.589  0.9970  0.9647 -0.4421
  167SOPE  C31218864   0.011   2.941   7.651  0.1810 -0.1706  0.2072
  167SOPE  H12X18865  -0.070   2.868   7.628  0.6486 -0.4118 -0.7583
  167SOPE  H12Y18866  -0.034   3.041   7.635  0.2335 -0.2768 -0.6692
  167SOPE  C31318867   0.034   2.915   7.796 -0.1328  0.2716 -0.2988
  167SOPE  H13X18868   0.105   2.994   7.829 -1.2159  1.6113 -1.0668
  167SOPE  H13Y18869   0.077   2.813   7.811  2.8571  1.5033  0.1836
  167SOPE  C31418870  -0.103   2.923   7.863 -0.7241 -0.2778 -0.2764
  167SOPE  H14X18871  -0.163   2.840   7.822 -0.5291 -0.9547  0.7862
  167SOPE  H14Y18872  -0.156   3.018   7.840  0.2626  0.3940  0.1489
  167SOPE  C31518873  -0.101   2.921   8.019 -0.1479  0.0476 -0.3791
  167SOPE  H15X18874  -0.031   2.998   8.059  0.5155 -0.8021  0.1549
  167SOPE  H15Y18875  -0.059   2.823   8.051  0.8418  0.7780  0.6671
  167SOPE  C31618876  -0.243   2.954   8.070 -0.9218 -0.1111  0.6390
  167SOPE  H16X18877  -0.310   2.882   8.019 -0.2615  1.0524 -2.0023
  167SOPE  H16Y18878  -0.266   3.059   8.044 -1.1262 -0.1679  0.5886
  167SOPE  C31718879  -0.261   2.939   8.218  0.0202  0.0460  0.3074
  167SOPE  H17X18880  -0.346   3.004   8.247 -0.1809  0.3596 -0.9204
  167SOPE  H17Y18881  -0.167   2.970   8.269  1.9847 -0.3217 -2.8296
  167SOPE  C31818882  -0.299   2.797   8.256 -0.5737 -0.7840  0.1297
  167SOPE  H18X18883  -0.397   2.763   8.215  0.5020 -1.9809 -1.6058
  167SOPE  H18Y18884  -0.309   2.803   8.366 -2.8076  1.8295 -0.0945
  167SOPE  H18Z18885  -0.215   2.728   8.232 -1.4413 -1.1107 -2.3098
  168SOPE     N18886   4.822   5.449   6.537 -0.6523 -0.8978 -0.0691
  168SOPE   HN118887   4.827   5.461   6.434 -0.4003  0.5264  0.0884
  168SOPE   HN218888   4.799   5.349   6.552  0.0745 -1.0316  0.1511
  168SOPE   HN318889   4.753   5.518   6.574  0.3758  1.3682 -2.1357
  168SOPE   C1218890   4.956   5.471   6.604 -0.0096 -0.1764 -0.3381
  168SOPE  H12A18891   5.031   5.410   6.551  0.0732 -0.6339  0.2890
  168SOPE  H12B18892   4.942   5.434   6.708 -2.8862  3.0365  0.5881
  168SOPE   C1118893   4.979   5.623   6.609 -0.2317 -0.1034  0.1839
  168SOPE  H11A18894   5.063   5.656   6.674 -0.0594 -2.9733  1.5782
  168SOPE  H11B18895   4.895   5.668   6.665 -0.0159  1.4580 -0.7090
  168SOPE     P18896   5.094   5.732   6.411  0.3130  0.2116  0.2095
  168SOPE   O1318897   5.055   5.793   6.276  0.0130  0.3198  0.2194
  168SOPE   O1418898   5.189   5.619   6.401 -0.0772 -0.3029  0.3816
  168SOPE   O1218899   4.972   5.688   6.484 -0.1353 -0.0817  0.4199
  168SOPE   O1118900   5.147   5.839   6.503 -0.7680 -0.0996  0.7379
  168SOPE    C118901   5.062   5.945   6.550 -0.0138  0.1251 -0.1041
  168SOPE    HA18902   4.985   5.901   6.617  1.0982 -3.4360 -0.9181
  168SOPE    HB18903   5.006   5.984   6.462 -0.3774 -2.8286 -1.3059
  168SOPE    C218904   5.141   6.045   6.622 -0.8470  0.0899 -0.7207
  168SOPE    HS18905   5.225   6.080   6.558 -0.5575  0.2010 -0.2799
  168SOPE   O2118906   5.182   5.983   6.749 -0.1175 -0.2728  0.0502
  168SOPE   C2118907   5.301   5.935   6.749 -0.3383 -0.7031  0.6984
  168SOPE   O2218908   5.376   5.930   6.657 -1.1806  0.2550 -0.5583
  168SOPE   C2218909   5.346   5.899   6.892 -0.0815  0.0854  0.2644
  168SOPE   H2R18910   5.291   5.810   6.929 -0.4224  0.0731 -0.2684
  168SOPE   H2S18911   5.312   5.979   6.961 -0.5913 -0.6036  0.8263
  168SOPE    C318912   5.059   6.173   6.650  0.1801 -0.0887  0.1342
  168SOPE    HX18913   4.969   6.137   6.705 -0.0683  1.0758  0.5060
  168SOPE    HY18914   5.023   6.229   6.561  0.2283 -0.0055  0.1671
  168SOPE   O3118915   5.128   6.265   6.737  0.1036 -0.0241  0.1074
  168SOPE   C3118916   5.078   6.292   6.857 -0.1824 -0.4108 -0.7690
  168SOPE   O3218917   4.975   6.260   6.912  0.3350 -0.0809  0.0974
  168SOPE   C3218918   5.192   6.365   6.931  0.5884 -0.2695  1.0187
  168SOPE   H2X18919   5.211   6.450   6.861  0.7640 -1.9045 -1.0365
  168SOPE   H2Y18920   5.294   6.320   6.925  0.5804 -0.2452  0.6875
  168SOPE   C2318921   5.493   5.878   6.899 -0.1981  0.1445 -0.0531
  168SOPE   H3R18922   5.550   5.942   6.829  1.6302 -1.6178 -0.2536
  168SOPE   H3S18923   5.503   5.768   6.885  0.0762 -0.1907  2.2884
  168SOPE   C2418924   5.552   5.903   7.036  0.5759  0.5914 -0.6535
  168SOPE   H4R18925   5.477   5.853   7.102 -0.6241  1.0371 -1.6482
  168SOPE   H4S18926   5.651   5.857   7.058 -0.1129 -0.5354  0.2295
  168SOPE   C2518927   5.559   6.053   7.073 -0.3583  0.0946 -0.5346
  168SOPE   H5R18928   5.656   6.092   7.035 -0.7408  1.7839  0.1470
  168SOPE   H5S18929   5.478   6.100   7.014 -1.6296  1.5629  2.1865
  168SOPE   C2618930   5.547   6.096   7.218 -0.3803 -0.4621  0.4504
  168SOPE   H6R18931   5.441   6.082   7.247  0.0739 -2.2331  1.4340
  168SOPE   H6S18932   5.595   6.015   7.278  3.3951  1.2932  0.1301
  168SOPE   C2718933   5.606   6.232   7.247 -0.1055  0.8016 -0.0323
  168SOPE   H7R18934   5.713   6.227   7.221 -0.1662 -0.9099 -0.1217
  168SOPE   H7S18935   5.551   6.312   7.194 -2.5174  0.6952  2.0835
  168SOPE   C2818936   5.580   6.271   7.398  0.4994  0.1246  0.4417
  168SOPE   H8R18937   5.475   6.263   7.434 -0.2081  1.1084 -1.3122
  168SOPE   H8S18938   5.631   6.196   7.463 -0.2032  0.4295  1.3707
  168SOPE   C2918939   5.620   6.410   7.425  0.3315 -0.1189 -0.2030
  168SOPE   H9118940   5.580   6.487   7.358  1.0791  0.1141 -0.3940
  168SOPE  C21018941   5.704   6.433   7.531 -0.6720 -0.6623 -0.3629
  168SOPE  H10118942   5.741   6.536   7.542  2.6112 -1.5676 -1.6387
  168SOPE  C21118943   5.766   6.326   7.623  0.3146  0.1431  0.4657
  168SOPE  H11R18944   5.825   6.259   7.557 -0.0048 -0.5203  0.8395
  168SOPE  H11S18945   5.690   6.266   7.677  1.0233  0.5038  1.9008
  168SOPE  C21218946   5.861   6.391   7.722 -0.0795 -0.4976 -0.3706
  168SOPE  H12R18947   5.916   6.473   7.672  0.6405 -2.3188 -2.7577
  168SOPE  H12S18948   5.932   6.309   7.744  1.0983 -0.5458 -3.7492
  168SOPE  C21318949   5.782   6.439   7.844  0.1466 -0.5717  0.0465
  168SOPE  H13R18950   5.718   6.352   7.870 -4.1591  2.2502 -0.0949
  168SOPE  H13S18951   5.724   6.533   7.831 -0.6120 -0.9819  0.4035
  168SOPE  C21418952   5.875   6.450   7.967  0.5009 -0.7014 -0.0231
  168SOPE  H14R18953   5.980   6.483   7.951  1.0869 -1.6367  1.5969
  168SOPE  H14S18954   5.892   6.343   7.995  2.5731  0.3383  3.3251
  168SOPE  C21518955   5.810   6.521   8.088  0.1664 -0.1625  0.3805
  168SOPE  H15R18956   5.761   6.618   8.066 -0.0992 -0.2853  0.4303
  168SOPE  H15S18957   5.903   6.544   8.146  1.6191 -0.5537 -1.6934
  168SOPE  C21618958   5.719   6.441   8.187 -0.5036  0.2926 -0.2553
  168SOPE  H16R18959   5.787   6.369   8.239 -1.6438 -1.6916 -1.3994
  168SOPE  H16S18960   5.641   6.379   8.139  1.3848 -2.1858 -0.3589
  168SOPE  C21718961   5.675   6.531   8.307 -0.2081 -0.4223 -0.1463
  168SOPE  H17R18962   5.603   6.607   8.270  0.0341 -0.7811 -1.4066
  168SOPE  H17S18963   5.771   6.576   8.340 -1.0333  0.1424  1.5666
  168SOPE  C21818964   5.621   6.455   8.424 -0.6830 -0.4580 -0.3290
  168SOPE  H18R18965   5.675   6.361   8.449  1.1905  0.7403  0.3536
  168SOPE  H18S18966   5.516   6.426   8.402 -0.7150 -0.5806 -0.0198
  168SOPE  H18T18967   5.618   6.531   8.504  0.3673  1.2422 -1.8217
  168SOPE   C3318968   5.162   6.410   7.068 -0.5768 -0.4770  0.0019
  168SOPE   H3X18969   5.160   6.324   7.139 -0.5454  0.3607  1.0504
  168SOPE   H3Y18970   5.059   6.451   7.073  0.1874  1.4665  3.8879
  168SOPE   C3418971   5.258   6.512   7.126  0.1661 -0.1093 -0.5650
  168SOPE   H4X18972   5.252   6.609   7.072 -2.5751  0.9419  1.3663
  168SOPE   H4Y18973   5.352   6.454   7.136 -0.4009 -1.0685 -0.7484
  168SOPE   C3518974   5.219   6.560   7.266  0.0162  0.1162  0.0520
  168SOPE   H5X18975   5.116   6.600   7.268 -0.9395 -2.2123  0.5230
  168SOPE   H5Y18976   5.276   6.653   7.288  0.5807 -0.1465 -0.2721
  168SOPE   C3618977   5.230   6.455   7.382 -0.2883 -0.4409 -0.1642
  168SOPE   H6X18978   5.328   6.404   7.376 -1.6058 -3.0204 -1.3892
  168SOPE   H6Y18979   5.150   6.381   7.357 -0.3110 -0.5480  0.2263
  168SOPE   C3718980   5.198   6.518   7.519 -0.2792 -0.2331  0.3816
  168SOPE   H7X18981   5.102   6.573   7.526  0.5755  1.1131  2.9224
  168SOPE   H7Y18982   5.276   6.595   7.540 -1.9570  1.3359  1.1777
  168SOPE   C3818983   5.228   6.408   7.625 -0.1109  0.4712  0.2404
  168SOPE   H8X18984   5.331   6.373   7.604 -0.7271 -1.7815  0.6988
  168SOPE   H8Y18985   5.170   6.314   7.613 -0.4744  0.7396 -0.1796
  168SOPE   C3918986   5.209   6.459   7.764 -0.0515 -0.4768  1.1125
  168SOPE   H9X18987   5.103   6.489   7.781 -0.2009  0.5437 -1.2468
  168SOPE   H9Y18988   5.252   6.561   7.773 -0.7160  0.0363 -0.9371
  168SOPE  C31018989   5.252   6.366   7.882  0.0714  0.3406 -0.2593
  168SOPE  H10X18990   5.345   6.316   7.846  0.2685  0.2035  0.4364
  168SOPE  H10Y18991   5.182   6.281   7.889 -1.1994  1.1289 -2.3654
  168SOPE  C31118992   5.278   6.436   8.018 -0.2432 -0.0940 -0.5187
  168SOPE  H11X18993   5.363   6.507   8.007  0.3503 -0.7096  0.0427
  168SOPE  H11Y18994   5.325   6.357   8.080  0.9773  0.9135 -0.1279
  168SOPE  C31218995   5.151   6.504   8.072 -0.9310  1.0391  0.1596
  168SOPE  H12X18996   5.063   6.441   8.095  0.9862 -0.5714  3.9403
  168SOPE  H12Y18997   5.116   6.581   7.999 -1.5291 -1.1227 -1.9764
  168SOPE  C31318998   5.166   6.569   8.212  0.0925 -0.5830  0.6092
  168SOPE  H13X18999   5.079   6.635   8.233  1.0064  0.8312  0.1001
  168SOPE  H13Y19000   5.253   6.638   8.212  1.3451 -1.9239 -3.2019
  168SOPE  C31419001   5.177   6.461   8.315  0.0897  0.2977  0.1563
  168SOPE  H14X19002   5.280   6.421   8.301  0.1681  0.3341  0.6283
  168SOPE  H14Y19003   5.102   6.381   8.297 -0.5206  0.5506  1.4566
  168SOPE  C31519004   5.168   6.513   8.456 -0.6204 -0.0144 -0.5721
  168SOPE  H15X19005   5.168   6.429   8.528  0.3679 -0.3077 -0.8941
  168SOPE  H15Y19006   5.074   6.573   8.448 -0.9801 -0.5108 -0.1227
  168SOPE  C31619007   5.276   6.605   8.500  0.4006 -0.5488  0.1089
  168SOPE  H16X19008   5.266   6.704   8.450 -0.3116 -0.5118  0.3103
  168SOPE  H16Y19009   5.378   6.579   8.465  0.6262 -0.1214  0.4573
  168SOPE  C31719010   5.277   6.618   8.653  0.0769  0.5416 -0.0827
  168SOPE  H17X19011   5.185   6.666   8.691  0.3919  2.2971 -1.4169
  168SOPE  H17Y19012   5.361   6.685   8.681  0.5079  0.2759 -0.7192
  168SOPE  C31819013   5.312   6.478   8.730  0.0257  0.3835  1.0536
  168SOPE  H18X19014   5.219   6.422   8.756  0.2107  0.1113  1.1329
  168SOPE  H18Y19015   5.363   6.499   8.826 -0.6414  0.5622  1.3778
  168SOPE  H18Z19016   5.382   6.410   8.677  0.3465  0.3239  1.5478
  169SOPE     N19017   4.829   3.218   5.917 -0.2796 -0.0025  0.5309
  169SOPE   HN119018   4.880   3.138   5.875  2.0432  1.1060  1.1150
  169SOPE   HN219019   4.817   3.275   5.831 -0.7917  0.6965  1.0478
  169SOPE   HN319020   4.889   3.267   5.986  1.2163  0.0916 -0.7700
  169SOPE   C1219021   4.696   3.174   5.972  0.1649 -0.0682  0.2594
  169SOPE  H12A19022   4.629   3.148   5.887 -0.5605 -0.6845  1.0004
  169SOPE  H12B19023   4.650   3.264   6.018 -2.5175 -0.8497 -0.6626
  169SOPE   C1119024   4.725   3.060   6.062  0.4411 -0.9732 -0.3768
  169SOPE  H11A19025   4.776   2.975   6.012  1.4948 -0.0544 -0.8976
  169SOPE  H11B19026   4.625   3.026   6.099  0.6619 -1.3089 -0.0866
  169SOPE     P19027   4.832   3.021   6.302  0.5352 -0.1532 -0.0876
  169SOPE   O1319028   4.860   3.121   6.409 -0.0093 -0.4110  0.0629
  169SOPE   O1419029   4.938   2.920   6.278 -0.5068  0.0151  0.0315
  169SOPE   O1219030   4.806   3.100   6.174  0.5501 -0.5428 -0.0122
  169SOPE   O1119031   4.696   2.951   6.333  0.0704 -0.0069  0.0201
  169SOPE    C119032   4.573   3.013   6.365 -0.6040  0.4916 -0.3008
  169SOPE    HA19033   4.495   2.945   6.323  1.2479 -2.2669  0.4230
  169SOPE    HB19034   4.553   3.100   6.299 -2.3757  0.2146 -0.1998
  169SOPE    C219035   4.541   3.033   6.518  0.1474 -0.0650  0.6683
  169SOPE    HS19036   4.627   3.073   6.575  0.3335 -0.2611  0.5282
  169SOPE   O2119037   4.491   2.907   6.571 -0.3102  0.1881  0.0624
  169SOPE   C2119038   4.579   2.835   6.634 -0.3644 -0.1113  0.8120
  169SOPE   O2219039   4.692   2.874   6.664  0.2955  0.0158  0.1152
  169SOPE   C2219040   4.528   2.697   6.666 -0.6604  0.3502  0.7099
  169SOPE   H2R19041   4.610   2.626   6.643 -1.1147 -0.2214  0.8126
  169SOPE   H2S19042   4.443   2.661   6.604  1.9521 -3.7035 -0.9000
  169SOPE    C319043   4.443   3.151   6.534  0.1296  0.6593  0.4182
  169SOPE    HX19044   4.348   3.112   6.492 -0.0937 -1.1066  2.3586
  169SOPE    HY19045   4.467   3.241   6.474  0.5911 -0.6238 -1.4142
  169SOPE   O3119046   4.414   3.185   6.669 -0.0028  0.0583 -0.0721
  169SOPE   C3119047   4.514   3.245   6.738  0.2710 -0.1234 -0.3694
  169SOPE   O3219048   4.609   3.304   6.686 -0.6260 -0.1941 -0.2956
  169SOPE   C3219049   4.470   3.265   6.881 -0.1537 -0.1177  0.5597
  169SOPE   H2X19050   4.377   3.326   6.878  0.2489  0.5949  2.0529
  169SOPE   H2Y19051   4.544   3.337   6.920 -0.1345  0.6104 -0.7463
  169SOPE   C2319052   4.498   2.681   6.821  0.0289  0.4606  0.9200
  169SOPE   H3R19053   4.420   2.752   6.854 -0.6052  0.6198 -0.7991
  169SOPE   H3S19054   4.588   2.694   6.885 -0.4216 -1.5684  2.0766
  169SOPE   C2419055   4.449   2.536   6.849 -0.6012 -0.1928  0.4750
  169SOPE   H4R19056   4.407   2.497   6.754 -0.2766  0.0223  0.2415
  169SOPE   H4S19057   4.547   2.483   6.862  0.4324  1.0475 -1.7441
  169SOPE   C2519058   4.357   2.520   6.970 -1.0067  0.5509 -0.0896
  169SOPE   H5R19059   4.261   2.573   6.956 -2.1432 -1.7091 -1.3809
  169SOPE   H5S19060   4.335   2.412   6.981  0.3971  0.3135  0.6511
  169SOPE   C2619061   4.422   2.561   7.109 -0.5203 -0.2852  0.2498
  169SOPE   H6R19062   4.375   2.498   7.187 -2.0597  1.0046  0.4076
  169SOPE   H6S19063   4.533   2.548   7.108 -0.2188  1.7550 -1.8316
  169SOPE   C2719064   4.396   2.708   7.161 -0.3098 -0.1168  0.0643
  169SOPE   H7R19065   4.464   2.761   7.091  0.3210 -0.2960  0.5307
  169SOPE   H7S19066   4.294   2.743   7.135  0.1589 -0.3099 -2.2960
  169SOPE   C2819067   4.426   2.741   7.305  0.4533 -0.1856 -0.1945
  169SOPE   H8R19068   4.377   2.835   7.338 -0.2619 -0.9074  0.8453
  169SOPE   H8S19069   4.373   2.666   7.367  1.8432 -0.4549  0.7233
  169SOPE   C2919070   4.577   2.739   7.337 -0.6534 -0.3698 -0.2059
  169SOPE   H9119071   4.643   2.801   7.276 -0.6712 -1.2810 -1.1690
  169SOPE  C21019072   4.632   2.670   7.439  0.1460 -0.4674 -0.3395
  169SOPE  H10119073   4.742   2.667   7.445  0.3218 -0.4181 -2.5125
  169SOPE  C21119074   4.567   2.587   7.546  0.2513 -0.1606 -0.0752
  169SOPE  H11R19075   4.542   2.491   7.495 -1.3271  0.7854 -1.1690
  169SOPE  H11S19076   4.465   2.623   7.572 -0.4286 -3.0745  1.7338
  169SOPE  C21219077   4.649   2.552   7.668  0.1770 -0.2416  0.0460
  169SOPE  H12R19078   4.742   2.496   7.646  0.8766 -0.2603  2.7365
  169SOPE  H12S19079   4.588   2.488   7.735 -2.1603  0.9171 -0.8434
  169SOPE  C21319080   4.707   2.667   7.757 -0.0180 -0.6064 -0.7084
  169SOPE  H13R19081   4.615   2.716   7.796 -0.2134 -1.3785 -0.1817
  169SOPE  H13S19082   4.761   2.740   7.692 -1.3046  0.4883 -0.6045
  169SOPE  C21419083   4.795   2.618   7.872  0.2814 -0.0427  0.0906
  169SOPE  H14R19084   4.883   2.569   7.826  1.3001  2.7167 -1.1590
  169SOPE  H14S19085   4.739   2.545   7.934 -2.0822  1.5921  0.0363
  169SOPE  C21519086   4.831   2.729   7.971  0.3890 -0.2356 -1.0909
  169SOPE  H15R19087   4.740   2.769   8.021 -0.2660 -0.0654 -2.3514
  169SOPE  H15S19088   4.879   2.815   7.919  2.3580  0.9053  2.3426
  169SOPE  C21619089   4.917   2.681   8.088  0.0648  0.8004  0.3146
  169SOPE  H16R19090   5.001   2.626   8.041 -0.3452 -1.5253  2.1405
  169SOPE  H16S19091   4.851   2.619   8.152  1.9697  0.6803  2.2498
  169SOPE  C21719092   4.947   2.789   8.191 -0.1283  0.0289  0.2957
  169SOPE  H17R19093   4.850   2.825   8.231  0.1211 -0.3439  1.2702
  169SOPE  H17S19094   4.998   2.874   8.142  0.5622 -1.5906 -1.9629
  169SOPE  C21819095   5.039   2.750   8.307 -0.1034 -0.7889 -0.1123
  169SOPE  H18R19096   5.143   2.725   8.280  0.4019  0.8143  0.2774
  169SOPE  H18S19097   4.997   2.657   8.350  0.5120 -0.0341  2.2333
  169SOPE  H18T19098   5.042   2.825   8.388 -0.9352 -0.2123 -0.5977
  169SOPE   C3319099   4.452   3.135   6.960 -0.4758  0.6062 -0.1087
  169SOPE   H3X19100   4.375   3.071   6.912  0.9537 -0.5984 -0.8778
  169SOPE   H3Y19101   4.419   3.156   7.064 -2.4355  0.1622 -0.6024
  169SOPE   C3419102   4.583   3.051   6.976  0.1104  0.5042 -0.1268
  169SOPE   H4X19103   4.647   3.039   6.886  0.3604 -2.2509  0.3237
  169SOPE   H4Y19104   4.548   2.953   7.014  0.6435  0.8438  1.2837
  169SOPE   C3519105   4.682   3.098   7.090  0.5369  0.2428 -0.3734
  169SOPE   H5X19106   4.736   3.189   7.056  1.7644  0.1653  1.2270
  169SOPE   H5Y19107   4.762   3.022   7.098  0.1147  0.0059  3.2652
  169SOPE   C3619108   4.627   3.105   7.224  0.2386  0.1917 -0.7403
  169SOPE   H6X19109   4.566   3.014   7.239 -1.7994  1.7130  0.7590
  169SOPE   H6Y19110   4.561   3.194   7.223 -0.7791 -0.5356 -2.1493
  169SOPE   C3719111   4.743   3.125   7.320  0.3237  1.1835  0.7927
  169SOPE   H7X19112   4.802   3.217   7.302  1.2648  0.2596 -1.2044
  169SOPE   H7Y19113   4.816   3.042   7.310  0.2685  1.1833  0.3629
  169SOPE   C3819114   4.697   3.109   7.471  0.1610  0.1235 -0.0494
  169SOPE   H8X19115   4.626   3.188   7.502 -0.5830 -0.8588  0.8141
  169SOPE   H8Y19116   4.638   3.017   7.485  0.9557 -0.1482  1.7414
  169SOPE   C3919117   4.817   3.124   7.569 -0.2171  0.5775  0.4116
  169SOPE   H9X19118   4.889   3.196   7.526  0.3762 -0.8232 -1.0106
  169SOPE   H9Y19119   4.867   3.026   7.559 -0.1040  0.4701  1.7360
  169SOPE  C31019120   4.786   3.150   7.715 -0.2312  0.5066 -0.1805
  169SOPE  H10X19121   4.720   3.073   7.761  2.6419 -1.7013  0.5100
  169SOPE  H10Y19122   4.735   3.248   7.729 -0.9514  0.0351  0.5331
  169SOPE  C31119123   4.913   3.152   7.792 -0.1049  0.2305  0.2481
  169SOPE  H11X19124   4.989   3.215   7.741  0.0363  0.0863  0.2800
  169SOPE  H11Y19125   4.950   3.048   7.792  3.3340  1.3087 -0.9880
  169SOPE  C31219126   4.909   3.199   7.937  0.6080  0.1863  0.3164
  169SOPE  H12X19127   4.837   3.138   7.995 -0.4834  0.0499 -1.1178
  169SOPE  H12Y19128   4.857   3.296   7.922  0.8536  0.1032 -1.2399
  169SOPE  C31319129   5.049   3.214   7.992  0.1210 -0.1148 -0.6654
  169SOPE  H13X19130   5.107   3.272   7.917 -1.8636  2.5910 -0.2364
  169SOPE  H13Y19131   5.099   3.117   8.013 -0.2643 -0.2921 -0.5602
  169SOPE  C31419132   5.056   3.309   8.111  0.3972 -0.4801 -0.2263
  169SOPE  H14X19133   5.022   3.411   8.083  0.8008  0.0447  1.1201
  169SOPE  H14Y19134   5.163   3.303   8.140  0.3595 -1.0701 -0.2017
  169SOPE  C31519135   4.969   3.249   8.225  0.1638 -0.6296 -0.3091
  169SOPE  H15X19136   5.007   3.147   8.250 -2.2110 -1.4911  0.0726
  169SOPE  H15Y19137   4.862   3.239   8.196  0.0638 -1.9977  0.4372
  169SOPE  C31619138   4.981   3.344   8.339 -0.2745  0.2561  0.4410
  169SOPE  H16X19139   4.959   3.446   8.301  2.3881  0.0431 -2.0121
  169SOPE  H16Y19140   5.088   3.353   8.369 -0.6521  3.2563  1.1736
  169SOPE  C31719141   4.904   3.314   8.456 -0.4032  1.4203  0.3063
  169SOPE  H17X19142   4.912   3.205   8.474  1.7953  1.6837  1.2527
  169SOPE  H17Y19143   4.796   3.339   8.449 -1.0511 -0.8873  1.1036
  169SOPE  C31819144   4.961   3.378   8.586  0.5303 -0.2585  0.2726
  169SOPE  H18X19145   4.919   3.345   8.683 -1.1928 -0.5198 -0.5314
  169SOPE  H18Y19146   4.974   3.487   8.574  2.1344 -0.3980  0.4298
  169SOPE  H18Z19147   5.067   3.343   8.593  0.4694 -0.7173 -0.9002
  170SOPE     N19148   1.761   0.484   6.121  0.4854  0.4080  0.3002
  170SOPE   HN119149   1.787   0.455   6.024 -2.6097  0.9263 -0.7930
  170SOPE   HN219150   1.827   0.452   6.195  1.1748  1.5290  0.1878
  170SOPE   HN319151   1.669   0.440   6.139  1.2793 -1.5864 -0.2150
  170SOPE   C1219152   1.753   0.628   6.120 -0.0917 -0.8908  0.0068
  170SOPE  H12A19153   1.662   0.657   6.064  0.5180  1.6513  0.1954
  170SOPE  H12B19154   1.847   0.662   6.071 -0.1697  2.1874  1.7745
  170SOPE   C1119155   1.760   0.686   6.258 -0.4999 -0.0575 -0.3345
  170SOPE  H11A19156   1.692   0.641   6.333 -0.0314 -2.5178 -1.2799
  170SOPE  H11B19157   1.736   0.794   6.246 -1.2578  0.1117  2.1616
  170SOPE     P19158   1.991   0.761   6.361  0.2071 -0.1720  0.3447
  170SOPE   O1319159   1.970   0.879   6.274 -0.3951 -0.0067  0.1264
  170SOPE   O1419160   2.126   0.705   6.374  0.8072 -0.6187 -0.4434
  170SOPE   O1219161   1.888   0.663   6.310 -0.1294  0.2500  0.1893
  170SOPE   O1119162   1.924   0.787   6.502  0.2904  0.0360 -0.0131
  170SOPE    C119163   1.899   0.686   6.594  0.0599 -0.2489  0.0049
  170SOPE    HA19164   1.995   0.658   6.642 -1.1462  0.0239  2.7504
  170SOPE    HB19165   1.849   0.598   6.548 -1.2029  0.6893 -0.4867
  170SOPE    C219166   1.800   0.731   6.697  0.1471  0.0681 -0.3382
  170SOPE    HS19167   1.714   0.761   6.633  0.4434 -1.9717 -1.8117
  170SOPE   O2119168   1.853   0.845   6.769  0.1747 -0.1660 -0.1594
  170SOPE   C2119169   1.772   0.925   6.838  0.7198  0.9166  0.5851
  170SOPE   O2219170   1.649   0.920   6.821  0.0148  0.2281  0.1154
  170SOPE   C2219171   1.843   1.030   6.922  0.3259 -1.1553 -0.6040
  170SOPE   H2R19172   1.873   1.116   6.857  0.0580 -0.3397  0.3191
  170SOPE   H2S19173   1.936   0.991   6.968  0.6165  1.0356  0.8567
  170SOPE    C319174   1.760   0.618   6.785 -0.3302 -0.4413 -0.6057
  170SOPE    HX19175   1.850   0.604   6.847  0.0733  2.1711 -0.4835
  170SOPE    HY19176   1.733   0.526   6.729  0.8119 -2.3002  1.7505
  170SOPE   O3119177   1.649   0.652   6.859 -0.1999  0.1562 -0.4173
  170SOPE   C3119178   1.629   0.595   6.977 -0.2373 -0.3117 -0.4201
  170SOPE   O3219179   1.716   0.528   7.031  0.1947  0.2636 -0.1263
  170SOPE   C3219180   1.491   0.627   7.043 -0.0486  0.1138  0.2183
  170SOPE   H2X19181   1.416   0.553   7.008 -1.0879  1.2138  0.0528
  170SOPE   H2Y19182   1.460   0.729   7.014 -0.2690  0.1465  0.5613
  170SOPE   C2319183   1.745   1.104   7.024  0.2649  0.1947 -0.4383
  170SOPE   H3R19184   1.652   1.137   6.974  0.9673  0.6277 -1.4991
  170SOPE   H3S19185   1.812   1.186   7.058  0.7423 -0.7769  1.0426
  170SOPE   C2419186   1.715   1.016   7.147  0.2975  0.0454 -0.4597
  170SOPE   H4R19187   1.614   1.036   7.189  0.5994  0.9026 -0.1315
  170SOPE   H4S19188   1.731   0.910   7.116  1.5196 -0.6092  2.1735
  170SOPE   C2519189   1.806   1.032   7.267 -0.2841  0.8550 -0.0514
  170SOPE   H5R19190   1.907   1.005   7.229 -0.1049  1.8558 -0.3199
  170SOPE   H5S19191   1.831   1.135   7.300 -0.3407  0.3390  1.6851
  170SOPE   C2619192   1.755   0.965   7.391 -0.1503  0.4768 -0.2089
  170SOPE   H6R19193   1.655   0.998   7.428 -0.0051  0.1859  0.4517
  170SOPE   H6S19194   1.737   0.855   7.384  2.2382 -0.1571  2.0611
  170SOPE   C2719195   1.851   0.985   7.512  0.0721  0.0266  0.2383
  170SOPE   H7R19196   1.949   1.010   7.467  1.3112 -4.1356  0.2082
  170SOPE   H7S19197   1.805   1.066   7.572  2.1530  0.4060  1.3950
  170SOPE   C2819198   1.856   0.871   7.607 -0.2797 -0.1888 -0.2448
  170SOPE   H8R19199   1.899   0.900   7.705 -0.1535  0.3577 -0.4614
  170SOPE   H8S19200   1.755   0.832   7.631  0.2701 -0.7554  1.2734
  170SOPE   C2919201   1.939   0.767   7.539  0.2920  1.1702 -0.3443
  170SOPE   H9119202   1.891   0.728   7.449 -3.8695  1.3737  1.5227
  170SOPE  C21019203   2.054   0.717   7.583  0.3156 -0.4534 -0.6752
  170SOPE  H10119204   2.114   0.646   7.522  0.3474 -1.0884  0.0845
  170SOPE  C21119205   2.127   0.763   7.707 -1.0095 -0.0838 -1.0004
  170SOPE  H11R19206   2.099   0.868   7.730 -1.1486 -0.6432  1.7599
  170SOPE  H11S19207   2.238   0.757   7.699 -0.7642  0.1002  1.3866
  170SOPE  C21219208   2.086   0.690   7.846  0.0485  0.2900 -0.1509
  170SOPE  H12R19209   2.084   0.582   7.821  0.4011  0.4179 -0.7623
  170SOPE  H12S19210   1.986   0.730   7.870  0.1234 -0.5579  1.7421
  170SOPE  C21319211   2.167   0.734   7.974 -0.5103  0.9488 -0.7524
  170SOPE  H13R19212   2.156   0.843   7.958  0.4603  1.7468  3.0883
  170SOPE  H13S19213   2.275   0.707   7.967 -0.1027  2.0097  0.8810
  170SOPE  C21419214   2.115   0.703   8.115 -0.0029  0.3840 -0.1678
  170SOPE  H14R19215   2.182   0.754   8.188  0.6287  0.6925 -0.9456
  170SOPE  H14S19216   2.125   0.592   8.121 -1.9841  0.2287  1.0878
  170SOPE  C21519217   1.970   0.727   8.136 -0.9890 -0.3346 -0.3385
  170SOPE  H15R19218   1.910   0.665   8.065  0.7429 -2.8259  0.2371
  170SOPE  H15S19219   1.955   0.836   8.120 -0.5565 -0.3432 -0.8367
  170SOPE  C21619220   1.931   0.701   8.281  0.6701  0.1194  0.5144
  170SOPE  H16R19221   1.826   0.734   8.297  0.2713  0.4334 -2.2680
  170SOPE  H16S19222   1.998   0.764   8.344 -1.2816  1.8319  0.9756
  170SOPE  C21719223   1.947   0.552   8.314  0.1772 -0.5041  1.1886
  170SOPE  H17R19224   2.049   0.508   8.319  0.0856 -0.6825  1.5728
  170SOPE  H17S19225   1.897   0.489   8.237  0.5115 -0.9125  1.3014
  170SOPE  C21819226   1.867   0.512   8.441 -0.1050 -0.2631  0.6636
  170SOPE  H18R19227   1.761   0.540   8.422  0.3713  1.1378 -0.1617
  170SOPE  H18S19228   1.899   0.583   8.520 -3.3351  1.9496  0.1955
  170SOPE  H18T19229   1.875   0.407   8.473  2.9693 -0.2155  0.3755
  170SOPE   C3319230   1.491   0.632   7.204 -0.4150  0.3198  0.5763
  170SOPE   H3X19231   1.579   0.693   7.234  0.6721 -0.9378  0.0504
  170SOPE   H3Y19232   1.514   0.533   7.248 -2.7040  0.7186  2.9056
  170SOPE   C3419233   1.355   0.681   7.260  0.1491 -0.3537  0.3518
  170SOPE   H4X19234   1.265   0.622   7.234 -0.4324 -0.7561  2.9363
  170SOPE   H4Y19235   1.354   0.780   7.209  0.5827 -0.4864  0.0796
  170SOPE   C3519236   1.366   0.708   7.414  0.7980  0.2448 -0.2213
  170SOPE   H5X19237   1.439   0.788   7.436 -0.2098  0.7555  1.4694
  170SOPE   H5Y19238   1.366   0.621   7.483 -1.6916 -0.1641 -0.6410
  170SOPE   C3619239   1.242   0.774   7.467  0.2959 -0.4770 -0.4312
  170SOPE   H6X19240   1.155   0.708   7.486 -1.0898  1.5996  1.0190
  170SOPE   H6Y19241   1.204   0.852   7.397 -2.1990  1.0517  2.3356
  170SOPE   C3719242   1.283   0.856   7.592 -0.4014  0.4041  0.3376
  170SOPE   H7X19243   1.192   0.915   7.617 -1.2842 -0.9510  0.4542
  170SOPE   H7Y19244   1.357   0.933   7.562 -0.1528  1.1855  2.7639
  170SOPE   C3819245   1.341   0.771   7.700  0.2745  0.0809 -0.5284
  170SOPE   H8X19246   1.447   0.739   7.696 -0.0084 -1.7490  2.6325
  170SOPE   H8Y19247   1.288   0.673   7.711 -1.6666  1.1344  0.0312
  170SOPE   C3919248   1.330   0.851   7.831  0.4426 -0.1763 -0.4765
  170SOPE   H9X19249   1.224   0.875   7.855  0.5832 -0.1382  0.1357
  170SOPE   H9Y19250   1.384   0.947   7.816  2.9421 -1.3559  0.4950
  170SOPE  C31019251   1.390   0.783   7.960 -0.0048  0.1732  0.6315
  170SOPE  H10X19252   1.497   0.764   7.938 -0.3090 -0.7412 -0.1538
  170SOPE  H10Y19253   1.347   0.680   7.961 -0.3993  0.3305  1.9274
  170SOPE  C31119254   1.352   0.843   8.096  0.1061 -0.6015 -0.6270
  170SOPE  H11X19255   1.391   0.944   8.120  0.8685 -0.9456 -0.3855
  170SOPE  H11Y19256   1.402   0.784   8.175  0.7128  2.2953  1.2945
  170SOPE  C31219257   1.201   0.842   8.117  0.0165 -0.1621 -0.6323
  170SOPE  H12X19258   1.157   0.746   8.084 -3.2962  1.4303 -1.2236
  170SOPE  H12Y19259   1.161   0.922   8.051 -0.3895  0.2520  0.0930
  170SOPE  C31319260   1.164   0.861   8.263 -0.1917  0.6226  0.1325
  170SOPE  H13X19261   1.062   0.904   8.255 -0.0020  0.9511 -0.5797
  170SOPE  H13Y19262   1.235   0.929   8.315  0.5923  0.4151 -0.6461
  170SOPE  C31419263   1.166   0.736   8.349  0.0369 -0.1036  0.3844
  170SOPE  H14X19264   1.259   0.681   8.322  0.9578  1.5861 -0.0417
  170SOPE  H14Y19265   1.079   0.673   8.323 -1.7843  2.3397  0.2465
  170SOPE  C31519266   1.180   0.759   8.506  0.1641 -0.1495  0.1722
  170SOPE  H15X19267   1.269   0.824   8.523  0.7963 -0.9759  0.0653
  170SOPE  H15Y19268   1.210   0.663   8.553  0.4445  0.5193  1.4278
  170SOPE  C31619269   1.056   0.828   8.569 -0.2149  0.3712  0.8433
  170SOPE  H16X19270   0.974   0.754   8.581 -0.6245  0.9645  1.7502
  170SOPE  H16Y19271   1.021   0.907   8.498  1.9678  0.7722  0.1273
  170SOPE  C31719272   1.076   0.910   8.696 -0.4811  0.2304 -0.1102
  170SOPE  H17X19273   0.980   0.965   8.711  0.2535  1.3272  0.7260
  170SOPE  H17Y19274   1.169   0.969   8.684 -0.0363 -0.4610 -0.1244
  170SOPE  C31819275   1.089   0.821   8.822  0.6881 -0.2800  0.1435
  170SOPE  H18X19276   1.132   0.727   8.782 -2.1562 -1.0235 -1.4079
  170SOPE  H18Y19277   0.984   0.805   8.855  0.5539  0.1306 -0.0883
  170SOPE  H18Z19278   1.153   0.883   8.889  1.5258  2.5814 -3.0370
  171SOPE     N19279   5.767   1.417   6.186 -0.0929  0.1220  0.0005
  171SOPE   HN119280   5.734   1.466   6.100  1.2388 -0.7557 -1.0495
  171SOPE   HN219281   5.815   1.333   6.146 -0.8034 -0.5068  0.4445
  171SOPE   HN319282   5.687   1.393   6.248 -1.6198  2.0320 -1.0902
  171SOPE   C1219283   5.857   1.505   6.261  0.3753 -0.1202 -0.1249
  171SOPE  H12A19284   5.877   1.448   6.355  0.5612  2.0436  1.2227
  171SOPE  H12B19285   5.805   1.595   6.300 -0.0121 -1.0582  1.6644
  171SOPE   C1119286   5.983   1.543   6.189  0.5542  0.3325  0.3308
  171SOPE  H11A19287   6.055   1.603   6.249 -1.3433 -0.0768  3.1992
  171SOPE  H11B19288   5.952   1.602   6.100  1.8467 -1.3065 -1.3032
  171SOPE     P19289   6.189   1.382   6.197 -0.2100 -0.5011  0.4503
  171SOPE   O1319290   6.284   1.495   6.186  0.2548  0.1421 -0.0889
  171SOPE   O1419291   6.236   1.261   6.128  0.1826  0.8322 -0.4655
  171SOPE   O1219292   6.044   1.427   6.140 -0.8124  0.1535 -0.5794
  171SOPE   O1119293   6.158   1.364   6.348 -0.7972  0.5896 -0.1848
  171SOPE    C119294   6.117   1.234   6.400 -0.3271  0.0047  0.4005
  171SOPE    HA19295   6.194   1.155   6.384  1.3216  1.6417 -0.1001
  171SOPE    HB19296   6.028   1.196   6.346  0.0517  0.5882 -0.6906
  171SOPE    C219297   6.098   1.237   6.549  0.0651  0.1882 -0.4614
  171SOPE    HS19298   6.072   1.136   6.586  1.3825 -0.0175 -0.0399
  171SOPE   O2119299   5.996   1.342   6.577  0.3975 -0.1833  0.1786
  171SOPE   C2119300   5.903   1.303   6.664 -0.3696 -0.5721 -0.1118
  171SOPE   O2219301   5.893   1.194   6.712  0.1723  0.4832 -0.2571
  171SOPE   C2219302   5.812   1.427   6.697 -0.7802  0.2353 -1.0553
  171SOPE   H2R19303   5.704   1.417   6.673 -1.6049  1.2828  1.7871
  171SOPE   H2S19304   5.855   1.515   6.645 -1.3038 -0.8402 -3.4442
  171SOPE    C319305   6.234   1.269   6.609  0.6420 -0.4004 -0.0127
  171SOPE    HX19306   6.273   1.362   6.562  0.3562  0.4872  1.4486
  171SOPE    HY19307   6.314   1.196   6.583  0.5123 -0.3331 -0.6154
  171SOPE   O3119308   6.225   1.284   6.749 -0.2732  0.0639  0.0228
  171SOPE   C3119309   6.231   1.407   6.800  0.5516  0.9463  0.0615
  171SOPE   O3219310   6.231   1.511   6.739 -0.6534  0.4473 -0.3786
  171SOPE   C3219311   6.232   1.394   6.950  0.0903  0.3304  0.1271
  171SOPE   H2X19312   6.169   1.478   6.985 -1.3194 -0.3379 -0.7319
  171SOPE   H2Y19313   6.334   1.397   6.994  0.9101  0.2158 -1.6944
  171SOPE   C2319314   5.833   1.472   6.848 -0.0192 -0.4118  0.2807
  171SOPE   H3R19315   5.761   1.555   6.864 -0.7738 -0.3007 -2.9988
  171SOPE   H3S19316   5.937   1.513   6.853  0.2857 -1.1554  0.1180
  171SOPE   C2419317   5.790   1.367   6.950 -0.1593 -0.0029  0.1523
  171SOPE   H4R19318   5.689   1.341   6.911 -0.1674 -1.1671  0.9083
  171SOPE   H4S19319   5.846   1.271   6.948  0.5588  0.4212 -0.7770
  171SOPE   C2519320   5.778   1.413   7.093  0.6451 -0.3833 -1.1473
  171SOPE   H5R19321   5.881   1.406   7.135 -0.1039 -0.8729  0.7053
  171SOPE   H5S19322   5.750   1.520   7.094  0.0955 -0.5271 -0.9567
  171SOPE   C2619323   5.687   1.333   7.190  0.0957  0.1239 -0.1549
  171SOPE   H6R19324   5.587   1.332   7.141  0.8842  0.9960 -1.9007
  171SOPE   H6S19325   5.715   1.226   7.187 -2.1109 -0.4957 -1.6848
  171SOPE   C2719326   5.687   1.396   7.326 -0.7563 -0.5876  0.8102
  171SOPE   H7R19327   5.788   1.412   7.371  0.4484  2.0819 -2.3987
  171SOPE   H7S19328   5.629   1.490   7.329 -2.4537 -1.5426 -0.1299
  171SOPE   C2819329   5.616   1.306   7.427  0.3754 -0.0763 -0.0107
  171SOPE   H8R19330   5.521   1.290   7.371  0.6960 -2.4737  0.0313
  171SOPE   H8S19331   5.649   1.201   7.439 -1.3729 -0.3257  4.3023
  171SOPE   C2919332   5.604   1.369   7.558 -0.4588  0.3993 -0.4999
  171SOPE   H9119333   5.700   1.404   7.598 -0.9840  0.7290  0.4990
  171SOPE  C21019334   5.489   1.401   7.631  0.1460 -0.2829 -0.5069
  171SOPE  H10119335   5.499   1.451   7.728  1.3106 -4.4249  1.7786
  171SOPE  C21119336   5.350   1.364   7.586 -0.6698 -0.3045  0.7771
  171SOPE  H11R19337   5.302   1.316   7.674 -0.1505 -2.0094  0.1661
  171SOPE  H11S19338   5.343   1.297   7.498  0.0746  2.1391 -1.2692
  171SOPE  C21219339   5.261   1.481   7.541  0.8316  0.8970 -0.2566
  171SOPE  H12R19340   5.267   1.555   7.624 -0.0113  1.7741 -0.9481
  171SOPE  H12S19341   5.156   1.448   7.524  0.7374  0.7424  0.5876
  171SOPE  C21319342   5.308   1.544   7.412 -0.1912  0.8052 -0.2145
  171SOPE  H13R19343   5.413   1.582   7.410  1.3983 -3.1042  0.4856
  171SOPE  H13S19344   5.249   1.637   7.394 -2.3459 -0.4553  0.0600
  171SOPE  C21419345   5.291   1.470   7.283 -0.7706  0.1435  0.1397
  171SOPE  H14R19346   5.201   1.406   7.289  0.0478 -1.0869 -0.3345
  171SOPE  H14S19347   5.373   1.396   7.268 -1.4994 -0.1819 -3.0104
  171SOPE  C21519348   5.291   1.559   7.155 -0.8775 -0.5171 -0.1864
  171SOPE  H15R19349   5.377   1.628   7.157 -2.3389  1.5720 -2.8804
  171SOPE  H15S19350   5.205   1.627   7.174 -0.2315  0.2023  0.2268
  171SOPE  C21619351   5.279   1.484   7.029  0.3810 -0.4817  0.3070
  171SOPE  H16R19352   5.203   1.405   7.048  1.7704 -1.7143  0.9473
  171SOPE  H16S19353   5.376   1.440   6.997  1.0997  0.6763  0.8338
  171SOPE  C21719354   5.238   1.570   6.901  0.0277  0.3343  0.2860
  171SOPE  H17R19355   5.272   1.671   6.930  0.3429 -0.3241  2.3472
  171SOPE  H17S19356   5.128   1.568   6.890 -0.1470  1.7782  1.5560
  171SOPE  C21819357   5.308   1.522   6.770  0.3971 -0.3180 -0.1569
  171SOPE  H18R19358   5.416   1.505   6.787  0.3652 -0.6372 -0.2649
  171SOPE  H18S19359   5.288   1.598   6.692  0.0336 -0.6474 -0.3863
  171SOPE  H18T19360   5.254   1.434   6.730 -1.7092  0.2297  1.2817
  171SOPE   C3319361   6.183   1.256   6.999 -0.4790  0.0910 -0.2680
  171SOPE   H3X19362   6.256   1.174   6.980  1.1922  1.1717  1.1337
  171SOPE   H3Y19363   6.090   1.221   6.951  0.1592 -3.1892  0.6249
  171SOPE   C3419364   6.165   1.246   7.150 -0.5110 -0.4817  0.3195
  171SOPE   H4X19365   6.141   1.350   7.179 -0.8232 -0.4315 -0.1120
  171SOPE   H4Y19366   6.261   1.218   7.198  1.2073 -0.2480 -2.7670
  171SOPE   C3519367   6.053   1.151   7.191  0.5995  0.3193  0.3470
  171SOPE   H5X19368   6.047   1.063   7.124  0.3098 -0.0914  0.9041
  171SOPE   H5Y19369   5.952   1.199   7.192 -1.4388 -3.5602 -0.4297
  171SOPE   C3619370   6.076   1.097   7.333  0.8355 -0.8118  0.4049
  171SOPE   H6X19371   6.179   1.055   7.324  0.4654 -1.4088 -1.2306
  171SOPE   H6Y19372   5.994   1.026   7.356 -1.6773  2.1514  1.1688
  171SOPE   C3719373   6.084   1.205   7.449 -0.2630  0.4520 -0.2142
  171SOPE   H7X19374   5.991   1.260   7.475  0.9194  1.4726  2.2344
  171SOPE   H7Y19375   6.165   1.279   7.432  1.1388  0.1703  4.0171
  171SOPE   C3819376   6.124   1.136   7.587 -0.1309 -0.4613  0.5283
  171SOPE   H8X19377   6.159   1.223   7.647  1.7599 -0.8056  0.0153
  171SOPE   H8Y19378   6.216   1.074   7.575 -1.1975 -1.7119 -1.6613
  171SOPE   C3919379   6.008   1.067   7.665 -0.4058  0.5844  0.0582
  171SOPE   H9X19380   5.958   1.006   7.587 -1.6980  3.0774 -1.1616
  171SOPE   H9Y19381   5.943   1.150   7.701 -0.7411  1.1461 -1.7670
  171SOPE  C31019382   6.049   0.973   7.787  0.9715 -0.4531 -0.1553
  171SOPE  H10X19383   6.160   0.965   7.796  1.0144 -0.8314 -0.9575
  171SOPE  H10Y19384   6.015   0.871   7.759 -1.2823 -0.2578  1.5616
  171SOPE  C31119385   5.975   1.022   7.914 -0.8339 -0.1154  0.2840
  171SOPE  H11X19386   5.868   1.036   7.888 -0.8536  1.4879  1.1372
  171SOPE  H11Y19387   6.016   1.118   7.953  1.1223 -1.7652  2.6068
  171SOPE  C31219388   5.983   0.924   8.037 -0.2471  0.3225 -0.1006
  171SOPE  H12X19389   6.086   0.936   8.078 -0.6958  0.3441  1.0512
  171SOPE  H12Y19390   5.978   0.817   8.007 -2.0750  0.2737  0.2775
  171SOPE  C31319391   5.889   0.963   8.148  0.1866 -0.3556 -0.0544
  171SOPE  H13X19392   5.880   0.877   8.217  1.5058 -1.3497 -1.0589
  171SOPE  H13Y19393   5.787   0.985   8.109 -0.1449 -1.6696  0.0229
  171SOPE  C31419394   5.917   1.093   8.219  0.0335 -0.0698 -0.7401
  171SOPE  H14X19395   5.897   1.182   8.156  0.3718  0.2313 -0.4267
  171SOPE  H14Y19396   6.026   1.088   8.240 -0.5669 -0.0362  3.2323
  171SOPE  C31519397   5.847   1.105   8.354 -0.0556 -0.1115 -0.2719
  171SOPE  H15X19398   5.829   1.208   8.391 -0.5511  0.4120 -1.8747
  171SOPE  H15Y19399   5.920   1.058   8.424  2.1046 -0.2605 -2.4871
  171SOPE  C31619400   5.706   1.039   8.377 -0.3552  0.7070  0.2541
  171SOPE  H16X19401   5.708   0.928   8.373 -0.9614  0.6938  0.2883
  171SOPE  H16Y19402   5.646   1.080   8.293 -3.5520 -0.0675  1.9711
  171SOPE  C31719403   5.642   1.076   8.513 -0.1228  0.6938  0.5516
  171SOPE  H17X19404   5.650   1.187   8.517 -2.1610  0.8881  0.5973
  171SOPE  H17Y19405   5.704   1.027   8.591 -2.1262 -0.7821  1.3106
  171SOPE  C31819406   5.494   1.046   8.519 -0.2699  0.1404  0.0138
  171SOPE  H18X19407   5.476   1.054   8.628 -1.5392  2.0413 -0.2880
  171SOPE  H18Y19408   5.469   0.951   8.467  0.3327  0.8517 -1.6658
  171SOPE  H18Z19409   5.428   1.128   8.482 -2.0227 -0.0326  2.5441
  172SOPE     N19410   5.511   4.010   6.372 -0.1093  0.1731  0.7084
  172SOPE   HN119411   5.438   3.940   6.398 -0.8416  1.4338  2.1770
  172SOPE   HN219412   5.464   4.102   6.361 -0.7574 -0.1681  0.5366
  172SOPE   HN319413   5.564   3.978   6.288  0.2239  0.9928  0.5962
  172SOPE   C1219414   5.620   4.024   6.482 -0.1451  0.5434 -0.2621
  172SOPE  H12A19415   5.710   3.980   6.434 -1.0830 -0.6067 -1.0299
  172SOPE  H12B19416   5.586   3.963   6.568 -2.6924  1.7915 -0.2895
  172SOPE   C1119417   5.635   4.170   6.533  0.0394  0.1728 -0.4072
  172SOPE  H11A19418   5.675   4.243   6.459  0.9799  2.2705  2.0257
  172SOPE  H11B19419   5.715   4.170   6.610  0.4682  0.3709 -0.8467
  172SOPE     P19420   5.409   4.319   6.513  0.1736  0.3599  0.0946
  172SOPE   O1319421   5.376   4.252   6.387  0.4203 -0.1184  0.7350
  172SOPE   O1419422   5.476   4.448   6.493 -0.4103  0.2935 -0.0358
  172SOPE   O1219423   5.512   4.221   6.590 -0.2352  0.2877  0.5869
  172SOPE   O1119424   5.285   4.331   6.602  0.7055  0.3704 -0.4008
  172SOPE    C119425   5.281   4.276   6.734  0.2228  0.1830  0.5028
  172SOPE    HA19426   5.243   4.360   6.796 -0.0049  1.7467 -1.6812
  172SOPE    HB19427   5.379   4.238   6.773  0.2114 -0.2785  0.0945
  172SOPE    C219428   5.174   4.160   6.732  0.1919 -0.0997  0.7773
  172SOPE    HS19429   5.084   4.200   6.681  0.6853 -1.4599 -1.3295
  172SOPE   O2119430   5.144   4.126   6.870 -0.1235  0.2814 -0.5670
  172SOPE   C2119431   5.053   4.044   6.901  0.0054  0.3626 -0.0028
  172SOPE   O2219432   4.975   3.995   6.821  0.0980  0.3899 -0.7705
  172SOPE   C2219433   5.065   4.009   7.051 -0.0905 -0.3197 -0.1142
  172SOPE   H2R19434   5.156   3.948   7.072  0.5147  0.9750  1.1956
  172SOPE   H2S19435   4.982   3.941   7.081 -1.0500  0.9360  0.1637
  172SOPE    C319436   5.212   4.035   6.643 -0.3884  0.1043 -0.0940
  172SOPE    HX19437   5.242   4.067   6.541 -0.7157  1.5105  0.2320
  172SOPE    HY19438   5.131   3.961   6.625  0.7884 -1.0921 -0.5863
  172SOPE   O3119439   5.332   3.972   6.704  0.2603  0.4274  0.0634
  172SOPE   C3119440   5.319   3.863   6.779  0.5842  0.0633  0.5927
  172SOPE   O3219441   5.222   3.783   6.779  0.0111  0.9805  0.1812
  172SOPE   C3219442   5.444   3.852   6.868  0.2292 -0.1156  0.0493
  172SOPE   H2X19443   5.530   3.892   6.811  1.6316 -2.4160  0.4555
  172SOPE   H2Y19444   5.469   3.744   6.866  0.5879 -0.1115 -4.0782
  172SOPE   C2319445   5.052   4.137   7.143 -0.1204  0.4183 -0.7547
  172SOPE   H3R19446   4.967   4.203   7.112 -1.5066 -0.5797  0.7525
  172SOPE   H3S19447   5.142   4.201   7.150  0.1056 -0.0812  1.8309
  172SOPE   C2419448   5.027   4.091   7.284 -0.0481  0.1504  0.2447
  172SOPE   H4R19449   4.922   4.056   7.293 -0.5677  1.3353 -0.8282
  172SOPE   H4S19450   5.097   4.008   7.307 -2.1932 -1.3707  1.5800
  172SOPE   C2519451   5.050   4.205   7.385  0.4819  0.3961  0.4557
  172SOPE   H5R19452   5.150   4.251   7.375  0.8083 -0.2539  0.6984
  172SOPE   H5S19453   4.977   4.283   7.354 -0.7763 -0.2441  1.6592
  172SOPE   C2619454   5.024   4.156   7.526  0.1055  0.9395  0.0224
  172SOPE   H6R19455   4.915   4.142   7.546  0.8002 -0.4892  3.6581
  172SOPE   H6S19456   5.066   4.055   7.544 -1.7634  0.2789  1.0301
  172SOPE   C2719457   5.078   4.259   7.628 -0.0178 -0.1395 -0.1938
  172SOPE   H7R19458   5.186   4.266   7.604 -0.2757  0.3328 -1.2659
  172SOPE   H7S19459   5.036   4.360   7.611  1.6928  0.9211  1.4648
  172SOPE   C2819460   5.065   4.243   7.776  0.1460 -0.1724 -0.5202
  172SOPE   H8R19461   4.962   4.247   7.816  0.4300  1.4321  0.1689
  172SOPE   H8S19462   5.094   4.140   7.804  0.0116 -0.2492 -0.6682
  172SOPE   C2919463   5.162   4.335   7.849 -0.7805  0.8590  0.1695
  172SOPE   H9119464   5.248   4.376   7.794 -0.0366  0.1560  0.7945
  172SOPE  C21019465   5.149   4.374   7.981 -0.0647  0.2525  1.4727
  172SOPE  H10119466   5.210   4.457   8.021 -0.1527  1.2196 -0.2762
  172SOPE  C21119467   5.036   4.334   8.071 -0.0745  0.1849 -0.0555
  172SOPE  H11R19468   4.958   4.282   8.012  0.9862 -0.8791 -0.5498
  172SOPE  H11S19469   4.975   4.411   8.124 -1.2432 -0.9468  0.2685
  172SOPE  C21219470   5.079   4.225   8.176 -0.0890 -0.3165  0.2849
  172SOPE  H12R19471   5.120   4.142   8.114 -3.1311  0.0181 -2.4581
  172SOPE  H12S19472   4.997   4.194   8.244 -1.1388  0.5629 -0.5497
  172SOPE  C21319473   5.185   4.276   8.270  0.2115 -0.0709  0.1265
  172SOPE  H13R19474   5.284   4.290   8.223 -0.0310 -0.1423 -0.4127
  172SOPE  H13S19475   5.199   4.189   8.337 -0.5643  0.7740  1.4535
  172SOPE  C21419476   5.144   4.398   8.350  0.0982  0.1977  0.0481
  172SOPE  H14R19477   5.047   4.377   8.400  0.0971 -2.1061 -0.8064
  172SOPE  H14S19478   5.129   4.480   8.277  0.0917 -1.3176 -1.7225
  172SOPE  C21519479   5.241   4.448   8.457 -0.2542 -0.0760  0.2100
  172SOPE  H15R19480   5.190   4.521   8.523  1.1269 -0.3105  1.6133
  172SOPE  H15S19481   5.331   4.502   8.421 -1.4352  0.0230 -2.8386
  172SOPE  C21619482   5.295   4.334   8.544 -0.1961  0.1031  0.2617
  172SOPE  H16R19483   5.216   4.256   8.553 -1.5648  1.2895 -1.1043
  172SOPE  H16S19484   5.310   4.377   8.646 -0.8719  0.1085  0.3623
  172SOPE  C21719485   5.431   4.275   8.490  0.8415 -0.4575 -0.6005
  172SOPE  H17R19486   5.512   4.346   8.516 -1.3213  1.6514  0.9063
  172SOPE  H17S19487   5.429   4.266   8.379  0.2003 -1.0011 -0.5511
  172SOPE  C21819488   5.438   4.127   8.532  0.3001 -0.4507 -0.1449
  172SOPE  H18R19489   5.341   4.076   8.518 -0.5568  0.5579  1.7131
  172SOPE  H18S19490   5.443   4.118   8.643 -3.9751 -1.0171  0.1622
  172SOPE  H18T19491   5.528   4.078   8.489  0.7884 -1.7843  2.2143
  172SOPE   C3319492   5.429   3.911   7.003 -0.0675 -0.5656 -0.5257
  172SOPE   H3X19493   5.418   3.829   7.076  2.3266  0.5346  1.2270
  172SOPE   H3Y19494   5.336   3.970   7.011  0.4214  0.0350  1.1511
  172SOPE   C3419495   5.540   4.013   7.042  0.4282 -0.1088  0.0553
  172SOPE   H4X19496   5.552   4.101   6.975 -0.4238 -0.1388 -0.1362
  172SOPE   H4Y19497   5.633   3.952   7.032  0.8360  0.2795  1.2007
  172SOPE   C3519498   5.532   4.047   7.191 -0.5696 -0.5184 -0.9706
  172SOPE   H5X19499   5.633   4.083   7.221 -0.4209 -1.8532  0.2585
  172SOPE   H5Y19500   5.517   3.959   7.257  2.1251 -0.0955  0.3357
  172SOPE   C3619501   5.448   4.169   7.218  0.7388 -0.4626 -0.0709
  172SOPE   H6X19502   5.341   4.147   7.198 -0.3408  2.3264  1.9492
  172SOPE   H6Y19503   5.469   4.247   7.141 -2.9352  4.0816  2.9744
  172SOPE   C3719504   5.466   4.218   7.360  0.4764  0.6702 -0.3249
  172SOPE   H7X19505   5.393   4.299   7.382 -0.6671 -0.5127  0.3576
  172SOPE   H7Y19506   5.570   4.255   7.369 -0.2148  2.6311  0.1110
  172SOPE   C3819507   5.453   4.113   7.465  0.0188  0.6762 -1.0518
  172SOPE   H8X19508   5.509   4.019   7.444 -1.7638 -0.5487 -0.5029
  172SOPE   H8Y19509   5.349   4.076   7.472  1.1924 -3.4010 -2.3056
  172SOPE   C3919510   5.506   4.149   7.603  0.4445 -0.9077 -0.3992
  172SOPE   H9X19511   5.497   4.258   7.624  2.2615 -1.1147  1.7139
  172SOPE   H9Y19512   5.615   4.131   7.612  0.6050  0.9465  2.9549
  172SOPE  C31019513   5.443   4.073   7.722  0.9278 -0.3555 -0.4580
  172SOPE  H10X19514   5.464   3.964   7.722 -2.5546 -1.1685  0.9601
  172SOPE  H10Y19515   5.334   4.093   7.730  1.4005  1.9365  1.2499
  172SOPE  C31119516   5.499   4.118   7.851 -0.8213  0.7546 -1.3054
  172SOPE  H11X19517   5.488   4.227   7.874  0.8374  0.5696  0.7397
  172SOPE  H11Y19518   5.605   4.085   7.856 -1.1562 -0.6905 -2.8392
  172SOPE  C31219519   5.430   4.041   7.970 -0.6389 -0.9416  0.4113
  172SOPE  H12X19520   5.452   3.932   7.960  1.1432 -0.6253  0.4862
  172SOPE  H12Y19521   5.320   4.055   7.959 -0.7422 -0.2666  2.0117
  172SOPE  C31319522   5.449   4.089   8.116 -1.0041 -0.3390  0.4718
  172SOPE  H13X19523   5.367   4.068   8.189 -1.8230 -0.0566 -0.3536
  172SOPE  H13Y19524   5.470   4.196   8.099 -0.2714 -0.9979 -3.6448
  172SOPE  C31419525   5.583   4.031   8.175  0.1233 -0.3166 -0.0037
  172SOPE  H14X19526   5.601   4.094   8.264  1.7277  0.9794 -1.1691
  172SOPE  H14Y19527   5.658   4.056   8.096 -1.0945  0.8927 -0.8351
  172SOPE  C31519528   5.577   3.878   8.205  0.1347  0.0078  0.2782
  172SOPE  H15X19529   5.540   3.834   8.111 -0.7672 -0.0124  0.6283
  172SOPE  H15Y19530   5.504   3.857   8.286 -0.3915 -0.5463 -0.3352
  172SOPE  C31619531   5.711   3.831   8.256  0.7016 -0.1108  0.3522
  172SOPE  H16X19532   5.787   3.864   8.182  1.3806 -1.7045  0.2987
  172SOPE  H16Y19533   5.699   3.721   8.246 -2.0199  0.1460 -0.0128
  172SOPE  C31719534   5.740   3.865   8.403  0.1654  0.4176 -0.1245
  172SOPE  H17X19535   5.649   3.832   8.458 -1.7318  2.3263 -1.9385
  172SOPE  H17Y19536   5.749   3.975   8.417 -1.4882  0.4793  0.6357
  172SOPE  C31819537   5.868   3.799   8.438 -0.0411  0.0606  0.6157
  172SOPE  H18X19538   5.899   3.807   8.545 -5.1438 -0.1994  2.4046
  172SOPE  H18Y19539   5.942   3.836   8.364 -1.6902 -1.2778 -1.8213
  172SOPE  H18Z19540   5.868   3.689   8.423  1.5220 -0.0955  1.5036
  173SAPI   C1219541   1.149   4.326  10.627  0.2899  0.1896  0.3525
  173SAPI    H219542   1.103   4.269  10.544 -3.5578  1.9190  1.0557
  173SAPI    O219543   1.283   4.278  10.650  0.4315 -0.0847  0.6091
  173SAPI   HO219544   1.304   4.218  10.579 -0.9064  1.3401 -1.0793
  173SAPI   C1319545   1.168   4.472  10.591 -0.0449  0.9427 -1.3297
  173SAPI    H319546   1.064   4.501  10.564 -0.4799  0.8841  0.2131
  173SAPI    O319547   1.256   4.496  10.479  0.3554  0.0195  0.2674
  173SAPI   HO319548   1.328   4.435  10.492  2.7233  2.5774  0.0498
  173SAPI   C1419549   1.204   4.545  10.714 -0.3065  0.3764 -0.2018
  173SAPI    H419550   1.304   4.514  10.751 -0.1017  0.0038 -1.0407
  173SAPI    O419551   1.200   4.684  10.686 -0.4719 -0.1229 -0.2808
  173SAPI   HO419552   1.280   4.709  10.638 -0.5349 -0.8462 -0.7733
  173SAPI   C1519553   1.112   4.520  10.831 -0.1671 -0.6139  0.6449
  173SAPI    H519554   1.009   4.548  10.801 -1.4621 -4.5909  0.8387
  173SAPI    O519555   1.155   4.592  10.948  0.3521 -0.1074 -0.7368
  173SAPI   HO519556   1.079   4.643  10.978 -0.8738 -2.2147 -0.0090
  173SAPI   C1619557   1.092   4.374  10.865 -0.2330 -0.3263  0.2531
  173SAPI    H619558   1.190   4.332  10.896 -0.3490 -0.9480 -0.2106
  173SAPI    O619559   0.999   4.360  10.974  0.4350  0.3087 -0.6231
  173SAPI   HO619560   0.948   4.281  10.957  3.7503 -2.4096  0.8517
  173SAPI   C1119561   1.053   4.299  10.744  0.3331 -0.6087  0.8242
  173SAPI    H119562   0.959   4.342  10.704  0.4480  0.7543  1.9373
  173SAPI     P19563   0.918   4.066  10.805  0.3735 -0.4508  0.2052
  173SAPI   O1319564   0.850   4.128  10.924 -0.4639  0.0943 -0.7264
  173SAPI   O1419565   0.941   3.923  10.808  0.0783 -0.4278 -0.5366
  173SAPI   O1219566   1.050   4.161  10.776 -0.6557 -0.3669  0.1126
  173SAPI   O1119567   0.829   4.082  10.673  0.5616  0.2261 -0.4182
  173SAPI    C119568   0.871   4.069  10.537  0.8319  0.2835 -0.0882
  173SAPI    HA19569   0.866   4.163  10.478 -0.5652  0.7889  0.7782
  173SAPI    HB19570   0.975   4.034  10.524  0.1916 -2.0941  0.6338
  173SAPI    C219571   0.801   3.951  10.453 -0.3633 -0.3258  0.8472
  173SAPI    HS19572   0.861   3.859  10.470  0.6650  0.0766 -0.4057
  173SAPI   O2119573   0.786   3.985  10.307 -0.2490  0.1653 -0.5929
  173SAPI   C2119574   0.894   4.001  10.229 -0.1483  0.8513  0.5255
  173SAPI   O2219575   1.012   3.979  10.256  0.6148 -0.1218  0.2913
  173SAPI   C2219576   0.851   4.041  10.089  0.2453  0.0395 -0.4750
  173SAPI   H2R19577   0.874   4.148  10.069 -0.0023  0.3344  0.7877
  173SAPI   H2S19578   0.899   3.976  10.012  0.3112  0.5616 -0.8866
  173SAPI    C319579   0.659   3.927  10.515 -0.4915  0.2306  0.5668
  173SAPI    HX19580   0.601   4.021  10.505  2.9767  2.6306  1.1824
  173SAPI    HY19581   0.662   3.891  10.620 -3.1601 -3.7516 -0.4689
  173SAPI   O3119582   0.601   3.804  10.450 -0.2045 -0.8878  0.2079
  173SAPI   C3119583   0.520   3.825  10.351 -0.6786 -0.9234  0.5515
  173SAPI   O3219584   0.486   3.936  10.309  0.6078 -0.2544 -0.4225
  173SAPI   C3219585   0.478   3.699  10.294  0.4139 -0.6134 -0.3731
  173SAPI   H2X19586   0.429   3.643  10.377 -1.1923  0.6125 -0.4489
  173SAPI   H2Y19587   0.571   3.645  10.264  1.0595 -1.1422  2.3484
  173SAPI   C2319588   0.700   4.021  10.074 -0.5410 -0.2595  0.2787
  173SAPI   H3R19589   0.644   4.079  10.151 -0.2496  0.9727 -0.3985
  173SAPI   H3S19590   0.661   3.918  10.085 -2.5002  0.3576 -0.4479
  173SAPI   C2419591   0.651   4.074   9.935 -0.1374 -0.3815  0.2222
  173SAPI   H4R19592   0.677   4.182   9.934 -0.3867 -0.3073  0.8248
  173SAPI   H4S19593   0.541   4.063   9.924 -0.6602  2.1546  2.0142
  173SAPI   C2519594   0.717   4.007   9.811 -0.4046  0.6074 -0.4851
  173SAPI   H5R19595   0.750   3.907   9.842 -2.3252  0.5152  1.5924
  173SAPI   C2619596   0.723   4.039   9.679  0.5722 -0.1659  0.7239
  173SAPI   H6R19597   0.768   3.962   9.615  0.3694  0.1751  0.1531
  173SAPI   C2719598   0.660   4.153   9.602  0.4543 -0.5197  0.3768
  173SAPI   H7R19599   0.601   4.214   9.673  0.6067  0.1673 -0.0852
  173SAPI   H7S19600   0.587   4.110   9.530  2.1475 -1.3929 -0.9065
  173SAPI   C2819601   0.766   4.252   9.551  0.4073  0.3571  0.3596
  173SAPI   H8R19602   0.809   4.317   9.629 -0.0372  0.9295  0.1389
  173SAPI   C2919603   0.808   4.261   9.422  0.1720  0.3521  0.4243
  173SAPI   H9R19604   0.885   4.329   9.383 -2.8673  2.4556 -2.4943
  173SAPI  C21019605   0.754   4.175   9.311 -0.0442  0.2120 -0.3842
  173SAPI  H10R19606   0.643   4.174   9.305  0.0065  0.7116 -1.9840
  173SAPI  H10S19607   0.789   4.071   9.332 -3.5672 -1.5212 -2.1781
  173SAPI  C21119608   0.817   4.192   9.178  0.6618 -0.2493 -0.7494
  173SAPI  H11R19609   0.877   4.107   9.142  0.6158 -0.4999 -0.2365
  173SAPI  C21219610   0.797   4.293   9.088 -0.3741  0.0130  0.2418
  173SAPI  H12R19611   0.831   4.268   8.986 -1.9719 -0.9311 -0.1036
  173SAPI  C21319612   0.716   4.414   9.107 -0.4216 -0.2763  0.5174
  173SAPI  H13R19613   0.787   4.499   9.123 -0.5214 -0.4599  2.0456
  173SAPI  H13S19614   0.667   4.416   9.206  0.9276  2.3335  1.2495
  173SAPI  C21419615   0.608   4.455   9.006  0.4373  0.1641 -0.0133
  173SAPI  H14R19616   0.511   4.474   9.054  0.1321  3.6098 -1.6541
  173SAPI  C21519617   0.626   4.482   8.874  0.0749 -0.1038 -0.4044
  173SAPI  H15R19618   0.547   4.537   8.821  0.5052  1.7344  0.7623
  173SAPI  C21619619   0.759   4.472   8.807  0.1432 -0.0482  0.1600
  173SAPI  H16R19620   0.757   4.380   8.745  0.0580 -1.0793  1.6557
  173SAPI  H16S19621   0.846   4.467   8.877  1.5134  1.6304 -1.3043
  173SAPI  C21719622   0.773   4.592   8.704  0.2511 -0.4995 -0.6316
  173SAPI  H17R19623   0.676   4.609   8.652 -1.9416 -2.1729  2.5644
  173SAPI  H17S19624   0.847   4.568   8.624  0.8609  1.1255 -0.5971
  173SAPI  C21819625   0.803   4.723   8.774 -0.8700 -0.0204 -0.2868
  173SAPI  H18R19626   0.725   4.737   8.852  0.5862 -1.4095  1.5155
  173SAPI  H18S19627   0.809   4.817   8.716  0.6948  2.6268  3.7424
  173SAPI  C21919628   0.948   4.717   8.822 -0.0067 -0.1384  0.5404
  173SAPI  H19R19629   1.014   4.688   8.737 -2.4467 -0.9947 -1.1983
  173SAPI  H19S19630   0.966   4.640   8.899 -2.5703 -1.7908 -0.3497
  173SAPI  C22019631   0.999   4.858   8.872  0.5179  0.9352  0.3797
  173SAPI  H20R19632   0.938   4.870   8.964 -1.8737 -0.0580 -0.9752
  173SAPI  H20S19633   0.970   4.936   8.799  1.0518  0.1936 -0.6640
  173SAPI  H20T19634   1.109   4.852   8.880  0.5546  0.1306 -0.5143
  173SAPI   C3319635   0.391   3.697  10.163 -0.0093  0.8805 -0.7871
  173SAPI   H3X19636   0.347   3.799  10.168  2.4100  2.0043 -0.8942
  173SAPI   H3Y19637   0.315   3.617  10.170  1.0500 -0.4143 -2.9985
  173SAPI   C3419638   0.468   3.686  10.033 -0.4344 -0.5100  0.7580
  173SAPI   H4X19639   0.497   3.583  10.004  2.7479  1.3667 -3.7695
  173SAPI   H4Y19640   0.554   3.755  10.036 -0.5778 -0.3503  1.2377
  173SAPI   C3519641   0.393   3.730   9.907 -0.2082  0.1604 -0.3217
  173SAPI   H5X19642   0.374   3.839   9.916 -0.2050  0.2232 -1.0060
  173SAPI   H5Y19643   0.293   3.682   9.909  0.6422 -1.6816 -0.1872
  173SAPI   C3619644   0.480   3.705   9.783 -0.2209  0.6334 -0.4266
  173SAPI   H6X19645   0.513   3.599   9.780 -1.3035  0.3059 -1.7415
  173SAPI   H6Y19646   0.576   3.763   9.784  1.2284 -1.5749 -2.0656
  173SAPI   C3719647   0.400   3.737   9.655 -0.7968 -0.2884  0.1607
  173SAPI   H7X19648   0.370   3.843   9.669  1.0804  0.3495 -0.2416
  173SAPI   H7Y19649   0.315   3.667   9.650  1.5904 -3.3158 -1.7505
  173SAPI   C3819650   0.492   3.726   9.530 -0.1715 -0.0024  0.2315
  173SAPI   H8X19651   0.499   3.616   9.514 -1.8755  0.0422 -1.0959
  173SAPI   H8Y19652   0.590   3.768   9.559 -0.9252  2.5179 -0.6454
  173SAPI   C3919653   0.447   3.794   9.409  0.4022 -0.1161  1.2217
  173SAPI   H9X19654   0.429   3.900   9.438 -0.8119 -0.2012  0.8005
  173SAPI   H9Y19655   0.354   3.761   9.359  1.6725 -2.1577  0.0603
  173SAPI  C31019656   0.563   3.781   9.303  0.1245  0.2173  0.7987
  173SAPI  H10X19657   0.587   3.674   9.285 -0.5308  0.2763 -0.5696
  173SAPI  H10Y19658   0.651   3.840   9.337 -0.6885  0.4364  2.6184
  173SAPI  C31119659   0.515   3.852   9.173 -0.2388 -0.4195 -0.2055
  173SAPI  H11X19660   0.484   3.954   9.203 -0.7407 -1.1622  1.9629
  173SAPI  H11Y19661   0.429   3.800   9.126 -1.3692 -0.0166  1.3525
  173SAPI  C31219662   0.625   3.860   9.063  0.0831 -0.1632 -0.2688
  173SAPI  H12X19663   0.647   3.758   9.025 -0.3060 -0.4145  0.1694
  173SAPI  H12Y19664   0.719   3.892   9.113  1.0077 -1.9713 -0.7840
  173SAPI  C31319665   0.589   3.950   8.947 -0.1598 -0.0969  0.6583
  173SAPI  H13X19666   0.596   4.058   8.974 -2.5299  1.4798 -4.0252
  173SAPI  H13Y19667   0.484   3.934   8.913  0.6500 -1.9893 -1.1663
  173SAPI  C31419668   0.703   3.929   8.841  0.2405 -0.0270 -0.2607
  173SAPI  H14X19669   0.681   3.834   8.789  2.6944 -1.5252  1.1964
  173SAPI  H14Y19670   0.793   3.897   8.899 -1.5454 -0.4395  2.4805
  173SAPI  C31519671   0.720   4.030   8.729  0.3483  0.5033  0.0913
  173SAPI  H15X19672   0.755   4.120   8.782  2.1564 -1.0223  1.6126
  173SAPI  H15Y19673   0.629   4.057   8.670  0.9637  2.3581 -0.0605
  173SAPI  C31619674   0.829   3.974   8.634 -0.3136  0.1944 -0.2080
  173SAPI  H16X19675   0.802   3.897   8.559  1.5926  0.0624 -0.8182
  173SAPI  H16Y19676   0.897   3.927   8.709 -0.6703  0.3069  0.1903
  173SAPI  C31719677   0.909   4.085   8.563 -0.6869 -0.0610  0.1302
  173SAPI  H17X19678   0.991   4.038   8.504  1.5041  0.4569  2.6250
  173SAPI  H17Y19679   0.957   4.139   8.647 -0.4489  1.8164 -1.1590
  173SAPI  C31819680   0.835   4.186   8.476 -0.2149  0.6817 -0.5214
  173SAPI  H18X19681   0.735   4.215   8.514 -1.0796 -1.7643 -0.7636
  173SAPI  H18Y19682   0.808   4.146   8.376  0.5500 -0.4609 -0.2916
  173SAPI  H18Z19683   0.903   4.268   8.443 -0.9225  0.7512 -1.9053
  174SAPI   C1219684   4.497   1.046  11.166 -0.6455  0.2242  0.7593
  174SAPI    H219685   4.542   0.945  11.171 -0.5318  0.2448  0.2552
  174SAPI    O219686   4.403   1.069  11.278 -0.0662 -0.3388 -0.4381
  174SAPI   HO219687   4.413   0.991  11.334 -2.3476 -0.4629 -0.0768
  174SAPI   C1319688   4.598   1.157  11.155 -0.6717  0.1387 -0.1506
  174SAPI    H319689   4.671   1.119  11.080 -0.3022  1.2741 -0.3853
  174SAPI    O319690   4.680   1.164  11.270 -0.2707 -0.4488 -0.4311
  174SAPI   HO319691   4.739   1.089  11.284 -0.9888 -0.6477  1.9274
  174SAPI   C1419692   4.535   1.289  11.116  0.5259 -0.4525  0.0651
  174SAPI    H419693   4.465   1.321  11.197  0.6564 -1.4995  0.5998
  174SAPI    O419694   4.634   1.392  11.093 -0.4195  0.2385 -0.5081
  174SAPI   HO419695   4.636   1.456  11.164  1.0471 -0.0785 -0.2495
  174SAPI   C1519696   4.449   1.284  10.990 -0.0444  0.1055  0.4144
  174SAPI    H519697   4.517   1.265  10.904 -1.3914  0.3293 -0.7311
  174SAPI    O519698   4.382   1.412  10.980  0.5953 -0.1918 -0.5134
  174SAPI   HO519699   4.450   1.479  10.975  0.4421  0.1059  0.9984
  174SAPI   C1619700   4.353   1.169  10.995  0.4816 -0.8168  0.3280
  174SAPI    H619701   4.273   1.191  11.068 -0.1021 -0.1436 -0.5018
  174SAPI    O619702   4.299   1.157  10.860 -1.0465 -0.1901 -0.5714
  174SAPI   HO619703   4.214   1.114  10.869 -1.1622  0.0056 -0.7445
  174SAPI   C1119704   4.419   1.042  11.033  0.0624 -0.2455  0.0899
  174SAPI    H119705   4.498   1.032  10.955 -1.3700 -4.3442 -1.0804
  174SAPI     P19706   4.372   0.777  10.984  0.4138  0.0574  0.1986
  174SAPI   O1319707   4.303   0.674  11.059 -0.4947  0.1539 -0.3350
  174SAPI   O1419708   4.522   0.774  10.976 -0.1763 -0.4389 -0.1167
  174SAPI   O1219709   4.328   0.931  11.035  0.3843 -0.2801 -0.3232
  174SAPI   O1119710   4.315   0.758  10.830  0.3773  0.4366 -0.1056
  174SAPI    C119711   4.184   0.806  10.802  0.7407 -0.4778  0.2951
  174SAPI    HA19712   4.104   0.768  10.868 -0.9086  0.5288 -1.0313
  174SAPI    HB19713   4.193   0.917  10.800  3.1608 -0.5688  2.0782
  174SAPI    C219714   4.139   0.759  10.660 -0.4914 -0.2860 -0.7053
  174SAPI    HS19715   4.129   0.649  10.662 -0.2032 -0.3072  0.1052
  174SAPI   O2119716   4.228   0.805  10.554 -0.4560  0.1216  0.2945
  174SAPI   C2119717   4.338   0.731  10.528 -0.3292  0.1029 -0.2060
  174SAPI   O2219718   4.370   0.629  10.580 -0.0145  0.0080  0.1590
  174SAPI   C2219719   4.423   0.804  10.415  0.3064  0.5142  0.1573
  174SAPI   H2R19720   4.355   0.874  10.363 -0.3436  0.3857  0.8194
  174SAPI   H2S19721   4.495   0.870  10.467 -0.5906  2.0439 -0.4916
  174SAPI    C319722   3.998   0.822  10.633  0.1512 -0.1500 -1.0294
  174SAPI    HX19723   4.006   0.932  10.646  0.1120  0.0280 -2.3408
  174SAPI    HY19724   3.918   0.786  10.702  0.5228 -1.4932 -1.2640
  174SAPI   O3119725   3.943   0.790  10.512  0.2382  0.2418 -0.1349
  174SAPI   C3119726   3.982   0.861  10.406  0.1497  0.2622  0.2184
  174SAPI   O3219727   4.033   0.967  10.406 -0.2097 -0.0518  0.1584
  174SAPI   C3219728   3.947   0.773  10.282 -0.4017  0.0196 -0.6481
  174SAPI   H2X19729   3.840   0.793  10.259 -0.5309 -0.2235 -0.2768
  174SAPI   H2Y19730   3.956   0.667  10.313 -1.0087 -0.1030 -0.8624
  174SAPI   C2319731   4.482   0.699  10.330 -0.6933  0.0124  0.0045
  174SAPI   H3R19732   4.401   0.633  10.294 -0.8237  0.5702 -0.7532
  174SAPI   H3S19733   4.549   0.632  10.387 -1.1725  0.3075  0.9446
  174SAPI   C2419734   4.544   0.761  10.197  1.1098  0.6380 -1.2783
  174SAPI   H4R19735   4.470   0.811  10.131 -0.9705  0.0835  0.5488
  174SAPI   H4S19736   4.562   0.665  10.142 -0.2136  0.2125 -0.9993
  174SAPI   C2519737   4.656   0.849  10.230  0.1230 -0.3846 -0.4747
  174SAPI   H5R19738   4.620   0.946  10.268 -0.7656 -1.2565  1.0273
  174SAPI   C2619739   4.785   0.812  10.211  0.4642 -0.3020 -0.0119
  174SAPI   H6R19740   4.870   0.875  10.241  2.5827 -1.6951 -2.6405
  174SAPI   C2719741   4.835   0.682  10.153 -0.3377  0.1763 -0.2132
  174SAPI   H7R19742   4.777   0.664  10.060  0.3198  2.0377 -1.0105
  174SAPI   H7S19743   4.817   0.599  10.225  1.1288  0.3860  0.4133
  174SAPI   C2819744   4.983   0.683  10.118  0.3499 -0.1127  1.7412
  174SAPI   H8R19745   5.051   0.759  10.160  2.6169 -0.1147 -1.5365
  174SAPI   C2919746   5.034   0.607  10.021 -0.1041  0.5536 -0.3121
  174SAPI   H9R19747   5.137   0.612   9.982  0.7462 -4.0184  0.7600
  174SAPI  C21019748   4.953   0.496   9.947 -0.4044  0.1448 -0.2880
  174SAPI  H10R19749   4.849   0.517   9.913  0.4095  3.3233 -1.1692
  174SAPI  H10S19750   4.943   0.405  10.010 -0.0569  0.1293 -0.2539
  174SAPI  C21119751   5.023   0.463   9.814 -0.3198  0.4144 -0.3328
  174SAPI  H11R19752   5.103   0.387   9.823 -0.8923 -0.1325  0.3493
  174SAPI  C21219753   5.009   0.532   9.701  0.4148  0.1396  0.0941
  174SAPI  H12R19754   5.057   0.496   9.610 -0.4540 -0.3127 -0.1971
  174SAPI  C21319755   4.918   0.648   9.679 -0.2549  0.0352 -0.1595
  174SAPI  H13R19756   4.969   0.723   9.614  0.8452  1.3311  2.0756
  174SAPI  H13S19757   4.912   0.720   9.764 -2.6210 -0.0859 -0.1752
  174SAPI  C21419758   4.785   0.621   9.624  0.1200 -0.4912 -0.0283
  174SAPI  H14R19759   4.702   0.609   9.696 -0.2600  0.9181 -0.1987
  174SAPI  C21519760   4.748   0.631   9.494 -0.5255  0.1719  0.1252
  174SAPI  H15R19761   4.644   0.601   9.474 -0.8329 -0.9598  2.9131
  174SAPI  C21619762   4.830   0.656   9.369  0.1700 -0.1133  0.1939
  174SAPI  H16R19763   4.807   0.565   9.310  0.1049  0.0727 -0.0669
  174SAPI  H16S19764   4.937   0.646   9.396 -0.2747 -0.8829  1.8344
  174SAPI  C21719765   4.792   0.785   9.285  0.2654 -0.6635 -0.0268
  174SAPI  H17R19766   4.838   0.871   9.337  1.6169 -2.7744  2.4938
  174SAPI  H17S19767   4.682   0.798   9.282  0.2946 -0.5890 -1.1122
  174SAPI  C21819768   4.843   0.772   9.149  0.3827  0.4898 -0.1603
  174SAPI  H18R19769   4.803   0.683   9.096 -0.2889  1.5076 -1.4338
  174SAPI  H18S19770   4.954   0.768   9.151  0.3748  0.3211  1.6989
  174SAPI  C21919771   4.802   0.875   9.053 -0.0000 -0.0441  0.1949
  174SAPI  H19R19772   4.834   0.971   9.098 -0.4590 -0.2140  0.9116
  174SAPI  H19S19773   4.692   0.865   9.048  0.0265 -1.2752  1.3452
  174SAPI  C22019774   4.854   0.836   8.916  0.3158  0.3441 -0.6593
  174SAPI  H20R19775   4.835   0.916   8.841  1.4336  1.8716  0.6267
  174SAPI  H20S19776   4.803   0.743   8.883 -0.4022  0.5538 -0.1571
  174SAPI  H20T19777   4.964   0.819   8.924  0.0117 -1.1519  0.8469
  174SAPI   C3319778   4.031   0.800  10.162  0.2374 -0.0634 -0.0219
  174SAPI   H3X19779   4.019   0.716  10.090 -0.6659 -0.0676  0.1277
  174SAPI   H3Y19780   4.140   0.810  10.182  0.5935  0.0175 -1.8188
  174SAPI   C3419781   3.980   0.930  10.099  0.4788 -0.1154 -0.0217
  174SAPI   H4X19782   4.006   1.013  10.168  0.0388 -0.0214  0.0368
  174SAPI   H4Y19783   3.869   0.926  10.097  0.5007 -1.2550 -2.1790
  174SAPI   C3519784   4.029   0.966   9.961  0.0693  0.4179  0.2143
  174SAPI   H5X19785   4.134   0.931   9.957  0.3063  1.1093  0.1823
  174SAPI   H5Y19786   4.015   1.076   9.963 -1.8243  0.1931  1.9716
  174SAPI   C3619787   3.958   0.893   9.844  0.8894  0.2498 -0.1078
  174SAPI   H6X19788   3.850   0.889   9.869  0.4528  0.1625 -1.8514
  174SAPI   H6Y19789   3.996   0.789   9.836 -0.2758 -0.1749 -0.3021
  174SAPI   C3719790   3.988   0.957   9.708  0.3411 -0.7188  0.0305
  174SAPI   H7X19791   4.097   0.970   9.690  0.3510 -1.3130 -0.3380
  174SAPI   H7Y19792   3.928   1.051   9.700  1.4688 -0.0295 -0.6144
  174SAPI   C3819793   3.954   0.865   9.598  0.0061 -0.5575 -0.6624
  174SAPI   H8X19794   3.844   0.847   9.592  0.5359 -4.2184 -1.1853
  174SAPI   H8Y19795   3.981   0.765   9.637  4.2641  0.5601 -0.2594
  174SAPI   C3919796   4.009   0.881   9.455  0.1879  0.0594  0.0017
  174SAPI   H9X19797   4.110   0.835   9.444 -0.0178 -0.3194 -0.2949
  174SAPI   H9Y19798   4.009   0.988   9.426 -0.5022 -0.1080 -0.6369
  174SAPI  C31019799   3.918   0.814   9.347  0.0883  0.6987 -0.1522
  174SAPI  H10X19800   3.814   0.853   9.350 -0.0398  0.3478  0.2487
  174SAPI  H10Y19801   3.912   0.706   9.372 -1.0551  0.5734 -0.9121
  174SAPI  C31119802   3.987   0.847   9.212 -0.1255 -0.3429 -0.1346
  174SAPI  H11X19803   4.087   0.798   9.211 -0.0159 -0.1278  0.1147
  174SAPI  H11Y19804   4.002   0.956   9.219  3.8802 -0.8359  1.8752
  174SAPI  C31219805   3.917   0.791   9.087 -0.1428 -1.0273  0.4743
  174SAPI  H12X19806   3.807   0.786   9.095 -0.0854 -0.9002  1.5305
  174SAPI  H12Y19807   3.954   0.686   9.086 -0.3224 -1.1336 -2.3630
  174SAPI  C31319808   3.972   0.854   8.949  0.7737 -0.3559 -0.3406
  174SAPI  H13X19809   4.079   0.882   8.947  0.8175 -0.2962  1.1904
  174SAPI  H13Y19810   3.902   0.939   8.936  2.0486  0.8648  0.5112
  174SAPI  C31419811   3.936   0.766   8.835 -0.8497 -0.4421  0.3618
  174SAPI  H14X19812   3.829   0.737   8.832 -0.8559 -0.3693 -1.4272
  174SAPI  H14Y19813   3.984   0.667   8.848 -0.1974 -0.1685  0.1281
  174SAPI  C31519814   3.969   0.826   8.697  0.1934 -0.3534 -0.8344
  174SAPI  H15X19815   3.926   0.755   8.623 -0.3038  0.4812 -1.3605
  174SAPI  H15Y19816   4.079   0.820   8.680  0.5883  0.6009  1.1751
  174SAPI  C31619817   3.917   0.968   8.671  0.8577 -0.5363  0.1982
  174SAPI  H16X19818   3.944   1.003   8.569  1.1704  2.2517  1.1407
  174SAPI  H16Y19819   3.948   1.054   8.734 -1.3540  1.6718 -1.5535
  174SAPI  C31719820   3.766   0.974   8.676  0.3161 -0.0276  0.7741
  174SAPI  H17X19821   3.736   0.961   8.782 -1.5339 -0.0631  0.2818
  174SAPI  H17Y19822   3.726   0.887   8.620 -2.1512  2.4155 -1.5193
  174SAPI  C31819823   3.698   1.104   8.631 -0.7460 -0.6550  0.3643
  174SAPI  H18X19824   3.588   1.102   8.646 -0.7001  1.1926  1.1254
  174SAPI  H18Y19825   3.713   1.133   8.525  0.0113  2.2923  1.1765
  174SAPI  H18Z19826   3.748   1.186   8.687  2.0180 -1.6923 -0.3687
  175SAPI   C1219827   6.155   2.070   5.865  0.4458 -1.1985 -0.5921
  175SAPI    H219828   6.131   1.969   5.828 -1.3061 -0.5783 -1.2731
  175SAPI    O219829   6.266   2.056   5.958 -0.1327 -0.6279 -0.3519
  175SAPI   HO219830   6.229   2.035   6.044  1.1497 -2.1824 -0.1171
  175SAPI   C1319831   6.191   2.156   5.747  0.0479  0.1799 -0.4670
  175SAPI    H319832   6.107   2.154   5.674  0.1590 -2.9939 -0.6351
  175SAPI    O319833   6.294   2.092   5.672  0.5492 -0.1324 -0.4520
  175SAPI   HO319834   6.305   1.998   5.687  0.6003 -0.0024  0.3637
  175SAPI   C1419835   6.222   2.297   5.788  0.3698 -0.4965  0.0829
  175SAPI    H419836   6.303   2.295   5.865  0.9673 -3.8065 -0.4887
  175SAPI    O419837   6.260   2.377   5.674  0.1258  0.4075  0.1569
  175SAPI   HO419838   6.336   2.329   5.638 -0.7374 -0.1273 -1.0218
  175SAPI   C1519839   6.097   2.351   5.854 -0.0231 -0.4755 -0.6916
  175SAPI    H519840   6.015   2.338   5.781  0.6004 -2.1550 -1.1239
  175SAPI    O519841   6.107   2.489   5.879 -0.2981  0.4466 -0.6788
  175SAPI   HO519842   6.036   2.521   5.934 -0.6211 -1.8568  0.3567
  175SAPI   C1619843   6.059   2.268   5.980  0.4125  0.3221 -0.0890
  175SAPI    H619844   6.147   2.273   6.048  0.1091 -1.4855  0.4933
  175SAPI    O619845   5.942   2.331   6.038  0.6358  0.0846 -0.6486
  175SAPI   HO619846   5.964   2.360   6.127  1.6469 -1.7867 -0.2383
  175SAPI   C1119847   6.029   2.123   5.939  0.3057  0.2341 -0.0380
  175SAPI    H119848   5.944   2.121   5.867 -1.3291  0.3432  1.8094
  175SAPI     P19849   5.910   1.906   6.025 -0.3046 -0.2796  0.1897
  175SAPI   O1319850   5.973   1.807   5.934 -0.6396  0.3591  0.8432
  175SAPI   O1419851   5.766   1.942   6.015 -0.3062 -0.0494  0.3582
  175SAPI   O1219852   6.004   2.041   6.056 -0.2291  0.2411  1.0450
  175SAPI   O1119853   5.939   1.828   6.158 -0.1145 -0.1333 -0.5348
  175SAPI    C119854   5.893   1.873   6.285 -0.0135  0.3812  0.0006
  175SAPI    HA19855   5.866   1.981   6.293 -2.8029 -0.2859  0.5275
  175SAPI    HB19856   5.795   1.827   6.306  0.8770 -1.0804  1.1431
  175SAPI    C219857   5.999   1.851   6.389  0.0006  0.1520 -1.0182
  175SAPI    HS19858   6.011   1.742   6.408 -1.2809  0.1197 -0.2885
  175SAPI   O2119859   5.960   1.920   6.507  0.3886 -0.2908  0.3069
  175SAPI   C2119860   5.872   1.857   6.585 -0.3683  0.9802  0.4567
  175SAPI   O2219861   5.834   1.739   6.559 -0.5323  0.0673 -0.2274
  175SAPI   C2219862   5.842   1.932   6.716 -0.5333  0.3849  0.2074
  175SAPI   H2R19863   5.909   2.020   6.726  0.1889 -0.2563  1.2693
  175SAPI   H2S19864   5.736   1.963   6.721 -0.4970  0.3928  0.9838
  175SAPI    C319865   6.137   1.910   6.337  0.2745  0.7512 -0.2837
  175SAPI    HX19866   6.102   2.011   6.306 -1.8036  0.8754  2.1260
  175SAPI    HY19867   6.178   1.861   6.246  0.5900 -0.5964  0.5526
  175SAPI   O3119868   6.236   1.918   6.448  0.2399  0.7529 -0.1378
  175SAPI   C3119869   6.333   2.002   6.416  0.4177  0.7074 -0.4093
  175SAPI   O3219870   6.321   2.075   6.319 -0.6212  0.4621 -0.5532
  175SAPI   C3219871   6.431   2.005   6.522 -0.3912 -0.6227 -0.3963
  175SAPI   H2X19872   6.462   2.112   6.525  2.1845 -1.2863 -1.0088
  175SAPI   H2Y19873   6.520   1.942   6.501  0.0166 -0.4935  0.8398
  175SAPI   C2319874   5.867   1.840   6.839 -0.0058 -0.3284  0.0540
  175SAPI   H3R19875   5.940   1.760   6.815  1.9536  1.4976 -0.4009
  175SAPI   H3S19876   5.779   1.782   6.875  0.8909 -1.8950 -0.1737
  175SAPI   C2419877   5.927   1.925   6.958 -0.4144 -0.5750 -0.1111
  175SAPI   H4R19878   5.859   2.010   6.982 -0.4194 -0.8843  0.9863
  175SAPI   H4S19879   6.025   1.962   6.924 -0.2515  0.4857  1.4134
  175SAPI   C2519880   5.946   1.847   7.088  0.2418 -0.0227 -0.3686
  175SAPI   H5R19881   5.863   1.777   7.106  2.6729 -2.8745  0.6072
  175SAPI   C2619882   6.046   1.855   7.173  1.1264 -0.5978 -0.1597
  175SAPI   H6R19883   6.050   1.789   7.261  0.0054  0.0808  0.4225
  175SAPI   C2719884   6.157   1.953   7.143 -0.0642 -0.5070 -0.3393
  175SAPI   H7R19885   6.199   1.921   7.046  1.1131 -0.0057 -0.0184
  175SAPI   H7S19886   6.249   1.940   7.204  0.1157 -1.9720 -0.9036
  175SAPI   C2819887   6.115   2.099   7.152 -0.3092  0.6307 -0.9042
  175SAPI   H8R19888   6.101   2.147   7.054 -1.1475 -0.0022 -1.1031
  175SAPI   C2919889   6.082   2.165   7.264 -0.3706  0.1260  0.4812
  175SAPI   H9R19890   6.043   2.266   7.245 -0.1540  0.2606  0.7421
  175SAPI  C21019891   6.087   2.107   7.406  0.0595 -1.2932  0.4679
  175SAPI  H10R19892   6.191   2.072   7.424  0.5636 -0.5002 -0.7570
  175SAPI  H10S19893   6.021   2.019   7.418 -0.7101 -0.5842  1.6260
  175SAPI  C21119894   6.051   2.201   7.517 -0.6049  0.1941 -0.1393
  175SAPI  H11R19895   6.009   2.300   7.493  0.8466  0.2663 -2.8215
  175SAPI  C21219896   6.076   2.173   7.649  0.3518 -0.0724  0.1990
  175SAPI  H12R19897   6.062   2.251   7.725 -0.2001  0.2398 -0.2130
  175SAPI  C21319898   6.151   2.050   7.690 -0.0151  0.1249 -0.0718
  175SAPI  H13R19899   6.141   1.963   7.623 -1.3821  0.5905 -0.5095
  175SAPI  H13S19900   6.103   2.015   7.784  1.7377  0.4894  0.9992
  175SAPI  C21419901   6.301   2.067   7.716  0.2676 -0.3028  0.6767
  175SAPI  H14R19902   6.363   2.073   7.625 -0.9652  3.2354 -0.1280
  175SAPI  C21519903   6.350   2.084   7.840  0.3392  0.3044 -0.2004
  175SAPI  H15R19904   6.459   2.078   7.857  0.4759  0.8326 -0.8497
  175SAPI  C21619905   6.279   2.084   7.972 -0.0017 -0.7737  0.1940
  175SAPI  H16R19906   6.190   2.144   7.944  0.6552 -0.5854 -1.5861
  175SAPI  H16S19907   6.326   2.142   8.054  0.6577 -2.1389  0.8113
  175SAPI  C21719908   6.249   1.938   8.026  0.3245 -0.7184  0.1739
  175SAPI  H17R19909   6.211   1.875   7.943 -1.0136  0.7302 -0.3724
  175SAPI  H17S19910   6.156   1.945   8.085 -2.7309  1.3827 -4.2963
  175SAPI  C21819911   6.371   1.868   8.092  0.5003  0.4107  0.0175
  175SAPI  H18R19912   6.403   1.932   8.177  2.6999 -0.4283 -0.1159
  175SAPI  H18S19913   6.465   1.858   8.034  0.1877 -0.1066 -0.4145
  175SAPI  C21919914   6.319   1.730   8.129 -0.4863 -0.3485  0.7195
  175SAPI  H19R19915   6.321   1.656   8.045 -0.9152 -1.7616  1.9158
  175SAPI  H19S19916   6.217   1.738   8.173  0.0530  0.3999  1.8814
  175SAPI  C22019917   6.401   1.662   8.238  0.1627 -0.1284 -0.1683
  175SAPI  H20R19918   6.370   1.559   8.266 -0.3301  0.4144  1.3873
  175SAPI  H20S19919   6.403   1.728   8.328  2.8704 -0.9598  0.5015
  175SAPI  H20T19920   6.502   1.658   8.190  0.0220 -0.4335 -0.4395
  175SAPI   C3319921   6.382   1.972   6.660 -0.0572  0.0935 -0.3848
  175SAPI   H3X19922   6.353   1.865   6.655 -1.6641  0.4867  0.0233
  175SAPI   H3Y19923   6.294   2.036   6.684  0.0419  0.6150 -1.3339
  175SAPI   C3419924   6.485   1.994   6.771  0.5107 -0.2588  0.3908
  175SAPI   H4X19925   6.487   2.104   6.787 -1.7994  0.4579 -3.1173
  175SAPI   H4Y19926   6.582   1.977   6.719  0.1341 -0.2112 -0.3450
  175SAPI   C3519927   6.472   1.912   6.901  0.4470  0.2462 -0.8625
  175SAPI   H5X19928   6.385   1.953   6.957  1.8123 -0.3425  1.8590
  175SAPI   H5Y19929   6.555   1.949   6.965  0.3895  1.7709 -1.6230
  175SAPI   C3619930   6.477   1.758   6.877 -0.1543 -0.4143  0.5471
  175SAPI   H6X19931   6.554   1.741   6.798 -1.5360  0.6770 -1.0970
  175SAPI   H6Y19932   6.382   1.720   6.833  1.2212 -0.8017 -2.3802
  175SAPI   C3719933   6.532   1.687   7.005 -0.5821  0.0160  1.0314
  175SAPI   H7X19934   6.631   1.729   7.034  0.0381 -0.8270  0.2388
  175SAPI   H7Y19935   6.562   1.586   6.969  0.6035  0.3560  1.0012
  175SAPI   C3819936   6.436   1.668   7.115 -0.2566  0.2756 -0.0580
  175SAPI   H8X19937   6.342   1.622   7.078 -0.9895  2.6654 -1.4536
  175SAPI   H8Y19938   6.409   1.767   7.158  0.8919  0.3080  0.6207
  175SAPI   C3919939   6.501   1.568   7.209 -0.0919  0.2311 -1.0626
  175SAPI   H9X19940   6.593   1.608   7.258  1.8197 -3.3853 -1.3932
  175SAPI   H9Y19941   6.539   1.486   7.145 -0.4761 -1.6719  1.0251
  175SAPI  C31019942   6.390   1.504   7.297  0.3028  0.0932 -0.3276
  175SAPI  H10X19943   6.443   1.439   7.369 -0.0369  0.7663  0.5496
  175SAPI  H10Y19944   6.317   1.440   7.243 -0.2237  0.8804 -0.5733
  175SAPI  C31119945   6.302   1.609   7.367 -0.0686 -0.2434 -0.9116
  175SAPI  H11X19946   6.213   1.626   7.302 -0.7527 -1.6038 -0.3581
  175SAPI  H11Y19947   6.358   1.705   7.369 -1.7391  0.7722 -0.6712
  175SAPI  C31219948   6.271   1.572   7.511 -0.2073  0.1279 -0.0770
  175SAPI  H12X19949   6.366   1.558   7.566  0.4694  1.6012 -0.8181
  175SAPI  H12Y19950   6.207   1.481   7.510 -0.8047  0.5401 -0.5831
  175SAPI  C31319951   6.187   1.694   7.562  0.5520 -0.1299  0.3487
  175SAPI  H13X19952   6.099   1.713   7.497 -0.4088  0.9329  1.8950
  175SAPI  H13Y19953   6.248   1.787   7.561  0.2810  0.0485  0.1770
  175SAPI  C31419954   6.146   1.674   7.712  0.0008 -0.5426  0.3493
  175SAPI  H14X19955   6.087   1.766   7.732  0.7653  0.1646 -0.5199
  175SAPI  H14Y19956   6.234   1.671   7.779  0.8360  0.5604 -0.6487
  175SAPI  C31519957   6.050   1.552   7.734 -0.0282  0.5141 -0.4063
  175SAPI  H15X19958   6.104   1.455   7.743  0.3667  0.3684 -3.3503
  175SAPI  H15Y19959   5.981   1.541   7.647 -1.3913 -0.0630  0.7029
  175SAPI  C31619960   5.960   1.574   7.856  0.0560  0.2569 -0.5052
  175SAPI  H16X19961   5.894   1.663   7.849 -1.1570 -0.5960 -0.3880
  175SAPI  H16Y19962   6.028   1.580   7.944 -0.0551 -0.5722 -0.3490
  175SAPI  C31719963   5.864   1.459   7.885 -0.1952 -0.5624  0.2002
  175SAPI  H17X19964   5.924   1.366   7.877  0.7620  0.0691 -0.1233
  175SAPI  H17Y19965   5.793   1.455   7.800  1.6911  0.1554 -1.4880
  175SAPI  C31819966   5.785   1.467   8.017  0.1358 -0.1826 -0.4172
  175SAPI  H18X19967   5.710   1.385   8.012 -0.3758  0.2042  0.6150
  175SAPI  H18Y19968   5.729   1.561   8.034  1.4984  0.3279  1.5748
  175SAPI  H18Z19969   5.862   1.445   8.094  0.0897  1.2686  0.0699
  176SAPI   C1219970   3.029   6.643   6.560 -0.1910 -0.6164 -0.0979
  176SAPI    H219971   3.028   6.683   6.663 -0.6678 -2.1060  0.4951
  176SAPI    O219972   2.948   6.530   6.552 -0.1835 -0.1783  0.5253
  176SAPI   HO219973   2.860   6.542   6.587 -0.8680  0.2327 -1.2382
  176SAPI   C1319974   2.973   6.746   6.459 -0.3113 -0.1296 -0.0074
  176SAPI    H319975   3.043   6.832   6.468 -1.5664  0.7031  2.7419
  176SAPI    O319976   2.845   6.799   6.487  0.8159  0.0759 -0.6733
  176SAPI   HO319977   2.844   6.889   6.519 -1.3035 -0.5533  1.2636
  176SAPI   C1419978   2.983   6.700   6.314 -0.1333 -0.2276  0.0199
  176SAPI    H419979   2.908   6.620   6.297 -0.3712 -0.0196  0.0885
  176SAPI    O419980   2.946   6.804   6.222  0.0319 -0.8501 -0.2343
  176SAPI   HO419981   2.853   6.823   6.213  0.2517 -0.4393 -2.1080
  176SAPI   C1519982   3.125   6.647   6.284 -0.3700  0.4507  0.4820
  176SAPI    H519983   3.195   6.729   6.309 -1.6187  1.2660  1.3748
  176SAPI    O519984   3.140   6.603   6.147  0.2822  0.2554  0.9747
  176SAPI   HO519985   3.111   6.511   6.145  1.2542 -0.0835  1.3232
  176SAPI   C1619986   3.177   6.550   6.384  0.1529  1.1336  0.1218
  176SAPI    H619987   3.105   6.465   6.391  1.6865 -0.2124  0.2952
  176SAPI    O619988   3.302   6.499   6.344 -0.7970 -0.2820 -0.7563
  176SAPI   HO619989   3.282   6.413   6.304  0.3582 -1.6549  1.4203
  176SAPI   C1119990   3.179   6.604   6.529  0.3094  0.7015 -0.5682
  176SAPI    H119991   3.234   6.700   6.534  1.2468  0.1625 -0.1546
  176SAPI     P19992   3.381   6.511   6.684 -0.0626  0.1736  0.1253
  176SAPI   O1319993   3.457   6.618   6.618  0.1300 -0.2742 -0.5737
  176SAPI   O1419994   3.433   6.374   6.697 -0.2386 -0.0269  0.5278
  176SAPI   O1219995   3.224   6.501   6.618 -0.0632 -0.2198  0.2058
  176SAPI   O1119996   3.367   6.563   6.828 -0.3720 -0.1092 -0.0539
  176SAPI    C119997   3.258   6.523   6.911 -0.7648  0.0305  0.6702
  176SAPI    HA19998   3.268   6.580   7.006 -0.0499  2.3110 -0.6885
  176SAPI    HB19999   3.162   6.562   6.870  0.1268  0.4154 -1.1539
  176SAPI    C220000   3.254   6.376   6.943 -0.0609  0.4690 -0.1463
  176SAPI    HS20001   3.260   6.309   6.855  1.0041  0.6205 -0.2070
  176SAPI   O2120002   3.122   6.365   7.006  0.0243  0.0274 -0.6903
  176SAPI   C2120003   3.027   6.319   6.936  0.1467 -0.1126 -0.2443
  176SAPI   O2220004   3.028   6.288   6.822 -0.3885 -0.4495 -0.0314
  176SAPI   C2220005   2.895   6.324   7.017  0.4397 -0.1886 -0.3479
  176SAPI   H2R20006   2.925   6.274   7.111  1.9297  2.7093  0.8541
  176SAPI   H2S20007   2.875   6.433   7.024  0.5285 -0.2757  1.6348
  176SAPI    C320008   3.370   6.334   7.040 -0.1916 -0.4156  0.6995
  176SAPI    HX20009   3.469   6.326   6.990 -0.2424 -0.4802  0.6094
  176SAPI    HY20010   3.344   6.229   7.064 -1.0250 -0.2523  0.5595
  176SAPI   O3120011   3.381   6.406   7.158 -0.3274 -0.1636 -0.5373
  176SAPI   C3120012   3.328   6.354   7.266 -0.3360  0.0561  0.0477
  176SAPI   O3220013   3.267   6.247   7.275  0.8459 -0.1280 -0.1517
  176SAPI   C3220014   3.349   6.452   7.386 -0.2160  0.4164 -0.5780
  176SAPI   H2X20015   3.274   6.531   7.363 -0.0182  0.1617 -2.2414
  176SAPI   H2Y20016   3.450   6.497   7.379 -0.9262  1.9633 -1.5457
  176SAPI   C2320017   2.774   6.273   6.937  0.2910 -0.0204 -0.6997
  176SAPI   H3R20018   2.801   6.170   6.904 -1.1519 -0.4653 -0.5435
  176SAPI   H3S20019   2.771   6.332   6.843 -0.6239  0.2633 -0.5065
  176SAPI   C2420020   2.647   6.265   7.017 -0.2034 -0.3086  0.4472
  176SAPI   H4R20021   2.573   6.219   6.948 -0.6624 -0.1533  0.8333
  176SAPI   H4S20022   2.615   6.369   7.042  0.8955  0.2699 -0.4573
  176SAPI   C2520023   2.659   6.179   7.137  0.2416  0.5883 -0.8530
  176SAPI   H5R20024   2.647   6.073   7.111  0.8495  0.3205 -0.1059
  176SAPI   C2620025   2.652   6.216   7.268 -0.6903 -0.6567 -0.4303
  176SAPI   H6R20026   2.653   6.146   7.353 -1.4535  1.9715  1.9017
  176SAPI   C2720027   2.651   6.363   7.323  0.0384 -0.1221 -0.1979
  176SAPI   H7R20028   2.629   6.440   7.246  1.4091  0.4423 -0.0381
  176SAPI   H7S20029   2.749   6.396   7.363 -1.0277  0.3569  2.2423
  176SAPI   C2820030   2.533   6.383   7.421 -0.0240  0.4366 -0.0823
  176SAPI   H8R20031   2.441   6.426   7.379  0.2805  1.0838 -0.1011
  176SAPI   C2920032   2.528   6.344   7.552  0.1129  0.6944  0.4559
  176SAPI   H9R20033   2.447   6.370   7.622 -0.7520  0.9767 -0.6371
  176SAPI  C21020034   2.645   6.266   7.614 -0.0987  0.5980 -0.1001
  176SAPI  H10R20035   2.679   6.180   7.554  0.2443  1.0704 -0.5935
  176SAPI  H10S20036   2.620   6.216   7.710 -1.7743 -0.3441 -0.9962
  176SAPI  C21120037   2.756   6.368   7.638 -0.1662 -0.0573 -0.3664
  176SAPI  H11R20038   2.729   6.469   7.673 -0.1312 -0.2010  0.0721
  176SAPI  C21220039   2.892   6.356   7.624  0.0158 -0.3925 -0.2664
  176SAPI  H12R20040   2.959   6.440   7.646  0.3776 -0.9506  0.8926
  176SAPI  C21320041   2.964   6.233   7.576  0.2301 -0.8759  0.2840
  176SAPI  H13R20042   2.987   6.248   7.468 -0.7336  0.8993  0.3013
  176SAPI  H13S20043   2.897   6.144   7.573 -0.4045 -0.3877 -1.4863
  176SAPI  C21420044   3.087   6.179   7.646 -0.5395 -1.5483  0.1975
  176SAPI  H14R20045   3.179   6.187   7.587 -0.7380  0.3092  0.0747
  176SAPI  C21520046   3.100   6.117   7.763 -0.2204  1.1394 -0.5368
  176SAPI  H15R20047   3.191   6.075   7.808 -2.7723 -0.4838  3.7261
  176SAPI  C21620048   2.979   6.079   7.844 -0.9159 -0.0505 -0.8116
  176SAPI  H16R20049   2.973   5.969   7.837  0.9619 -0.0955 -2.2803
  176SAPI  H16S20050   2.885   6.108   7.791 -1.7626 -0.0072  0.6450
  176SAPI  C21720051   2.974   6.128   7.988 -0.0103 -0.3568  0.0174
  176SAPI  H17R20052   3.068   6.110   8.045 -0.1065  0.3633  0.4144
  176SAPI  H17S20053   2.885   6.080   8.033  0.9744 -0.3559  2.0612
  176SAPI  C21820054   2.956   6.281   7.997 -0.3961 -0.0707 -1.3063
  176SAPI  H18R20055   2.858   6.311   7.955 -0.3023 -0.0716 -1.5258
  176SAPI  H18S20056   3.041   6.336   7.950 -0.5991  1.2959 -0.1458
  176SAPI  C21920057   2.961   6.333   8.146  0.6089  0.9282 -0.3587
  176SAPI  H19R20058   3.048   6.282   8.191 -0.7366 -2.9438 -1.7873
  176SAPI  H19S20059   2.868   6.300   8.196 -0.0577  1.3599 -1.2801
  176SAPI  C22020060   2.975   6.488   8.167  0.1308  0.1347 -0.0638
  176SAPI  H20R20061   3.083   6.512   8.171  0.0211  0.5631  0.5406
  176SAPI  H20S20062   2.932   6.520   8.265 -1.8780 -0.3741 -0.7392
  176SAPI  H20T20063   2.916   6.537   8.087  0.5215 -0.5760 -0.7976
  176SAPI   C3320064   3.317   6.392   7.521  0.6691 -0.0422  0.3914
  176SAPI   H3X20065   3.343   6.286   7.541 -2.6944 -0.7795  1.5342
  176SAPI   H3Y20066   3.208   6.402   7.542  0.2142  0.3689 -1.9515
  176SAPI   C3420067   3.379   6.469   7.647  0.0785 -0.4562  0.7621
  176SAPI   H4X20068   3.333   6.570   7.651  0.0611 -0.1680 -2.9020
  176SAPI   H4Y20069   3.489   6.484   7.635  0.0324  0.3680  1.3237
  176SAPI   C3520070   3.350   6.400   7.783 -0.3448  0.2057 -0.1510
  176SAPI   H5X20071   3.400   6.301   7.793 -0.6530  0.1466  0.8660
  176SAPI   H5Y20072   3.241   6.398   7.803 -0.4616  2.5449 -0.2864
  176SAPI   C3620073   3.410   6.471   7.907 -0.8883  0.2445 -0.1304
  176SAPI   H6X20074   3.361   6.571   7.914  0.2674  0.7634  0.9088
  176SAPI   H6Y20075   3.518   6.493   7.893 -1.0117  0.8435 -0.1455
  176SAPI   C3720076   3.389   6.396   8.040  0.1335 -0.0991  0.2080
  176SAPI   H7X20077   3.428   6.294   8.021  0.4876 -0.1943  1.4058
  176SAPI   H7Y20078   3.278   6.388   8.050  0.1499 -0.7784 -0.0431
  176SAPI   C3820079   3.463   6.473   8.147 -0.7139  0.5979  0.3588
  176SAPI   H8X20080   3.402   6.565   8.157  0.9147  1.6864  0.6652
  176SAPI   H8Y20081   3.566   6.492   8.109 -0.7282 -1.9890 -1.1847
  176SAPI   C3920082   3.476   6.389   8.272 -0.3368 -0.1788 -0.1435
  176SAPI   H9X20083   3.551   6.312   8.241  1.7670  2.1711 -1.2354
  176SAPI   H9Y20084   3.374   6.347   8.286 -0.7929  0.4460 -1.4133
  176SAPI  C31020085   3.531   6.463   8.393  0.3611 -0.4494 -0.0475
  176SAPI  H10X20086   3.537   6.409   8.489 -0.5856  2.9775  2.1301
  176SAPI  H10Y20087   3.464   6.549   8.414  2.1609  1.1280 -0.4991
  176SAPI  C31120088   3.673   6.514   8.371 -0.5093  0.2739  0.9742
  176SAPI  H11X20089   3.692   6.565   8.274 -0.3030 -1.3350  0.1298
  176SAPI  H11Y20090   3.738   6.424   8.371 -0.1355  0.4175  4.2691
  176SAPI  C31220091   3.712   6.620   8.477  0.2877  0.0140 -0.3653
  176SAPI  H12X20092   3.672   6.575   8.571  0.7663 -0.6347 -0.4624
  176SAPI  H12Y20093   3.667   6.721   8.469 -2.2195 -1.1023 -1.8172
  176SAPI  C31320094   3.864   6.615   8.488  0.4616 -0.4938 -0.3070
  176SAPI  H13X20095   3.906   6.644   8.390  0.5793  1.3032  0.2348
  176SAPI  H13Y20096   3.913   6.517   8.509  0.2349 -0.3843  0.8430
  176SAPI  C31420097   3.918   6.711   8.596  0.1094 -0.0035 -0.0291
  176SAPI  H14X20098   3.890   6.811   8.557 -0.1967 -0.5677 -1.3111
  176SAPI  H14Y20099   4.029   6.713   8.590  0.2250 -0.6148  1.3837
  176SAPI  C31520100   3.878   6.687   8.745  0.2580  0.1260 -0.6090
  176SAPI  H15X20101   3.769   6.664   8.748 -0.1262  1.5311 -2.2757
  176SAPI  H15Y20102   3.907   6.780   8.798  0.5969  0.7669 -1.8911
  176SAPI  C31620103   3.944   6.576   8.832 -0.7234 -0.0716 -0.0510
  176SAPI  H16X20104   3.897   6.478   8.810 -2.4228  0.3473  1.4471
  176SAPI  H16Y20105   3.927   6.611   8.936 -1.1328  1.0577 -0.4757
  176SAPI  C31720106   4.093   6.560   8.803  0.3303  0.5605 -0.3216
  176SAPI  H17X20107   4.156   6.650   8.818  3.4830 -1.5637 -0.0201
  176SAPI  H17Y20108   4.105   6.534   8.696 -3.2623 -0.5096 -0.5957
  176SAPI  C31820109   4.159   6.436   8.865 -0.0780 -0.1961 -0.3368
  176SAPI  H18X20110   4.126   6.346   8.810 -3.2230  1.3942 -1.2880
  176SAPI  H18Y20111   4.128   6.436   8.972 -1.8732 -1.3567 -0.8176
  176SAPI  H18Z20112   4.270   6.447   8.869 -0.0267 -0.3124 -1.3635
  177SLPC     N20113   4.685   5.033  10.904 -0.0174  0.1153 -0.4164
  177SLPC   C1320114   4.747   5.012  11.039 -0.0431 -0.1385  0.5760
  177SLPC  H13A20115   4.792   4.915  11.056  2.2723  1.1799  2.5976
  177SLPC  H13B20116   4.830   5.076  11.063 -0.6098  0.7602  0.1842
  177SLPC  H13C20117   4.680   5.015  11.124 -0.0100  0.6788  0.5760
  177SLPC   C1420118   4.642   5.178  10.897  0.4004 -0.3156  0.3679
  177SLPC  H14A20119   4.582   5.198  10.810 -0.1053 -0.0619  0.7662
  177SLPC  H14B20120   4.576   5.201  10.980  2.0006  0.8820  1.3646
  177SLPC  H14C20121   4.724   5.246  10.914  0.2756 -0.1872  0.4682
  177SLPC   C1520122   4.561   4.942  10.895  0.4451 -0.1886  0.9899
  177SLPC  H15A20123   4.486   4.999  10.948  0.0675  0.2850 -0.0277
  177SLPC  H15B20124   4.533   4.923  10.793  2.1113 -1.2167  0.6873
  177SLPC  H15C20125   4.587   4.852  10.949  0.2743  0.1503  1.6386
  177SLPC   C1220126   4.783   4.995  10.801 -0.7028 -0.0300  0.0120
  177SLPC  H12A20127   4.733   4.994  10.706  0.4209 -1.6148 -0.6178
  177SLPC  H12B20128   4.820   4.894  10.802  0.2799  0.2829 -1.3752
  177SLPC   C1120129   4.907   5.089  10.763  0.7119 -0.1489 -0.4059
  177SLPC  H11A20130   4.863   5.183  10.724  2.2118  1.0065  0.5685
  177SLPC  H11B20131   4.962   5.040  10.680  0.2907 -0.2301 -0.6369
  177SLPC     P20132   5.100   5.007  10.906  0.3634 -0.2683  0.4588
  177SLPC   O1320133   5.170   5.034  11.036  0.0089 -0.2542 -0.0790
  177SLPC   O1420134   5.043   4.873  10.881 -0.4104 -0.3268 -0.4848
  177SLPC   O1220135   4.986   5.115  10.875  0.1748 -0.2671  0.0868
  177SLPC   O1120136   5.213   5.024  10.789 -0.1135  0.4126 -0.1926
  177SLPC    C120137   5.250   5.150  10.759 -0.4880 -0.7773  0.9311
  177SLPC    HA20138   5.192   5.237  10.798  0.9158  0.5642  0.1818
  177SLPC    HB20139   5.354   5.171  10.792 -0.0350  0.5442 -1.1093
  177SLPC    C220140   5.270   5.164  10.600 -0.3791 -0.4194 -0.3489
  177SLPC    HS20141   5.341   5.247  10.580  0.0195 -0.7058 -0.1404
  177SLPC   O2120142   5.145   5.190  10.529 -0.4170 -0.7158 -0.2474
  177SLPC   C2120143   5.106   5.317  10.541  0.0775 -0.2130 -0.7684
  177SLPC   O2220144   5.169   5.408  10.594  0.2476 -0.0614  0.1928
  177SLPC   C2220145   4.965   5.327  10.482 -0.0801 -0.4281  0.4295
  177SLPC   H2R20146   4.914   5.232  10.455 -2.8729  0.6793  1.3914
  177SLPC   H2S20147   4.899   5.355  10.568 -0.7981  0.4589 -0.3820
  177SLPC    C320148   5.336   5.041  10.548  1.3045  0.4914  0.3716
  177SLPC    HX20149   5.263   4.958  10.562 -0.0280  1.2454 -1.6981
  177SLPC    HY20150   5.430   5.022  10.606  3.3523  0.9379 -2.5821
  177SLPC   O3120151   5.352   5.049  10.406 -0.0542 -0.2135  0.7627
  177SLPC   C3120152   5.475   5.091  10.359  0.5916  0.4313 -0.1826
  177SLPC   O3220153   5.565   5.128  10.428  0.1376 -0.2436  0.5124
  177SLPC   C3220154   5.478   5.082  10.209  0.0842 -0.4878 -0.2868
  177SLPC   H2X20155   5.399   5.009  10.183  0.4436  0.2055 -3.7788
  177SLPC   H2Y20156   5.574   5.030  10.188  0.1444  0.1677 -1.7323
  177SLPC   C2320157   4.962   5.432  10.367 -0.0615  0.5034  1.0415
  177SLPC   H3R20158   5.034   5.388  10.295 -0.3006 -1.3317  1.8878
  177SLPC   H3S20159   4.988   5.534  10.404 -4.3494  2.2162 -0.0974
  177SLPC   C2420160   4.827   5.427  10.287  0.1023  0.2383 -0.3292
  177SLPC   H4R20161   4.820   5.527  10.239 -1.5955  1.0472  1.4510
  177SLPC   H4S20162   4.746   5.428  10.363  1.2452 -0.1125  0.9352
  177SLPC   C2520163   4.820   5.311  10.181 -0.5811  0.0854 -0.8209
  177SLPC   H5R20164   4.805   5.222  10.245  0.4044 -0.1857 -0.9533
  177SLPC   H5S20165   4.910   5.290  10.120  0.2875  1.1409  0.0436
  177SLPC   C2620166   4.711   5.347  10.075 -0.3096 -0.0773 -0.9596
  177SLPC   H6R20167   4.742   5.438  10.019  1.5881  1.7656  2.7245
  177SLPC   H6S20168   4.612   5.354  10.124 -0.5584 -0.3127 -1.4216
  177SLPC   C2720169   4.696   5.235   9.964  0.3364  0.5407  0.1330
  177SLPC   H7R20170   4.697   5.141  10.023  2.0114  1.2666  1.3543
  177SLPC   H7S20171   4.787   5.238   9.900 -0.0703 -0.0029 -0.4775
  177SLPC   C2820172   4.567   5.244   9.882  0.7839  0.1681 -0.3174
  177SLPC   H8R20173   4.479   5.252   9.949  1.7871 -1.0317  1.2114
  177SLPC   H8S20174   4.551   5.150   9.825 -0.2971 -1.2420  2.1597
  177SLPC   C2920175   4.562   5.364   9.787  0.4882  0.2422  0.4035
  177SLPC   H9R20176   4.648   5.432   9.777 -2.2179  3.5464 -4.0695
  177SLPC  C21020177   4.462   5.382   9.693 -0.3255 -0.0479  0.2989
  177SLPC  H10R20178   4.460   5.473   9.631  0.7824 -0.8853 -1.0250
  177SLPC  C21120179   4.341   5.291   9.668 -0.4846 -0.2153 -0.5352
  177SLPC  H11R20180   4.367   5.186   9.693  1.7758  0.3837 -0.2326
  177SLPC  H11S20181   4.251   5.316   9.729 -0.8086 -0.6557 -0.8257
  177SLPC  C21220182   4.326   5.302   9.518 -0.1101  0.1978 -0.0005
  177SLPC  H12R20183   4.419   5.269   9.469  0.6494  1.6618  0.4006
  177SLPC  C21320184   4.228   5.355   9.441 -0.9829 -0.6276 -0.7728
  177SLPC  H13R20185   4.231   5.346   9.332 -0.9641 -1.0951 -0.7357
  177SLPC  C21420186   4.097   5.418   9.485 -0.6752 -0.0314  0.5456
  177SLPC  H14R20187   4.073   5.514   9.434 -0.0248 -0.9741 -1.6493
  177SLPC  H14S20188   4.098   5.442   9.594 -0.1114 -0.1399  0.5689
  177SLPC  C21520189   3.974   5.338   9.450  1.2254  0.2986 -0.0637
  177SLPC  H15R20190   3.990   5.241   9.502  0.9583  0.8386  1.0629
  177SLPC  H15S20191   3.973   5.326   9.340  0.7927 -0.3722  0.0115
  177SLPC  C21620192   3.833   5.390   9.503  0.4355 -0.5378  0.4320
  177SLPC  H16R20193   3.818   5.381   9.612  0.9380 -0.2535  0.5280
  177SLPC  H16S20194   3.747   5.338   9.456  1.0583 -0.6195 -0.6555
  177SLPC  C21720195   3.810   5.541   9.467  0.1969 -0.4620 -0.7754
  177SLPC  H17R20196   3.848   5.551   9.363 -1.8440  2.2246 -1.3641
  177SLPC  H17S20197   3.886   5.609   9.512  2.8879 -0.8666 -4.2824
  177SLPC  C21820198   3.669   5.608   9.477  0.1309 -0.2442 -0.3313
  177SLPC  H18R20199   3.640   5.626   9.582  2.8884  0.8013  0.3366
  177SLPC  H18S20200   3.598   5.536   9.431 -0.9720  0.6673 -0.1126
  177SLPC  H18T20201   3.678   5.706   9.425 -0.1133  0.7320  1.4059
  177SLPC   C3320202   5.460   5.219  10.148  0.0576 -0.4727  0.9862
  177SLPC   H3X20203   5.504   5.210  10.046 -0.6973  0.1338  0.5997
  177SLPC   H3Y20204   5.527   5.288  10.203  1.1157 -0.0965 -0.7011
  177SLPC   C3420205   5.324   5.279  10.157  0.3089 -0.0038 -0.5514
  177SLPC   H4X20206   5.313   5.384  10.122 -4.3069 -0.6970 -1.7697
  177SLPC   H4Y20207   5.294   5.283  10.263 -1.5973 -0.6451 -1.0215
  177SLPC   C3520208   5.216   5.203  10.087  0.5772 -0.5055 -0.4033
  177SLPC   H5X20209   5.131   5.275  10.082  1.7654  0.8886 -2.8149
  177SLPC   H5Y20210   5.190   5.106  10.133 -0.4132  1.3742  3.3946
  177SLPC   C3620211   5.248   5.180   9.939  0.3233 -0.3138  0.7726
  177SLPC   H6X20212   5.313   5.091   9.923 -0.2927 -0.7863  0.8896
  177SLPC   H6Y20213   5.297   5.270   9.896  0.0562  0.2128  1.5428
  177SLPC   C3720214   5.119   5.170   9.846  0.8119  0.6127  0.8285
  177SLPC   H7X20215   5.054   5.260   9.856 -2.2014 -1.1726 -1.0483
  177SLPC   H7Y20216   5.076   5.075   9.884  0.1616 -0.0857 -1.4830
  177SLPC   C3820217   5.148   5.155   9.702 -0.2204  0.4482 -0.7130
  177SLPC   H8X20218   5.210   5.064   9.690 -0.3493  0.0564  1.2481
  177SLPC   H8Y20219   5.201   5.247   9.671 -0.6920  1.3923  1.1504
  177SLPC   C3920220   5.028   5.125   9.618 -0.8632  1.0824 -0.3943
  177SLPC   H9X20221   4.985   5.028   9.652  2.1393 -1.0275 -2.1163
  177SLPC   H9Y20222   5.068   5.102   9.516 -0.1433  1.5676 -0.2233
  177SLPC  C31020223   4.928   5.235   9.617 -1.3354  0.3164  0.0192
  177SLPC  H10X20224   4.982   5.326   9.584 -0.2964 -0.3044 -0.0124
  177SLPC  H10Y20225   4.882   5.254   9.717  1.0377 -1.4260  1.5556
  177SLPC  C31120226   4.803   5.219   9.528 -0.2655  0.3564  0.3538
  177SLPC  H11X20227   4.742   5.311   9.543  0.7746  1.1741 -0.2740
  177SLPC  H11Y20228   4.735   5.138   9.561 -0.6861  0.9352  0.9482
  177SLPC  C31220229   4.830   5.177   9.383 -0.7599 -0.1594 -0.0210
  177SLPC  H12X20230   4.878   5.077   9.379  0.7427  0.5527 -0.6150
  177SLPC  H12Y20231   4.900   5.249   9.335  0.1132 -0.8032  0.2592
  177SLPC  C31320232   4.698   5.186   9.306  0.1934 -0.3002  0.1403
  177SLPC  H13X20233   4.646   5.283   9.326  0.0078 -0.6916  1.7169
  177SLPC  H13Y20234   4.626   5.105   9.333 -1.0158  0.6916  0.0002
  177SLPC  C31420235   4.707   5.180   9.151  0.3138 -0.9483  0.0345
  177SLPC  H14X20236   4.752   5.275   9.114 -1.7892 -0.0708 -0.3968
  177SLPC  H14Y20237   4.604   5.180   9.111  0.2149 -1.7489  0.2686
  177SLPC  C31520238   4.793   5.067   9.100  0.4004  0.2821  0.2583
  177SLPC  H15X20239   4.754   4.970   9.138 -0.1192  0.2173 -0.4249
  177SLPC  H15Y20240   4.894   5.078   9.145  1.0637 -0.4337 -1.0093
  177SLPC  C31620241   4.820   5.065   8.952 -0.0561 -0.1701 -0.0877
  177SLPC  H16X20242   4.841   5.170   8.925 -0.4904  0.7396  2.7983
  177SLPC  H16Y20243   4.720   5.040   8.910  0.3267  0.5312 -1.4655
  177SLPC  C31720244   4.924   4.966   8.904  0.7440  0.5213  0.1615
  177SLPC  H17X20245   4.907   4.859   8.927  0.2603  0.6507  0.4168
  177SLPC  H17Y20246   5.017   4.997   8.956  0.2349  1.3490  0.6047
  177SLPC  C31820247   4.937   4.988   8.757  0.4112 -0.2045  0.7115
  177SLPC  H18X20248   4.975   5.089   8.730 -2.1317  0.6587  0.1128
  177SLPC  H18Y20249   4.850   4.967   8.692  1.2170  2.3756 -1.3743
  177SLPC  H18Z20250   5.013   4.919   8.713 -0.2482 -1.0707  0.9091
  178SLPC     N20251   4.378   5.761  11.307 -0.2880 -0.5086 -0.6034
  178SLPC   C1320252   4.347   5.905  11.339  0.0547  0.5132  0.0190
  178SLPC  H13A20253   4.242   5.927  11.328  0.5001  1.7965 -2.3931
  178SLPC  H13B20254   4.378   5.924  11.441 -0.7352 -1.9837  0.7833
  178SLPC  H13C20255   4.403   5.971  11.274 -0.9589  0.1770 -1.2434
  178SLPC   C1420256   4.305   5.678  11.402  0.1046 -0.0536  0.0729
  178SLPC  H14A20257   4.333   5.576  11.383 -0.2363 -0.0331 -0.5697
  178SLPC  H14B20258   4.334   5.699  11.504 -0.1671  2.2719 -0.2615
  178SLPC  H14C20259   4.199   5.695  11.389  0.2611  1.9327  0.9988
  178SLPC   C1520260   4.523   5.732  11.336 -0.6822 -0.7004 -0.7965
  178SLPC  H15A20261   4.544   5.730  11.442 -0.5429 -1.2210 -0.8331
  178SLPC  H15B20262   4.561   5.650  11.277 -0.5408 -1.2280  0.0151
  178SLPC  H15C20263   4.578   5.814  11.292 -0.4713 -2.0854 -3.3163
  178SLPC   C1220264   4.344   5.730  11.160 -0.5850  0.5230  0.2620
  178SLPC  H12A20265   4.417   5.780  11.097 -0.4243  0.9901  0.8122
  178SLPC  H12B20266   4.245   5.766  11.139 -1.0723 -0.4305  0.8625
  178SLPC   C1120267   4.330   5.578  11.110  0.2786  0.1399  0.4300
  178SLPC  H11A20268   4.292   5.571  11.006 -0.1476  0.4949  0.5560
  178SLPC  H11B20269   4.249   5.525  11.165 -0.6851  0.1622 -0.9102
  178SLPC     P20270   4.565   5.518  11.035  0.4936  0.1101  0.0436
  178SLPC   O1320271   4.690   5.495  11.109 -0.1143  1.1330  0.1293
  178SLPC   O1420272   4.534   5.440  10.916  0.0351 -0.0707  0.1682
  178SLPC   O1220273   4.444   5.499  11.131  0.2838 -0.4090  0.0698
  178SLPC   O1120274   4.556   5.677  11.000  0.0956  0.2989  0.2447
  178SLPC    C120275   4.676   5.744  10.957 -0.1993 -0.2091 -0.1146
  178SLPC    HA20276   4.732   5.786  11.043 -1.2554  0.3759  0.3048
  178SLPC    HB20277   4.746   5.685  10.894 -0.1684  0.3286 -0.6013
  178SLPC    C220278   4.639   5.873  10.874 -0.8735 -0.5422 -0.8070
  178SLPC    HS20279   4.568   5.921  10.944  0.5318 -0.9795  0.9944
  178SLPC   O2120280   4.586   5.834  10.748 -0.7437 -0.1750  0.1988
  178SLPC   C2120281   4.538   5.928  10.669  0.5589 -0.2511  0.0378
  178SLPC   O2220282   4.511   6.049  10.689 -0.5389 -0.1213 -0.8559
  178SLPC   C2220283   4.506   5.868  10.533 -0.5907 -0.6849  0.0908
  178SLPC   H2R20284   4.564   5.774  10.521 -2.0405 -1.6038  0.1011
  178SLPC   H2S20285   4.400   5.837  10.517 -0.4687 -0.5969 -0.9555
  178SLPC    C320286   4.764   5.961  10.851 -0.8496  0.0418  0.3832
  178SLPC    HX20287   4.817   5.977  10.947 -2.4206 -1.0973  1.5077
  178SLPC    HY20288   4.729   6.059  10.813  0.9238 -0.1835 -2.0879
  178SLPC   O3120289   4.845   5.908  10.746 -0.4210  0.1880 -0.0098
  178SLPC   C3120290   4.951   5.834  10.783 -0.1853  0.2594 -0.1700
  178SLPC   O3220291   5.007   5.837  10.892  0.1667  0.4366 -0.1184
  178SLPC   C3220292   4.997   5.746  10.669  0.2735 -0.2559  0.0193
  178SLPC   H2X20293   4.910   5.736  10.602  1.2516 -0.4855 -1.2526
  178SLPC   H2Y20294   5.025   5.649  10.716 -0.2638  0.4379  1.8611
  178SLPC   C2320295   4.548   5.962  10.426  0.6881  0.2898 -0.3182
  178SLPC   H3R20296   4.659   5.971  10.421  0.7144 -0.6352 -2.0258
  178SLPC   H3S20297   4.511   6.065  10.444 -0.0753 -0.1491  0.7046
  178SLPC   C2420298   4.506   5.935  10.282 -0.0266  0.7382  0.6937
  178SLPC   H4R20299   4.397   5.952  10.274  0.1257  2.3119  1.4659
  178SLPC   H4S20300   4.529   5.828  10.265  0.0541  0.8390  0.1483
  178SLPC   C2520301   4.591   6.022  10.192  0.6016  0.1001 -0.6910
  178SLPC   H5R20302   4.696   5.987  10.202 -0.1744 -2.2390 -0.2398
  178SLPC   H5S20303   4.586   6.129  10.220  1.5530  0.2698 -1.1188
  178SLPC   C2620304   4.536   6.001  10.048  0.2245  0.1731 -0.8762
  178SLPC   H6R20305   4.429   6.031  10.047 -0.0388 -0.4930  1.2023
  178SLPC   H6S20306   4.541   5.894  10.021  0.8383 -0.2101  0.6378
  178SLPC   C2720307   4.607   6.093   9.942 -0.4935 -0.0461 -0.6160
  178SLPC   H7R20308   4.714   6.071   9.962 -0.9820 -1.2322  0.9200
  178SLPC   H7S20309   4.590   6.198   9.976 -0.3194  0.3572 -1.7473
  178SLPC   C2820310   4.563   6.075   9.804 -0.1225  0.8749 -0.0978
  178SLPC   H8R20311   4.569   5.964   9.804  4.0073  0.8494  3.0773
  178SLPC   H8S20312   4.638   6.127   9.739 -0.8152  3.1029  0.7874
  178SLPC   C2920313   4.426   6.125   9.765 -0.0646  0.5398  0.1282
  178SLPC   H9R20314   4.340   6.056   9.769 -0.9404  1.4534 -1.8026
  178SLPC  C21020315   4.400   6.244   9.709 -0.3589 -0.3146 -1.0576
  178SLPC  H10R20316   4.296   6.274   9.690 -0.4400  0.4663  0.4528
  178SLPC  C21120317   4.489   6.361   9.683 -0.6100  0.3872  0.2935
  178SLPC  H11R20318   4.545   6.328   9.593  0.0159 -0.8070  1.1046
  178SLPC  H11S20319   4.555   6.374   9.772  0.6997  1.1432 -0.7467
  178SLPC  C21220320   4.425   6.494   9.648 -1.2006 -0.0356  0.1209
  178SLPC  H12R20321   4.432   6.568   9.729 -0.3620  0.8211 -0.7096
  178SLPC  C21320322   4.370   6.531   9.534  0.4118 -0.2306 -0.3245
  178SLPC  H13R20323   4.317   6.627   9.528 -0.7633 -0.8593 -0.3393
  178SLPC  C21420324   4.351   6.443   9.415 -0.4137  0.0459  0.3435
  178SLPC  H14R20325   4.389   6.341   9.438 -0.7307 -0.7518 -2.2675
  178SLPC  H14S20326   4.430   6.483   9.348 -0.4006  1.8942  1.3884
  178SLPC  C21520327   4.214   6.453   9.345  0.0840 -0.7081 -0.6237
  178SLPC  H15R20328   4.219   6.398   9.249 -3.8142 -1.0566 -0.7493
  178SLPC  H15S20329   4.180   6.557   9.327 -0.7501 -0.9848 -0.6715
  178SLPC  C21620330   4.101   6.382   9.425 -0.5898 -0.6725  0.0719
  178SLPC  H16R20331   4.065   6.445   9.509 -1.5184 -1.3289  0.1852
  178SLPC  H16S20332   4.125   6.283   9.469  0.8979 -0.6634 -0.6628
  178SLPC  C21720333   3.975   6.350   9.336  0.5665 -0.0168 -0.1254
  178SLPC  H17R20334   3.904   6.291   9.398  2.6361 -3.9150 -1.1638
  178SLPC  H17S20335   3.995   6.287   9.246  1.5005 -0.7479  0.5800
  178SLPC  C21820336   3.905   6.480   9.292 -0.1103 -0.4484 -0.5005
  178SLPC  H18R20337   3.810   6.440   9.250 -0.6388 -0.5425  0.7588
  178SLPC  H18S20338   3.985   6.528   9.231  0.5284 -1.5985 -0.6093
  178SLPC  H18T20339   3.887   6.539   9.384  4.4808  0.4337  0.0903
  178SLPC   C3320340   5.109   5.816  10.593  0.4310 -1.0417 -0.0822
  178SLPC   H3X20341   5.203   5.792  10.647 -0.2639  0.4667  1.9537
  178SLPC   H3Y20342   5.099   5.926  10.607 -0.6548 -1.0831 -0.4203
  178SLPC   C3420343   5.132   5.785  10.440 -0.8135  0.5109 -0.2647
  178SLPC   H4X20344   5.152   5.676  10.440 -0.2736  0.5967  1.2814
  178SLPC   H4Y20345   5.226   5.831  10.403 -0.9777 -1.3706 -3.3678
  178SLPC   C3520346   5.017   5.817  10.349  0.6282  0.6969 -0.1443
  178SLPC   H5X20347   4.979   5.920  10.363 -2.3475 -0.4103  0.9846
  178SLPC   H5Y20348   4.931   5.749  10.371  0.5994  0.7526 -0.0843
  178SLPC   C3620349   5.050   5.778  10.203  0.5416 -0.3444 -0.5764
  178SLPC   H6X20350   5.085   5.672  10.201  0.1502 -0.4969  0.2980
  178SLPC   H6Y20351   5.128   5.843  10.159 -0.2951  0.0555 -1.5067
  178SLPC   C3720352   4.926   5.790  10.108  0.7295  0.3179 -0.1054
  178SLPC   H7X20353   4.922   5.896  10.074  4.2062  0.6285  0.0877
  178SLPC   H7Y20354   4.832   5.763  10.161  1.7175  0.7140  1.9710
  178SLPC   C3820355   4.933   5.708   9.979  0.2971  0.2675 -0.0112
  178SLPC   H8X20356   4.922   5.599   9.995  0.4901 -0.0497 -1.7878
  178SLPC   H8Y20357   5.028   5.733   9.926  0.7384  0.3901  0.8317
  178SLPC   C3920358   4.821   5.752   9.888 -0.5370 -0.7162 -0.3531
  178SLPC   H9X20359   4.807   5.862   9.890 -1.3874 -0.7818 -1.3396
  178SLPC   H9Y20360   4.718   5.726   9.924 -0.0510  1.0278  2.5948
  178SLPC  C31020361   4.846   5.717   9.743  0.2930  0.6714 -0.1062
  178SLPC  H10X20362   4.883   5.613   9.731 -0.9238  0.5144 -3.5726
  178SLPC  H10Y20363   4.920   5.790   9.703 -0.0530  0.8763 -0.3792
  178SLPC  C31120364   4.721   5.717   9.653  0.0515 -0.5109  0.1016
  178SLPC  H11X20365   4.672   5.817   9.656 -1.3762 -1.1998  1.9050
  178SLPC  H11Y20366   4.653   5.645   9.704 -0.8679 -1.0880 -1.8269
  178SLPC  C31220367   4.756   5.665   9.518 -0.4962  1.0032 -0.5989
  178SLPC  H12X20368   4.800   5.563   9.529 -0.5823  0.9743 -0.5265
  178SLPC  H12Y20369   4.832   5.726   9.464  1.6150 -0.9548 -0.0144
  178SLPC  C31320370   4.631   5.651   9.435  0.7408  0.0841  0.2127
  178SLPC  H13X20371   4.583   5.748   9.411 -0.2886 -0.9703 -2.2802
  178SLPC  H13Y20372   4.556   5.588   9.488 -0.6243  1.2167 -0.3410
  178SLPC  C31420373   4.671   5.590   9.300 -0.3408  0.6057 -0.5492
  178SLPC  H14X20374   4.733   5.502   9.328 -2.1000 -0.6767 -0.5624
  178SLPC  H14Y20375   4.745   5.652   9.245 -1.6949  1.1331 -1.8238
  178SLPC  C31520376   4.549   5.556   9.214 -0.3257 -0.2205 -0.0735
  178SLPC  H15X20377   4.583   5.474   9.146  1.1025  2.3348 -2.6888
  178SLPC  H15Y20378   4.479   5.509   9.286 -0.9226 -0.6092 -0.8930
  178SLPC  C31620379   4.497   5.671   9.142 -0.2319  0.7791  0.6267
  178SLPC  H16X20380   4.582   5.720   9.092 -0.7060  1.1310  0.1557
  178SLPC  H16Y20381   4.468   5.745   9.220 -1.4845  0.1829  0.7587
  178SLPC  C31720382   4.365   5.649   9.060 -0.0620 -0.0961  0.1741
  178SLPC  H17X20383   4.373   5.581   8.973 -3.0061  2.4571 -2.3202
  178SLPC  H17Y20384   4.340   5.739   9.000  0.6959 -0.5623 -0.8824
  178SLPC  C31820385   4.244   5.618   9.149 -0.2178 -0.0691 -0.1767
  178SLPC  H18X20386   4.194   5.703   9.201 -1.4424 -0.5405 -0.5588
  178SLPC  H18Y20387   4.265   5.530   9.213  1.4479  0.2052 -0.2949
  178SLPC  H18Z20388   4.157   5.581   9.090  0.3478  0.0607 -1.1239
  179SLPC     N20389   2.276   2.528  10.872 -0.6169 -0.2221  0.2970
  179SLPC   C1320390   2.237   2.669  10.871 -0.3210 -0.0737  0.6192
  179SLPC  H13A20391   2.294   2.717  10.949 -0.0620  2.0592 -0.8027
  179SLPC  H13B20392   2.259   2.730  10.785 -2.5205  0.8546  0.6451
  179SLPC  H13C20393   2.131   2.667  10.892 -0.2116 -0.0632  1.2065
  179SLPC   C1420394   2.291   2.486  11.012 -0.0355 -0.4633  0.2499
  179SLPC  H14A20395   2.342   2.555  11.078 -1.6404  2.5904 -1.5032
  179SLPC  H14B20396   2.196   2.458  11.056 -1.0401 -1.4779 -2.3346
  179SLPC  H14C20397   2.352   2.397  11.004  0.0574 -0.4682  0.9553
  179SLPC   C1520398   2.418   2.543  10.822 -0.2228 -0.1753 -0.0730
  179SLPC  H15A20399   2.406   2.594  10.727 -0.8700 -2.1749 -1.1321
  179SLPC  H15B20400   2.485   2.578  10.899 -0.4218 -1.6723  0.8093
  179SLPC  H15C20401   2.449   2.446  10.787 -0.9018  0.0040 -1.2343
  179SLPC   C1220402   2.197   2.428  10.798  0.1352  0.0521  0.4643
  179SLPC  H12A20403   2.195   2.459  10.695  0.2909 -2.4467 -0.3562
  179SLPC  H12B20404   2.102   2.424  10.850  0.7232 -1.2425  1.5071
  179SLPC   C1120405   2.259   2.287  10.800  0.1764  0.8825 -0.0583
  179SLPC  H11A20406   2.174   2.226  10.763 -0.7098  0.2204  2.8132
  179SLPC  H11B20407   2.260   2.257  10.907  1.3472  0.4040 -0.1942
  179SLPC     P20408   2.411   2.142  10.641 -0.0773 -0.4232 -0.0676
  179SLPC   O1320409   2.556   2.131  10.621  0.0224 -0.4802  0.3768
  179SLPC   O1420410   2.356   2.016  10.697  0.0166  0.7410 -0.2055
  179SLPC   O1220411   2.384   2.266  10.733 -0.3042  0.9191 -0.1716
  179SLPC   O1120412   2.342   2.176  10.500 -0.0987 -0.0674 -0.5670
  179SLPC    C120413   2.398   2.288  10.425 -0.1566  0.5024  0.3904
  179SLPC    HA20414   2.324   2.370  10.428 -0.7758 -0.0743  1.5874
  179SLPC    HB20415   2.495   2.329  10.462  0.0976 -0.5049  0.8952
  179SLPC    C220416   2.415   2.246  10.277 -0.2142 -0.4982  1.0593
  179SLPC    HS20417   2.477   2.327  10.232 -0.9824  0.5385  1.8380
  179SLPC   O2120418   2.294   2.229  10.200 -0.1203 -0.3462 -1.1597
  179SLPC   C2120419   2.234   2.335  10.167  0.5307  0.3176 -0.3471
  179SLPC   O2220420   2.266   2.451  10.194 -0.2288 -0.6380 -0.0400
  179SLPC   C2220421   2.116   2.300  10.078 -0.0318 -0.2387 -0.4796
  179SLPC   H2R20422   2.052   2.231  10.138  0.5699 -0.0933  0.3505
  179SLPC   H2S20423   2.071   2.399  10.054  0.2633  0.2558  0.9175
  179SLPC    C320424   2.487   2.103  10.260 -0.1569 -0.4868  0.3002
  179SLPC    HX20425   2.432   2.019  10.308  1.1347 -1.5522 -0.0457
  179SLPC    HY20426   2.585   2.111  10.311 -0.7753  1.0942  1.3323
  179SLPC   O3120427   2.500   2.075  10.121  0.6498  0.3491  0.4231
  179SLPC   C3120428   2.560   1.963  10.089  0.2959 -0.0189 -0.0164
  179SLPC   O3220429   2.605   1.882  10.166 -0.0918  1.2165 -0.1813
  179SLPC   C3220430   2.535   1.938   9.942  0.4030  0.3717 -0.1966
  179SLPC   H2X20431   2.433   1.976   9.922  0.7282  1.0343 -0.6336
  179SLPC   H2Y20432   2.547   1.829   9.925 -0.9172  0.0758  0.6300
  179SLPC   C2320433   2.153   2.238   9.949  0.4313 -0.1631  0.1805
  179SLPC   H3R20434   2.065   2.195   9.895  0.9306 -3.3604  1.7002
  179SLPC   H3S20435   2.227   2.158   9.968  1.9194  1.7618  3.0942
  179SLPC   C2420436   2.220   2.337   9.852 -0.3197 -0.4910  0.1512
  179SLPC   H4R20437   2.297   2.393   9.908  1.0766 -2.6317  0.4926
  179SLPC   H4S20438   2.138   2.407   9.824 -0.3747 -0.6228 -0.0205
  179SLPC   C2520439   2.284   2.279   9.720  0.8153  0.1915 -0.1260
  179SLPC   H5R20440   2.217   2.196   9.691 -1.0297  1.0692  1.3902
  179SLPC   H5S20441   2.370   2.230   9.770 -0.0942 -1.1843  0.1492
  179SLPC   C2620442   2.308   2.374   9.607  0.0330 -0.0518  0.2487
  179SLPC   H6R20443   2.402   2.428   9.635  0.3052  0.6750 -1.8744
  179SLPC   H6S20444   2.223   2.445   9.597  0.6434  0.5818 -0.6718
  179SLPC   C2720445   2.338   2.311   9.469  0.0056  0.2172  0.2108
  179SLPC   H7R20446   2.250   2.252   9.437 -1.0260  1.4010  0.8163
  179SLPC   H7S20447   2.419   2.236   9.483 -1.6291 -1.3689  1.7332
  179SLPC   C2820448   2.385   2.416   9.364  0.5950 -0.9740 -0.1740
  179SLPC   H8R20449   2.455   2.492   9.405 -0.1531 -0.4986  0.2400
  179SLPC   H8S20450   2.298   2.481   9.339  0.8367 -0.7585 -0.4570
  179SLPC   C2920451   2.447   2.364   9.243 -0.1420  0.2575  0.4910
  179SLPC   H9R20452   2.550   2.329   9.254 -0.6649 -1.3797  0.3260
  179SLPC  C21020453   2.394   2.355   9.118 -0.1582 -0.3040 -0.5804
  179SLPC  H10R20454   2.461   2.313   9.043  2.3738  0.2773  1.1982
  179SLPC  C21120455   2.261   2.402   9.069 -0.0453 -0.0220  0.2042
  179SLPC  H11R20456   2.191   2.426   9.153  0.8139  2.1691  0.3596
  179SLPC  H11S20457   2.212   2.317   9.017  0.0836  0.4567 -0.7181
  179SLPC  C21220458   2.266   2.523   8.984  0.5100 -0.3376  0.8090
  179SLPC  H12R20459   2.297   2.613   9.038 -2.7891  0.5285  1.4377
  179SLPC  C21320460   2.221   2.536   8.858  0.1033  0.4342  0.1122
  179SLPC  H13R20461   2.233   2.629   8.801  1.8305  0.3608  0.3084
  179SLPC  C21420462   2.178   2.415   8.776 -0.6495  0.0643 -0.0256
  179SLPC  H14R20463   2.091   2.366   8.827 -0.9601  1.4817  0.8470
  179SLPC  H14S20464   2.252   2.333   8.779 -1.0283 -0.3071 -0.5563
  179SLPC  C21520465   2.143   2.441   8.631 -0.0080 -0.6126 -1.1496
  179SLPC  H15R20466   2.232   2.499   8.598 -0.9596  2.5976  1.3277
  179SLPC  H15S20467   2.055   2.508   8.621 -0.7247 -1.1029  1.3646
  179SLPC  C21620468   2.118   2.321   8.543 -0.1311  0.4009 -0.0882
  179SLPC  H16R20469   2.027   2.267   8.575 -0.1311 -1.5884 -3.0548
  179SLPC  H16S20470   2.205   2.252   8.538  0.4164  1.0619  0.1332
  179SLPC  C21720471   2.074   2.368   8.402  0.6166  0.1521 -0.1931
  179SLPC  H17R20472   2.170   2.396   8.353 -0.3305  0.8007 -1.7850
  179SLPC  H17S20473   2.008   2.457   8.405  0.6854  0.2014 -0.1240
  179SLPC  C21820474   2.018   2.259   8.313 -0.0218 -0.0981 -0.0941
  179SLPC  H18R20475   1.998   2.291   8.209 -2.7390  2.6230  1.1355
  179SLPC  H18S20476   1.926   2.211   8.352 -0.3371 -0.7353 -1.5509
  179SLPC  H18T20477   2.100   2.183   8.310 -1.1209 -1.3335  0.2812
  179SLPC   C3320478   2.631   2.007   9.841 -0.3224  0.0542 -0.7699
  179SLPC   H3X20479   2.728   1.954   9.851 -0.7706 -0.4087  1.5463
  179SLPC   H3Y20480   2.641   2.114   9.871  0.0103  0.1646 -1.2532
  179SLPC   C3420481   2.578   1.987   9.701  0.5261 -0.5731  0.0160
  179SLPC   H4X20482   2.479   2.034   9.686 -0.1710 -1.2614  2.1762
  179SLPC   H4Y20483   2.548   1.881   9.688 -1.1335  0.0018 -1.2053
  179SLPC   C3520484   2.671   2.023   9.582  0.0814  0.0943 -0.2760
  179SLPC   H5X20485   2.612   2.025   9.488 -0.9541 -2.3471  0.2381
  179SLPC   H5Y20486   2.752   1.947   9.577  1.8171  1.9252 -1.0832
  179SLPC   C3620487   2.737   2.161   9.604 -0.0089  0.4583 -0.2908
  179SLPC   H6X20488   2.821   2.148   9.675  0.6117  2.3981 -0.6026
  179SLPC   H6Y20489   2.653   2.223   9.643 -0.2962 -0.3779  0.4375
  179SLPC   C3720490   2.790   2.217   9.468 -0.3467  0.5283 -0.1814
  179SLPC   H7X20491   2.823   2.322   9.482 -3.6217  1.5012  1.1609
  179SLPC   H7Y20492   2.693   2.220   9.414 -0.6069 -0.2035  0.2333
  179SLPC   C3820493   2.892   2.121   9.400  0.9461 -0.2435  0.4606
  179SLPC   H8X20494   2.832   2.029   9.385  0.1093  0.0577  1.7922
  179SLPC   H8Y20495   2.980   2.102   9.464  1.2587 -0.0433  0.0952
  179SLPC   C3920496   2.935   2.175   9.262  0.7760  0.4532 -0.2609
  179SLPC   H9X20497   2.947   2.284   9.278 -1.5587  1.0186 -1.8323
  179SLPC   H9Y20498   2.859   2.172   9.181  0.9527 -0.0241 -0.4131
  179SLPC  C31020499   3.073   2.126   9.215  0.6849 -0.6589 -0.8767
  179SLPC  H10X20500   3.151   2.182   9.271  1.6884 -1.2107 -1.6983
  179SLPC  H10Y20501   3.082   2.155   9.108 -0.6009  1.8482 -0.3878
  179SLPC  C31120502   3.112   1.977   9.236 -0.1980 -0.2554 -0.2138
  179SLPC  H11X20503   3.015   1.925   9.219 -1.8947  3.5071 -3.9149
  179SLPC  H11Y20504   3.137   1.967   9.343  1.2122 -3.4436 -0.7319
  179SLPC  C31220505   3.223   1.922   9.147 -0.2251  0.1728  0.1900
  179SLPC  H12X20506   3.250   1.819   9.178  1.0264  0.0960 -1.0739
  179SLPC  H12Y20507   3.316   1.978   9.170 -1.2537  0.6007  4.1879
  179SLPC  C31320508   3.187   1.927   8.997  0.0097  0.4892  0.9959
  179SLPC  H13X20509   3.101   1.996   8.981  0.3866  0.9210  0.8263
  179SLPC  H13Y20510   3.139   1.832   8.964  0.4861  0.4547  0.3878
  179SLPC  C31420511   3.296   1.958   8.889  0.0625 -0.2483  0.9974
  179SLPC  H14X20512   3.377   2.024   8.926  0.0282 -0.5090  1.5493
  179SLPC  H14Y20513   3.244   2.001   8.801  1.5161  1.3212  0.8779
  179SLPC  C31520514   3.368   1.838   8.826  0.0810 -0.1014 -0.2608
  179SLPC  H15X20515   3.287   1.766   8.801  0.0127 -0.3048  0.5162
  179SLPC  H15Y20516   3.421   1.783   8.907 -0.1335 -0.2731 -0.2346
  179SLPC  C31620517   3.444   1.861   8.693 -0.5849 -0.1528  0.2501
  179SLPC  H16X20518   3.531   1.928   8.704 -1.5738  1.2713 -0.2012
  179SLPC  H16Y20519   3.368   1.909   8.628 -1.2634 -1.8615 -0.2862
  179SLPC  C31720520   3.481   1.731   8.627 -0.9663  0.4536  0.6330
  179SLPC  H17X20521   3.516   1.747   8.523  1.0795 -1.9166  0.8567
  179SLPC  H17Y20522   3.392   1.668   8.604 -0.0632  0.5787 -4.5462
  179SLPC  C31820523   3.598   1.648   8.685 -0.1402 -0.5931  0.2842
  179SLPC  H18X20524   3.580   1.635   8.794  1.0111  1.4354  0.7688
  179SLPC  H18Y20525   3.697   1.698   8.678 -0.5667  0.7670  2.6794
  179SLPC  H18Z20526   3.614   1.552   8.631  2.4387 -0.7225  1.1557
  180SLPC     N20527   3.673   0.245  10.814 -0.0442  0.2600  0.3433
  180SLPC   C1320528   3.754   0.355  10.887  0.3811 -0.0504 -0.3184
  180SLPC  H13A20529   3.847   0.374  10.835  0.0929  1.5772 -0.2905
  180SLPC  H13B20530   3.691   0.442  10.900 -0.8211 -0.9130 -0.2698
  180SLPC  H13C20531   3.782   0.322  10.986 -1.5241 -0.6432  0.0495
  180SLPC   C1420532   3.556   0.215  10.899  0.3103 -0.0090  0.5277
  180SLPC  H14A20533   3.582   0.182  10.998 -0.6084 -0.2270  0.7011
  180SLPC  H14B20534   3.495   0.304  10.913 -0.2081  0.3014 -2.8244
  180SLPC  H14C20535   3.502   0.134  10.853  0.7578 -0.6397  1.0943
  180SLPC   C1520536   3.764   0.125  10.809 -0.2433 -0.5750  0.7916
  180SLPC  H15A20537   3.789   0.098  10.910  0.8059 -1.0470  0.4177
  180SLPC  H15B20538   3.710   0.041  10.767  0.5912 -1.2974  1.1253
  180SLPC  H15C20539   3.855   0.147  10.754  0.2031 -0.8333  1.4142
  180SLPC   C1220540   3.628   0.297  10.680 -0.3556  0.2797 -0.0633
  180SLPC  H12A20541   3.590   0.223  10.612  0.9078  0.7948 -1.4050
  180SLPC  H12B20542   3.716   0.330  10.626 -0.6129  0.9032 -0.1109
  180SLPC   C1120543   3.537   0.418  10.681 -0.3762 -0.6687  0.8734
  180SLPC  H11A20544   3.537   0.472  10.584 -1.6495  2.9789  2.6908
  180SLPC  H11B20545   3.567   0.496  10.755 -1.4027  0.1967  0.4170
  180SLPC     P20546   3.330   0.287  10.609 -0.2715 -0.1200  0.1714
  180SLPC   O1320547   3.341   0.144  10.655  0.1311 -0.0375 -0.1406
  180SLPC   O1420548   3.197   0.354  10.590 -0.6600  0.0874 -0.0199
  180SLPC   O1220549   3.402   0.381  10.705  0.2415  0.4753  0.4171
  180SLPC   O1120550   3.410   0.284  10.476 -0.1578 -0.1697 -0.7786
  180SLPC    C120551   3.375   0.372  10.365  0.9082 -0.6303  0.1419
  180SLPC    HA20552   3.378   0.477  10.401  0.7289 -1.0776  1.5140
  180SLPC    HB20553   3.460   0.372  10.293  1.3976 -0.5565  0.7097
  180SLPC    C220554   3.241   0.336  10.284  0.1466  0.3968  0.1902
  180SLPC    HS20555   3.154   0.341  10.353 -0.9909  0.8838 -1.2177
  180SLPC   O2120556   3.249   0.205  10.233 -0.0363  1.0954 -0.2214
  180SLPC   C2120557   3.132   0.141  10.224  0.4835 -0.2040 -0.5593
  180SLPC   O2220558   3.024   0.184  10.258 -0.6215 -0.0323 -0.1922
  180SLPC   C2220559   3.145   0.006  10.157  0.4167 -0.0679 -0.3808
  180SLPC   H2R20560   3.223   0.005  10.078 -1.3622  1.0167 -2.2480
  180SLPC   H2S20561   3.185  -0.059  10.237 -1.0417 -1.7933 -0.9806
  180SLPC    C320562   3.218   0.441  10.167 -0.4107 -0.4451  0.5917
  180SLPC    HX20563   3.307   0.421  10.104 -0.6317 -0.2210  0.2069
  180SLPC    HY20564   3.224   0.547  10.200  1.6053 -0.2514 -0.2499
  180SLPC   O3120565   3.102   0.409  10.087 -0.1932  0.6068  0.3133
  180SLPC   C3120566   2.985   0.460  10.122  0.2680  0.8648 -0.8072
  180SLPC   O3220567   2.961   0.528  10.222 -0.2611 -0.3804  0.2307
  180SLPC   C3220568   2.865   0.427  10.025 -0.3487 -0.2679  0.1747
  180SLPC   H2X20569   2.807   0.522  10.023  1.1140  0.6740 -1.4437
  180SLPC   H2Y20570   2.801   0.349  10.070 -1.4507  1.4605  1.7602
  180SLPC   C2320571   3.019  -0.048  10.088  0.3666 -0.2668  0.3882
  180SLPC   H3R20572   2.936  -0.042  10.162 -1.2998 -0.8989 -1.3371
  180SLPC   H3S20573   3.021  -0.154  10.052 -3.3554  0.1285 -1.4733
  180SLPC   C2420574   2.970   0.038   9.972 -0.4505  0.4468 -0.0754
  180SLPC   H4R20575   3.057   0.046   9.903 -0.5622 -2.5027 -0.6945
  180SLPC   H4S20576   2.934   0.136  10.008 -3.4189 -0.6187  0.1374
  180SLPC   C2520577   2.857  -0.023   9.884  0.4346 -1.0144  0.3823
  180SLPC   H5R20578   2.802   0.068   9.848  2.0190  1.3335  3.4567
  180SLPC   H5S20579   2.791  -0.092   9.940 -0.2915 -0.4491  0.2439
  180SLPC   C2620580   2.901  -0.085   9.751 -0.0599 -0.2539 -0.4541
  180SLPC   H6R20581   2.960  -0.178   9.764 -1.7115 -1.2849 -0.0471
  180SLPC   H6S20582   2.962  -0.013   9.692  0.7277 -1.1463 -0.7532
  180SLPC   C2720583   2.787  -0.106   9.655  0.3757  0.4196  0.1319
  180SLPC   H7R20584   2.723  -0.017   9.635  0.0758  0.1687 -0.0376
  180SLPC   H7S20585   2.722  -0.186   9.695 -2.3124  2.3078 -0.1388
  180SLPC   C2820586   2.849  -0.144   9.520 -0.4193  0.6475  0.5500
  180SLPC   H8R20587   2.912  -0.235   9.525  2.7894  2.6132 -0.6703
  180SLPC   H8S20588   2.918  -0.066   9.482  1.0128 -0.3671  1.0148
  180SLPC   C2920589   2.753  -0.162   9.403 -0.4798  0.1417 -0.3832
  180SLPC   H9R20590   2.651  -0.182   9.439 -0.1343 -0.0641  0.4904
  180SLPC  C21020591   2.773  -0.163   9.269  0.7134 -0.2190  0.0215
  180SLPC  H10R20592   2.689  -0.186   9.202  0.0150 -1.1575  1.1889
  180SLPC  C21120593   2.911  -0.143   9.203  0.3234  1.0957  0.1702
  180SLPC  H11R20594   2.984  -0.202   9.263 -0.8737  0.1063  0.7112
  180SLPC  H11S20595   2.935  -0.035   9.203  0.0910  1.1494 -0.0270
  180SLPC  C21220596   2.916  -0.190   9.059  0.3507 -0.2916 -0.4066
  180SLPC  H12R20597   2.912  -0.299   9.044 -1.8354 -0.2364 -0.6768
  180SLPC  C21320598   2.909  -0.105   8.953 -0.0093 -0.3544 -0.5292
  180SLPC  H13R20599   2.913  -0.144   8.850 -1.9323 -0.4506 -0.5897
  180SLPC  C21420600   2.899   0.047   8.962  0.6360  0.5293  0.6971
  180SLPC  H14R20601   2.996   0.097   8.978  0.1671  1.5558  0.3816
  180SLPC  H14S20602   2.836   0.080   9.048  0.6841 -0.3657  1.0947
  180SLPC  C21520603   2.850   0.086   8.825 -0.3548 -0.6447 -0.3210
  180SLPC  H15R20604   2.903   0.048   8.735 -0.7434 -1.4294 -0.2207
  180SLPC  H15S20605   2.872   0.195   8.817  1.7321 -1.1093 -1.5085
  180SLPC  C21620606   2.691   0.064   8.810  0.0725  0.5075 -0.1828
  180SLPC  H16R20607   2.635   0.121   8.888 -0.6075  0.5718 -0.7077
  180SLPC  H16S20608   2.666  -0.042   8.829  0.4197  0.5168  0.3415
  180SLPC  C21720609   2.643   0.105   8.675  0.7007 -0.3922  0.1256
  180SLPC  H17R20610   2.667   0.028   8.599 -0.9449 -1.3778  0.5442
  180SLPC  H17S20611   2.701   0.195   8.644 -0.0047 -0.2876 -0.9605
  180SLPC  C21820612   2.490   0.117   8.663  0.0680 -0.2520 -0.1430
  180SLPC  H18R20613   2.453   0.014   8.684 -2.2598  0.2390 -1.4330
  180SLPC  H18S20614   2.449   0.150   8.565 -0.7134  0.0874  0.2892
  180SLPC  H18T20615   2.457   0.190   8.740  1.3979 -1.5438  1.7361
  180SLPC   C3320616   2.914   0.398   9.877 -0.2030 -0.0029 -0.4789
  180SLPC   H3X20617   2.956   0.295   9.873  1.5588  0.5541  1.4963
  180SLPC   H3Y20618   2.989   0.476   9.850 -0.2535  0.2145 -0.0062
  180SLPC   C3420619   2.795   0.410   9.769 -0.5654  0.1270  0.3627
  180SLPC   H4X20620   2.741   0.507   9.766 -3.3135 -1.3000  0.3501
  180SLPC   H4Y20621   2.719   0.336   9.803 -1.8398  1.0493 -0.3712
  180SLPC   C3520622   2.846   0.382   9.627 -0.1883  0.8483  0.5404
  180SLPC   H5X20623   2.922   0.303   9.642 -0.0549  1.2611  2.2773
  180SLPC   H5Y20624   2.902   0.470   9.589  0.6703  0.4923  0.9704
  180SLPC   C3620625   2.731   0.343   9.525  0.5037 -0.0749  0.1422
  180SLPC   H6X20626   2.678   0.437   9.497 -0.4829 -0.8626 -0.7213
  180SLPC   H6Y20627   2.663   0.280   9.585  1.6957  0.8810  2.6396
  180SLPC   C3720628   2.773   0.264   9.397 -0.1925 -0.5415  0.6146
  180SLPC   H7X20629   2.835   0.174   9.413  1.6532  0.3419 -1.1479
  180SLPC   H7Y20630   2.855   0.325   9.353  0.6823 -0.1818  2.6035
  180SLPC   C3820631   2.649   0.223   9.315 -0.6936  0.6241 -0.2109
  180SLPC   H8X20632   2.588   0.157   9.380 -0.4064  0.4324 -0.1372
  180SLPC   H8Y20633   2.670   0.169   9.220 -1.8878 -1.7410  0.7803
  180SLPC   C3920634   2.559   0.338   9.272 -0.7933 -0.0497  0.7334
  180SLPC   H9X20635   2.625   0.427   9.260  0.1389 -0.9471 -1.2714
  180SLPC   H9Y20636   2.476   0.363   9.341 -1.6566 -0.4994 -0.1242
  180SLPC  C31020637   2.494   0.317   9.131 -0.0910 -0.1204  0.2972
  180SLPC  H10X20638   2.447   0.216   9.132  0.2072 -0.2918 -0.8879
  180SLPC  H10Y20639   2.575   0.318   9.054 -0.1448  0.1025  0.2432
  180SLPC  C31120640   2.397   0.434   9.097 -0.2152 -0.3703 -0.2025
  180SLPC  H11X20641   2.459   0.521   9.067 -0.3696  0.2567  1.1937
  180SLPC  H11Y20642   2.339   0.472   9.184 -0.1130  0.4581 -0.4886
  180SLPC  C31220643   2.306   0.399   8.982  0.3068 -0.1433  0.7046
  180SLPC  H12X20644   2.245   0.313   9.016 -1.2340  1.0934  1.1563
  180SLPC  H12Y20645   2.372   0.368   8.898  1.8444  1.6894  1.1612
  180SLPC  C31320646   2.199   0.514   8.943  0.0550  0.4409  0.3885
  180SLPC  H13X20647   2.263   0.594   8.899  1.3083  0.6904  2.5356
  180SLPC  H13Y20648   2.153   0.556   9.035 -1.3977  0.0844 -0.1444
  180SLPC  C31420649   2.084   0.467   8.856  0.8355 -0.6205 -0.0930
  180SLPC  H14X20650   2.108   0.388   8.782  0.2055 -0.8307 -0.0822
  180SLPC  H14Y20651   2.046   0.554   8.798 -0.8047 -0.7438  0.7279
  180SLPC  C31520652   1.963   0.412   8.932 -0.6221  1.0708 -1.2982
  180SLPC  H15X20653   1.912   0.493   8.987 -1.8568 -0.0453 -0.7447
  180SLPC  H15Y20654   1.993   0.340   9.011 -1.9955  3.2430  1.3782
  180SLPC  C31620655   1.860   0.336   8.853 -0.3058  0.0665  0.0294
  180SLPC  H16X20656   1.911   0.275   8.775 -2.9755 -2.3738  0.0018
  180SLPC  H16Y20657   1.800   0.412   8.799  1.2148  1.6838  0.5257
  180SLPC  C31720658   1.773   0.244   8.935 -0.3515 -0.8317 -0.4403
  180SLPC  H17X20659   1.830   0.158   8.975 -0.1960 -0.5376 -0.0181
  180SLPC  H17Y20660   1.691   0.201   8.873 -0.9506  0.6653 -0.7456
  180SLPC  C31820661   1.707   0.310   9.050  1.1981  0.1064  0.2472
  180SLPC  H18X20662   1.649   0.397   9.012  1.3373  0.4013  0.6990
  180SLPC  H18Y20663   1.780   0.341   9.129  0.4802  0.7516  0.6815
  180SLPC  H18Z20664   1.633   0.242   9.097  0.5446  0.9295  0.4389
  181SLPC     N20665   5.538   5.147  11.133  0.0201 -0.0541 -0.9466
  181SLPC   C1320666   5.544   5.198  11.277 -0.3795 -0.1018 -0.2074
  181SLPC  H13A20667   5.571   5.125  11.352 -1.3513  0.0804  0.3257
  181SLPC  H13B20668   5.617   5.276  11.292 -0.8153 -0.0394  1.7996
  181SLPC  H13C20669   5.447   5.238  11.302 -0.5973 -0.8559  0.1864
  181SLPC   C1420670   5.468   5.247  11.047 -0.2905 -0.2368  0.2893
  181SLPC  H14A20671   5.437   5.199  10.955 -0.9532  3.1280 -1.3849
  181SLPC  H14B20672   5.374   5.273  11.095 -0.6955 -2.8486  1.0608
  181SLPC  H14C20673   5.532   5.330  11.023 -1.2228  0.3972 -0.0550
  181SLPC   C1520674   5.461   5.023  11.144 -0.0468 -0.2100 -0.6354
  181SLPC  H15A20675   5.509   4.947  11.204 -0.8120 -0.2236 -0.0232
  181SLPC  H15B20676   5.358   5.033  11.177  0.1585 -0.9107  0.2830
  181SLPC  H15C20677   5.451   4.974  11.048  1.0428 -1.7289 -0.0166
  181SLPC   C1220678   5.677   5.115  11.072 -0.5746 -0.1491 -0.4168
  181SLPC  H12A20679   5.717   5.040  11.139  1.1298 -0.5557 -1.8198
  181SLPC  H12B20680   5.742   5.201  11.082 -0.7766 -0.0034 -0.3495
  181SLPC   C1120681   5.674   5.050  10.928  0.8685  0.0150  0.7623
  181SLPC  H11A20682   5.779   5.034  10.894 -0.1174  0.4782 -2.9369
  181SLPC  H11B20683   5.618   5.115  10.857  0.4975 -0.1300  0.9227
  181SLPC     P20684   5.676   4.786  10.937  0.5483 -0.0610  0.4085
  181SLPC   O1320685   5.791   4.802  11.029 -0.0901 -0.2813  0.4838
  181SLPC   O1420686   5.577   4.691  10.979  0.0558  0.5386 -0.1948
  181SLPC   O1220687   5.605   4.926  10.920 -0.0997  0.2074  0.6841
  181SLPC   O1120688   5.732   4.754  10.793 -0.0900  0.1000 -0.0355
  181SLPC    C120689   5.700   4.829  10.675 -0.1924  0.3399 -0.0903
  181SLPC    HA20690   5.601   4.879  10.678 -0.2350  0.2561 -0.0862
  181SLPC    HB20691   5.763   4.918  10.654  0.3543  0.3477  1.4470
  181SLPC    C220692   5.702   4.732  10.546 -0.9061 -0.4565  0.1229
  181SLPC    HS20693   5.630   4.647  10.557  0.0567 -1.1537  1.2332
  181SLPC   O2120694   5.840   4.689  10.529  0.1231  0.0062  0.5292
  181SLPC   C2120695   5.858   4.562  10.538 -0.3695 -0.0710 -0.7348
  181SLPC   O2220696   5.776   4.479  10.567  0.6894 -0.6439 -0.0918
  181SLPC   C2220697   6.001   4.533  10.488  0.0972  0.5239 -0.8749
  181SLPC   H2R20698   6.051   4.504  10.582 -1.7161 -1.3454 -0.3925
  181SLPC   H2S20699   5.986   4.444  10.422 -0.6037 -0.7323  0.8951
  181SLPC    C320700   5.651   4.804  10.418  0.2405  0.1465 -0.2656
  181SLPC    HX20701   5.714   4.895  10.406 -2.4086  2.3751  1.3732
  181SLPC    HY20702   5.543   4.828  10.434 -0.5606 -3.3931  0.4801
  181SLPC   O3120703   5.663   4.728  10.293 -0.1454 -0.4067 -0.3383
  181SLPC   C3120704   5.579   4.624  10.282 -0.1214  0.3443 -0.7096
  181SLPC   O3220705   5.478   4.611  10.341 -0.4269  0.1109 -0.1296
  181SLPC   C3220706   5.627   4.539  10.168  0.0543  0.0965  0.3610
  181SLPC   H2X20707   5.598   4.437  10.200 -1.3077  0.1676 -0.5622
  181SLPC   H2Y20708   5.738   4.540  10.158  0.0004 -1.2082 -0.6556
  181SLPC   C2320709   6.082   4.650  10.435 -0.3612 -0.9714 -0.5634
  181SLPC   H3R20710   6.188   4.617  10.433  0.1976  0.6071  0.9697
  181SLPC   H3S20711   6.070   4.729  10.511 -2.5531 -0.4243 -1.3938
  181SLPC   C2420712   6.043   4.700  10.297 -0.1575  0.0449  0.9608
  181SLPC   H4R20713   6.113   4.785  10.283  2.3724 -2.0776  0.0897
  181SLPC   H4S20714   5.936   4.732  10.301 -0.7521 -1.6010 -0.6455
  181SLPC   C2520715   6.053   4.597  10.185  0.1134 -0.3071 -0.4319
  181SLPC   H5R20716   6.000   4.504  10.215  0.1759 -0.4261 -0.6847
  181SLPC   H5S20717   6.153   4.557  10.158 -0.1389 -0.8989 -0.5116
  181SLPC   C2620718   5.984   4.650  10.060 -0.2676  0.4107  0.2463
  181SLPC   H6R20719   5.945   4.752  10.078 -2.6458  0.0234 -2.1487
  181SLPC   H6S20720   5.906   4.575  10.036  0.7233 -0.8180  0.7358
  181SLPC   C2720721   6.079   4.666   9.946  0.3005 -0.6254  0.0877
  181SLPC   H7R20722   6.098   4.566   9.900  0.8307 -1.0488  1.1946
  181SLPC   H7S20723   6.179   4.702   9.980 -0.2440  0.0717  0.9966
  181SLPC   C2820724   6.024   4.757   9.837  0.3704  0.1305 -0.0096
  181SLPC   H8R20725   6.109   4.790   9.773 -1.7401  2.3718 -1.8455
  181SLPC   H8S20726   5.983   4.848   9.887 -3.6044 -0.7655 -1.3117
  181SLPC   C2920727   5.918   4.701   9.748  0.8740  0.4242 -0.4403
  181SLPC   H9R20728   5.863   4.612   9.782  0.3877 -0.1526 -2.5686
  181SLPC  C21020729   5.892   4.758   9.628  0.4681 -0.6284 -0.2344
  181SLPC  H10R20730   5.801   4.726   9.574 -1.8601  2.2278  1.6353
  181SLPC  C21120731   5.961   4.885   9.573 -0.6941 -0.2872 -0.1787
  181SLPC  H11R20732   6.015   4.942   9.652  1.5092  0.6748 -2.2334
  181SLPC  H11S20733   5.881   4.947   9.529 -1.2544 -0.2918  0.7991
  181SLPC  C21220734   6.065   4.854   9.472 -0.0167  0.3396  0.1255
  181SLPC  H12R20735   6.090   4.748   9.457  0.4116  0.6992 -2.1196
  181SLPC  C21320736   6.113   4.946   9.382 -0.1715 -0.5838 -1.1626
  181SLPC  H13R20737   6.172   4.913   9.296  3.5833 -0.9804  1.3101
  181SLPC  C21420738   6.074   5.094   9.372 -0.2906 -0.2799  0.3431
  181SLPC  H14R20739   6.134   5.141   9.452  0.8775  1.2649 -1.3646
  181SLPC  H14S20740   5.964   5.111   9.373 -0.3729 -0.7457 -0.0525
  181SLPC  C21520741   6.152   5.162   9.245  0.3354  0.3375 -0.0628
  181SLPC  H15R20742   6.259   5.133   9.238  0.3014 -0.1239  1.0683
  181SLPC  H15S20743   6.151   5.273   9.254  0.6319  0.4974 -1.6784
  181SLPC  C21620744   6.077   5.116   9.117 -0.4587 -0.3978  0.3325
  181SLPC  H16R20745   5.968   5.107   9.133 -0.4067 -0.1139  0.8589
  181SLPC  H16S20746   6.112   5.013   9.097  2.4639  0.9715 -2.5057
  181SLPC  C21720747   6.107   5.205   8.995  0.0128 -0.5485 -0.3892
  181SLPC  H17R20748   6.217   5.205   8.982 -0.0068  0.1553 -0.6128
  181SLPC  H17S20749   6.062   5.304   9.018 -0.6790 -0.8481 -0.4154
  181SLPC  C21820750   6.033   5.154   8.870  0.5396  0.3101 -0.2342
  181SLPC  H18R20751   6.053   5.046   8.852  0.8677  0.1060  1.1718
  181SLPC  H18S20752   6.059   5.197   8.771 -0.5495  0.5730 -0.4135
  181SLPC  H18T20753   5.926   5.172   8.890  0.6706 -0.2130  1.0247
  181SLPC   C3320754   5.572   4.566  10.023 -0.0644 -0.2222 -0.8262
  181SLPC   H3X20755   5.589   4.667   9.981 -2.9815  0.8350  0.2579
  181SLPC   H3Y20756   5.462   4.560  10.036 -0.1816  3.1946  0.6686
  181SLPC   C3420757   5.630   4.469   9.918  0.0036  0.0903  0.3334
  181SLPC   H4X20758   5.594   4.370   9.955 -2.6170 -1.0561 -4.4706
  181SLPC   H4Y20759   5.741   4.473   9.928 -0.0542  0.4583  0.8632
  181SLPC   C3520760   5.586   4.495   9.770  0.1010  0.2750  0.1840
  181SLPC   H5X20761   5.627   4.594   9.740 -1.5174  0.6978 -0.7627
  181SLPC   H5Y20762   5.477   4.511   9.789  0.1153 -1.2612  1.7790
  181SLPC   C3620763   5.609   4.384   9.671 -0.0770  0.0917  0.0415
  181SLPC   H6X20764   5.555   4.294   9.706  1.9936 -1.8462 -1.4120
  181SLPC   H6Y20765   5.714   4.348   9.671  0.2331  0.9680  0.1027
  181SLPC   C3720766   5.564   4.420   9.532 -0.6958  0.0724 -0.0067
  181SLPC   H7X20767   5.453   4.418   9.526 -0.6221 -0.3655 -3.1584
  181SLPC   H7Y20768   5.585   4.336   9.462 -0.6873  0.1239 -0.0658
  181SLPC   C3820769   5.623   4.539   9.463 -0.3296 -0.4449  0.6688
  181SLPC   H8X20770   5.728   4.537   9.498 -0.7315 -0.3523  1.9250
  181SLPC   H8Y20771   5.567   4.634   9.478 -0.3648 -0.3519  0.0095
  181SLPC   C3920772   5.613   4.522   9.306 -0.4931 -0.8731 -0.8528
  181SLPC   H9X20773   5.518   4.502   9.253 -1.3779  0.0200  0.3526
  181SLPC   H9Y20774   5.666   4.429   9.276  0.0074 -0.9596  0.2373
  181SLPC  C31020775   5.673   4.642   9.238  0.0924 -0.9816 -0.2542
  181SLPC  H10X20776   5.700   4.718   9.314  2.5187 -0.2305 -1.7845
  181SLPC  H10Y20777   5.600   4.690   9.169  0.9578  0.6106 -0.0955
  181SLPC  C31120778   5.805   4.621   9.161 -0.6250 -0.5375 -0.7303
  181SLPC  H11X20779   5.795   4.544   9.082 -2.2972  0.6637 -1.7601
  181SLPC  H11Y20780   5.892   4.586   9.220  0.0705 -0.4244 -1.6592
  181SLPC  C31220781   5.852   4.747   9.092 -0.3055 -0.9489 -0.1520
  181SLPC  H12X20782   5.913   4.809   9.161 -1.3502  0.9972 -0.9252
  181SLPC  H12Y20783   5.765   4.810   9.067  0.2269  0.2377  0.8897
  181SLPC  C31320784   5.940   4.735   8.964  0.0040 -0.4672  0.0191
  181SLPC  H13X20785   5.986   4.835   8.949 -1.9170  0.6515  1.1960
  181SLPC  H13Y20786   5.869   4.720   8.880  0.3846 -1.3165 -0.1701
  181SLPC  C31420787   6.045   4.620   8.963 -0.6920  0.1680 -0.1214
  181SLPC  H14X20788   5.994   4.524   8.987 -0.5605 -0.3413 -1.7282
  181SLPC  H14Y20789   6.120   4.641   9.042 -1.2909  1.0055  0.2390
  181SLPC  C31520790   6.110   4.602   8.827 -0.2652  0.3420  0.1316
  181SLPC  H15X20791   6.150   4.702   8.800 -0.3124  0.2140 -0.4090
  181SLPC  H15Y20792   6.038   4.575   8.747  1.8605 -4.9188 -0.4329
  181SLPC  C31620793   6.218   4.498   8.817 -0.4033 -0.0349 -0.8617
  181SLPC  H16X20794   6.174   4.404   8.859 -1.5822  0.5420 -0.7445
  181SLPC  H16Y20795   6.299   4.541   8.880 -1.6881  1.9146 -0.4625
  181SLPC  C31720796   6.268   4.470   8.673 -0.5191 -0.4148 -0.6657
  181SLPC  H17X20797   6.348   4.542   8.642 -0.6725 -0.4101 -1.0577
  181SLPC  H17Y20798   6.186   4.478   8.598 -0.5643 -1.3849 -0.7210
  181SLPC  C31820799   6.323   4.325   8.667 -0.7264  0.0606 -0.0225
  181SLPC  H18X20800   6.358   4.309   8.563  0.7957  2.3058  0.0805
  181SLPC  H18Y20801   6.235   4.258   8.678 -2.4007  1.3747 -3.6940
  181SLPC  H18Z20802   6.405   4.301   8.737 -0.2027  1.5519 -0.0988
  182SLPC     N20803   4.013   4.509  10.597 -0.5985  0.5149  0.2225
  182SLPC   C1320804   3.992   4.407  10.488  0.2887  0.6204 -0.1787
  182SLPC  H13A20805   4.080   4.405  10.426  0.6352  0.2713  0.3062
  182SLPC  H13B20806   3.979   4.310  10.535  0.5253  1.0416  0.7884
  182SLPC  H13C20807   3.903   4.423  10.430  0.3467 -0.3934 -0.5772
  182SLPC   C1420808   4.115   4.459  10.701 -0.4674  0.4911  0.1301
  182SLPC  H14A20809   4.119   4.533  10.779  0.9608 -0.4177  0.9510
  182SLPC  H14B20810   4.082   4.369  10.751  0.1988 -1.0099 -1.9875
  182SLPC  H14C20811   4.213   4.435  10.663 -1.2705  0.9099 -2.4386
  182SLPC   C1520812   3.886   4.530  10.670  0.2880 -1.2768 -0.6428
  182SLPC  H15A20813   3.841   4.440  10.709  0.4677 -1.1737 -0.1839
  182SLPC  H15B20814   3.906   4.590  10.758  0.6798 -2.7603  0.3288
  182SLPC  H15C20815   3.812   4.575  10.606  0.8031 -0.1206 -0.4400
  182SLPC   C1220816   4.069   4.637  10.527  0.4782  0.1009 -0.1744
  182SLPC  H12A20817   4.093   4.709  10.604  3.7516  0.1513 -1.0963
  182SLPC  H12B20818   3.996   4.681  10.460 -0.2035  0.7138  0.9452
  182SLPC   C1120819   4.202   4.613  10.449 -0.1972  0.6549  0.3056
  182SLPC  H11A20820   4.231   4.705  10.393  2.0533 -0.5637 -0.6325
  182SLPC  H11B20821   4.182   4.541  10.367 -0.5205 -0.0714  1.0004
  182SLPC     P20822   4.424   4.663  10.597 -0.5502  0.0142  0.1779
  182SLPC   O1320823   4.351   4.745  10.698 -0.6721  0.3916 -0.0269
  182SLPC   O1420824   4.538   4.573  10.635 -0.0328 -0.1660  0.2215
  182SLPC   O1220825   4.311   4.573  10.532 -0.2200  0.4850  0.3927
  182SLPC   O1120826   4.469   4.750  10.478 -0.4414  0.3875  0.3252
  182SLPC    C120827   4.501   4.693  10.351  0.6355 -0.7025 -0.7317
  182SLPC    HA20828   4.608   4.664  10.360  1.1037  0.8826 -0.9830
  182SLPC    HB20829   4.447   4.599  10.326  1.5977 -1.5514  0.2836
  182SLPC    C220830   4.491   4.795  10.232  0.1664 -1.5723 -0.0464
  182SLPC    HS20831   4.383   4.800  10.205  0.9240  0.3559 -3.2456
  182SLPC   O2120832   4.571   4.746  10.121 -0.5963 -0.8052  0.3056
  182SLPC   C2120833   4.564   4.815  10.010  0.5775  0.4384  0.7732
  182SLPC   O2220834   4.477   4.899   9.992  0.4386 -0.3628 -0.1564
  182SLPC   C2220835   4.681   4.787   9.922  0.9499  0.5318  0.3476
  182SLPC   H2R20836   4.775   4.806   9.978  0.5762 -0.0537  1.1889
  182SLPC   H2S20837   4.669   4.683   9.886 -0.7497  0.7096  0.3181
  182SLPC    C320838   4.537   4.940  10.282 -0.3017  0.0709  0.0944
  182SLPC    HX20839   4.494   4.949  10.384 -0.6809 -1.9388  0.1590
  182SLPC    HY20840   4.496   5.013  10.210 -3.0906 -1.4608 -0.0297
  182SLPC   O3120841   4.684   4.939  10.279 -0.5099 -0.2787  0.1455
  182SLPC   C3120842   4.753   4.969  10.387 -0.3947 -0.4752  0.3645
  182SLPC   O3220843   4.707   5.009  10.493 -0.0531 -0.4848  0.1160
  182SLPC   C3220844   4.899   4.961  10.339 -0.5081  0.1417  0.5395
  182SLPC   H2X20845   4.955   5.016  10.418 -1.0737  2.9012 -0.8305
  182SLPC   H2Y20846   4.905   5.019  10.244  1.7926 -2.0078 -0.7629
  182SLPC   C2320847   4.675   4.875   9.792  0.1832 -0.4105 -0.2095
  182SLPC   H3R20848   4.744   4.962   9.796 -0.4605  0.0834  2.7756
  182SLPC   H3S20849   4.572   4.908   9.766  0.1651 -0.1880  0.1348
  182SLPC   C2420850   4.728   4.784   9.675  0.2264  0.1679 -0.3756
  182SLPC   H4R20851   4.656   4.701   9.661  3.0104 -2.2551 -1.4012
  182SLPC   H4S20852   4.824   4.735   9.704 -1.3734 -1.5412  2.5473
  182SLPC   C2520853   4.732   4.858   9.543 -0.2221 -0.0240  0.5332
  182SLPC   H5R20854   4.810   4.937   9.554 -2.3061  2.2499 -0.0203
  182SLPC   H5S20855   4.635   4.909   9.523 -1.0099 -2.0328 -1.1139
  182SLPC   C2620856   4.752   4.766   9.423 -0.3563  0.7080 -0.0507
  182SLPC   H6R20857   4.748   4.835   9.336  0.6000 -1.5490 -1.9876
  182SLPC   H6S20858   4.671   4.691   9.409  0.3130  0.2114 -1.5028
  182SLPC   C2720859   4.892   4.696   9.429  0.7216  0.0620  0.0170
  182SLPC   H7R20860   4.920   4.656   9.528  0.9319  1.8638  0.7159
  182SLPC   H7S20861   4.963   4.776   9.402  0.0544 -0.1572 -2.7584
  182SLPC   C2820862   4.895   4.582   9.316  0.1230  0.2493 -0.8797
  182SLPC   H8R20863   4.871   4.624   9.217 -0.0942  0.7045 -0.6352
  182SLPC   H8S20864   4.810   4.522   9.356 -0.7994  2.8100  1.3114
  182SLPC   C2920865   5.020   4.497   9.320 -0.7962  0.0591 -0.0421
  182SLPC   H9R20866   5.023   4.415   9.393  2.3654  0.3714  0.3213
  182SLPC  C21020867   5.121   4.522   9.233  0.7628 -0.4146 -0.5402
  182SLPC  H10R20868   5.211   4.463   9.254  0.3108 -0.5467  1.2215
  182SLPC  C21120869   5.128   4.631   9.131  0.0514  0.5768 -0.5785
  182SLPC  H11R20870   5.234   4.663   9.135 -0.0338  0.9133 -0.9338
  182SLPC  H11S20871   5.072   4.720   9.168  1.8061  0.3849  2.9057
  182SLPC  C21220872   5.098   4.586   8.988  0.8917 -0.1280  0.2034
  182SLPC  H12R20873   5.002   4.534   8.981  0.1022  1.4443 -1.4876
  182SLPC  C21320874   5.162   4.600   8.870  0.3917  0.6016 -0.2698
  182SLPC  H13R20875   5.111   4.551   8.785 -0.7123  0.5112  0.4157
  182SLPC  C21420876   5.303   4.659   8.860  0.2584 -0.4347 -0.4301
  182SLPC  H14R20877   5.386   4.586   8.848 -0.1805 -1.4766  2.2708
  182SLPC  H14S20878   5.323   4.716   8.953 -3.5783 -0.5922  0.6444
  182SLPC  C21520879   5.318   4.752   8.741 -0.5611  0.2865 -0.2684
  182SLPC  H15R20880   5.269   4.850   8.761 -0.2147  0.1994  1.1096
  182SLPC  H15S20881   5.265   4.706   8.654  0.2101  0.7294 -0.9843
  182SLPC  C21620882   5.469   4.770   8.704  0.6550 -0.2739 -0.2375
  182SLPC  H16R20883   5.466   4.807   8.599  0.4744 -0.0824 -0.1653
  182SLPC  H16S20884   5.522   4.673   8.705 -0.2117 -0.7526  0.0466
  182SLPC  C21720885   5.525   4.875   8.798 -0.2682 -0.4235 -0.5892
  182SLPC  H17R20886   5.524   4.829   8.899 -0.4153 -4.3671 -2.2300
  182SLPC  H17S20887   5.460   4.964   8.814 -0.7342 -1.2913  3.4071
  182SLPC  C21820888   5.664   4.935   8.753  0.0117  0.4543 -0.1174
  182SLPC  H18R20889   5.709   5.001   8.831  0.4337  1.4371 -1.1745
  182SLPC  H18S20890   5.657   4.994   8.659 -1.2864  0.5434  0.0095
  182SLPC  H18T20891   5.743   4.858   8.743  0.0033  0.3609  0.4872
  182SLPC   C3320892   4.946   4.822  10.305  0.0620  0.2989  0.4004
  182SLPC   H3X20893   4.883   4.785  10.222  2.2534 -0.1188 -1.1423
  182SLPC   H3Y20894   4.935   4.738  10.377  0.3860 -1.1068 -1.1204
  182SLPC   C3420895   5.089   4.834  10.258  0.4328  0.3477  0.2194
  182SLPC   H4X20896   5.150   4.877  10.340 -0.9410  3.2590 -0.1557
  182SLPC   H4Y20897   5.091   4.907  10.174 -1.1093 -0.9166 -0.9684
  182SLPC   C3520898   5.151   4.701  10.200  0.3161 -0.2577  0.9837
  182SLPC   H5X20899   5.146   4.636  10.290 -1.5868 -0.6079  0.6778
  182SLPC   H5Y20900   5.258   4.719  10.175 -0.3788  0.5226 -1.7913
  182SLPC   C3620901   5.068   4.641  10.089 -0.0035 -0.1660 -0.4091
  182SLPC   H6X20902   4.964   4.622  10.123 -0.5203  1.8137 -0.7620
  182SLPC   H6Y20903   5.113   4.549  10.046  0.1815 -0.6535  0.7884
  182SLPC   C3720904   5.066   4.724   9.960  0.8586  0.3516 -0.0670
  182SLPC   H7X20905   4.995   4.809   9.975 -0.1691 -0.6807  1.1202
  182SLPC   H7Y20906   5.012   4.669   9.880  1.1777 -0.5073  0.2991
  182SLPC   C3820907   5.203   4.769   9.909  0.1305  0.4239  0.4390
  182SLPC   H8X20908   5.268   4.685   9.942  1.2842  0.8774 -0.6203
  182SLPC   H8Y20909   5.229   4.870   9.947  1.9444  0.5855 -1.1054
  182SLPC   C3920910   5.206   4.778   9.759 -0.1487 -0.1402  0.5555
  182SLPC   H9X20911   5.124   4.844   9.722  0.1374 -0.0717  0.0262
  182SLPC   H9Y20912   5.185   4.676   9.720 -1.0373  0.9988 -2.2030
  182SLPC  C31020913   5.335   4.831   9.690 -0.5840  0.0787 -1.1595
  182SLPC  H10X20914   5.411   4.752   9.711  0.0480  0.7358 -0.9254
  182SLPC  H10Y20915   5.370   4.927   9.734 -1.5317 -0.9463  2.1004
  182SLPC  C31120916   5.305   4.858   9.542  0.3778 -0.5090 -0.5520
  182SLPC  H11X20917   5.221   4.931   9.536  0.6493 -0.2544 -1.4644
  182SLPC  H11Y20918   5.268   4.759   9.505  0.0657 -0.5657 -0.0967
  182SLPC  C31220919   5.423   4.914   9.459 -0.2538  0.2543  0.4280
  182SLPC  H12X20920   5.489   4.826   9.441  1.0267  1.4343 -0.9558
  182SLPC  H12Y20921   5.477   4.992   9.517 -0.1636  0.9359 -0.5515
  182SLPC  C31320922   5.392   4.993   9.329  0.5453 -0.0885 -0.1222
  182SLPC  H13X20923   5.489   5.014   9.280  0.6589 -0.3717 -0.0175
  182SLPC  H13Y20924   5.344   5.090   9.357 -1.9830 -0.5578 -2.4069
  182SLPC  C31420925   5.313   4.918   9.217 -0.2070 -0.5627  0.3710
  182SLPC  H14X20926   5.214   4.895   9.263  0.1895 -2.4256  0.3563
  182SLPC  H14Y20927   5.368   4.823   9.199 -1.2922 -1.1397  0.0144
  182SLPC  C31520928   5.286   4.998   9.086 -0.5396 -0.1501 -0.6561
  182SLPC  H15X20929   5.224   4.929   9.024 -0.1933 -1.1407  0.0701
  182SLPC  H15Y20930   5.377   5.019   9.026 -1.4822 -0.0505 -2.1019
  182SLPC  C31620931   5.218   5.139   9.099 -0.9437  0.0760  0.1517
  182SLPC  H16X20932   5.279   5.200   9.168 -1.3858 -0.6517  1.2224
  182SLPC  H16Y20933   5.118   5.115   9.143 -1.3102 -0.0448 -0.7289
  182SLPC  C31720934   5.211   5.215   8.964  0.8966 -1.1254  0.3485
  182SLPC  H17X20935   5.164   5.134   8.904  0.6103 -0.4532 -0.3443
  182SLPC  H17Y20936   5.314   5.233   8.926  0.4929 -1.9174 -1.1806
  182SLPC  C31820937   5.127   5.344   8.978 -0.0895 -0.5417  0.0602
  182SLPC  H18X20938   5.021   5.318   9.001  0.1896 -0.5098  1.4354
  182SLPC  H18Y20939   5.132   5.407   8.886  1.9600 -0.3211  0.2885
  182SLPC  H18Z20940   5.167   5.399   9.065 -1.5587 -0.5466  0.7729
  183SLPC     N20941   6.628   6.689  11.267 -0.3117 -0.2380 -0.4619
  183SLPC   C1320942   6.516   6.639  11.348  0.6684  0.2497  0.1336
  183SLPC  H13A20943   6.428   6.667  11.292 -0.1570 -1.4028  0.5525
  183SLPC  H13B20944   6.519   6.531  11.355 -2.3412  0.0286 -0.5673
  183SLPC  H13C20945   6.519   6.670  11.451  0.9607  0.1522  0.1558
  183SLPC   C1420946   6.610   6.632  11.127 -0.0319 -0.3254 -0.2713
  183SLPC  H14A20947   6.673   6.685  11.058 -2.3165  0.4252 -1.8871
  183SLPC  H14B20948   6.634   6.527  11.119  0.7248 -0.0802 -1.3968
  183SLPC  H14C20949   6.512   6.656  11.089  0.5654  0.6719 -1.2323
  183SLPC   C1520950   6.752   6.638  11.326  0.5473 -0.1858  0.1160
  183SLPC  H15A20951   6.843   6.669  11.276  0.5008 -1.8369 -1.0623
  183SLPC  H15B20952   6.750   6.666  11.431  2.6988  2.9103 -0.5202
  183SLPC  H15C20953   6.748   6.530  11.332 -2.6631 -0.1034  2.4009
  183SLPC   C1220954   6.630   6.842  11.267 -0.3434  0.1568 -0.9138
  183SLPC  H12A20955   6.622   6.882  11.367 -0.0094  0.0956 -0.8637
  183SLPC  H12B20956   6.552   6.869  11.197  1.6141 -0.0600 -3.3245
  183SLPC   C1120957   6.754   6.910  11.205  0.2383  0.0663 -0.2943
  183SLPC  H11A20958   6.840   6.861  11.253  0.1480  0.3586  0.1658
  183SLPC  H11B20959   6.754   7.017  11.233 -2.9302  0.1644 -0.2217
  183SLPC     P20960   6.674   6.973  10.971  0.0392 -0.0167 -0.5646
  183SLPC   O1320961   6.559   7.020  11.051  0.3418 -0.2103  0.1359
  183SLPC   O1420962   6.760   7.075  10.910 -0.8134 -0.5678 -0.2277
  183SLPC   O1220963   6.760   6.886  11.066  0.2923 -0.5983 -0.3387
  183SLPC   O1120964   6.617   6.867  10.868  0.1285 -0.2234  0.5886
  183SLPC    C120965   6.698   6.772  10.801 -0.1403 -0.1429 -0.1400
  183SLPC    HA20966   6.795   6.815  10.767 -0.0864 -0.4889 -0.4395
  183SLPC    HB20967   6.713   6.680  10.861  0.9859 -0.2582 -0.5719
  183SLPC    C220968   6.625   6.723  10.666  0.1458  0.4204  0.3125
  183SLPC    HS20969   6.686   6.638  10.629  0.0939 -0.5946  2.4075
  183SLPC   O2120970   6.631   6.825  10.564 -0.0391 -0.3148 -0.6025
  183SLPC   C2120971   6.648   6.795  10.437  0.1491  0.2783  0.4438
  183SLPC   O2220972   6.640   6.685  10.384 -0.6202 -1.1047 -0.3828
  183SLPC   C2220973   6.652   6.923  10.361  0.5424  0.5613  0.2389
  183SLPC   H2R20974   6.548   6.941  10.325  1.0788  0.6092 -1.3398
  183SLPC   H2S20975   6.676   7.005  10.431 -2.5809  1.4341  0.4179
  183SLPC    C320976   6.480   6.664  10.696  0.4470  0.5704  0.0965
  183SLPC    HX20977   6.418   6.731  10.759 -0.8691  0.8799 -1.4414
  183SLPC    HY20978   6.503   6.570  10.751 -2.6150 -1.2171 -1.3824
  183SLPC   O3120979   6.399   6.635  10.579  0.1410 -0.0173  0.3132
  183SLPC   C3120980   6.424   6.516  10.530 -0.4438 -0.3803  0.6390
  183SLPC   O3220981   6.512   6.442  10.564  0.4254 -0.2191  0.1252
  183SLPC   C3220982   6.335   6.495  10.400 -0.3737  0.4807  0.2712
  183SLPC   H2X20983   6.406   6.539  10.326 -0.8840  0.2498 -0.3718
  183SLPC   H2Y20984   6.240   6.551  10.391  0.2801  1.4726 -0.7509
  183SLPC   C2320985   6.754   6.916  10.237 -0.3383  0.5616  0.9643
  183SLPC   H3R20986   6.747   6.812  10.198 -0.2670  0.3791  1.4310
  183SLPC   H3S20987   6.861   6.932  10.263  0.1480  0.6443 -0.9438
  183SLPC   C2420988   6.714   7.001  10.116  0.7164 -0.8154  0.3227
  183SLPC   H4R20989   6.709   7.109  10.143 -1.1392 -1.0245  0.9746
  183SLPC   H4S20990   6.611   6.972  10.085 -0.4982  1.7051  1.6679
  183SLPC   C2520991   6.805   6.988  10.000  0.0273  0.2677  0.1321
  183SLPC   H5R20992   6.822   6.878   9.991 -0.5130  0.1773  0.1490
  183SLPC   H5S20993   6.905   7.033  10.013  1.2467 -2.3655  0.4561
  183SLPC   C2620994   6.738   7.046   9.870 -0.2939 -0.0315  0.1830
  183SLPC   H6R20995   6.765   7.153   9.859  0.9569 -0.2548  0.8775
  183SLPC   H6S20996   6.628   7.040   9.883 -0.2187 -0.1630  0.8042
  183SLPC   C2720997   6.781   6.969   9.745  0.2136 -0.7619  0.2929
  183SLPC   H7R20998   6.775   6.858   9.759  1.8091 -0.6418  2.2832
  183SLPC   H7S20999   6.887   6.990   9.721  0.7673 -2.1017  1.4087
  183SLPC   C2821000   6.690   7.011   9.620 -0.1101  0.0639 -0.5442
  183SLPC   H8R21001   6.588   6.979   9.652  1.0657 -1.8371  1.5821
  183SLPC   H8S21002   6.715   6.933   9.545  0.9144  0.2568 -0.4161
  183SLPC   C2921003   6.701   7.156   9.565  0.8458  0.3724 -0.5927
  183SLPC   H9R21004   6.748   7.230   9.632 -0.0280  1.0403 -0.6953
  183SLPC  C21021005   6.686   7.191   9.441 -0.4528 -0.3987  0.2027
  183SLPC  H10R21006   6.718   7.293   9.414  1.7239 -0.9702  0.4321
  183SLPC  C21121007   6.663   7.103   9.322  0.4835  0.6355  0.1260
  183SLPC  H11R21008   6.597   7.155   9.249  3.5660  1.7625 -2.0522
  183SLPC  H11S21009   6.600   7.022   9.364 -0.9068  0.4371 -2.1867
  183SLPC  C21221010   6.789   7.055   9.252 -0.6210 -0.0679 -0.9528
  183SLPC  H12R21011   6.887   7.096   9.279 -0.3636 -0.1846 -1.6862
  183SLPC  C21321012   6.790   6.974   9.146 -0.2566 -1.3907  0.1046
  183SLPC  H13R21013   6.890   6.952   9.106 -0.3136  0.7738 -1.4253
  183SLPC  C21421014   6.670   6.927   9.077 -0.4765  0.0397 -0.6872
  183SLPC  H14R21015   6.580   6.952   9.137 -0.1084 -0.7242  0.2009
  183SLPC  H14S21016   6.678   6.816   9.077 -0.0021  0.0241  1.8459
  183SLPC  C21521017   6.648   6.977   8.926 -0.1943 -0.2949 -0.3627
  183SLPC  H15R21018   6.637   7.085   8.950  2.2197  0.1898 -1.1633
  183SLPC  H15S21019   6.559   6.939   8.871  1.0492  0.2031 -2.8776
  183SLPC  C21621020   6.770   6.968   8.835  0.5852 -0.8314 -0.4867
  183SLPC  H16R21021   6.814   6.868   8.817  1.2601 -0.7029  0.3556
  183SLPC  H16S21022   6.851   7.036   8.870  0.6863 -0.4798 -1.3819
  183SLPC  C21721023   6.740   7.028   8.699 -0.0630  0.1248 -0.0175
  183SLPC  H17R21024   6.675   7.117   8.703 -1.0288 -0.5414 -0.3982
  183SLPC  H17S21025   6.679   6.948   8.652 -0.2794  0.5139 -0.3961
  183SLPC  C21821026   6.873   7.060   8.631  0.4325 -0.5338  0.2011
  183SLPC  H18R21027   6.922   7.151   8.673  0.4276 -1.2806  1.9062
  183SLPC  H18S21028   6.852   7.085   8.524 -2.0197  0.9354  0.9596
  183SLPC  H18T21029   6.939   6.971   8.624 -0.6955 -1.3364 -0.7294
  183SLPC   C3321030   6.315   6.342  10.374  0.4105 -0.4409  0.6587
  183SLPC   H3X21031   6.251   6.306  10.459 -1.0335  1.4036  0.4091
  183SLPC   H3Y21032   6.416   6.299  10.387  1.5343  1.5220 -1.1677
  183SLPC   C3421033   6.261   6.312  10.235 -0.3846 -0.5147  0.9627
  183SLPC   H4X21034   6.168   6.370  10.215  0.7291  1.8304  2.1651
  183SLPC   H4Y21035   6.236   6.205  10.221  0.7446 -0.6917  0.1481
  183SLPC   C3521036   6.362   6.359  10.126 -0.0241 -0.1465 -0.2309
  183SLPC   H5X21037   6.461   6.313  10.145  0.2449  0.7126  0.5552
  183SLPC   H5Y21038   6.364   6.470  10.130 -1.8907 -0.0768  4.0707
  183SLPC   C3621039   6.316   6.310   9.992  0.0085  0.5394  0.0511
  183SLPC   H6X21040   6.236   6.385   9.974  0.8439  1.4863  0.1963
  183SLPC   H6Y21041   6.271   6.209  10.001  0.1537  0.4136 -0.5717
  183SLPC   C3721042   6.427   6.308   9.885  0.0315  0.5030 -0.8618
  183SLPC   H7X21043   6.512   6.254   9.932 -1.5332  0.1773  1.7962
  183SLPC   H7Y21044   6.458   6.415   9.882  0.0414  0.5516  0.4115
  183SLPC   C3821045   6.385   6.241   9.758  0.7289  0.2849 -0.0480
  183SLPC   H8X21046   6.285   6.273   9.721  0.1585 -2.0305 -0.6652
  183SLPC   H8Y21047   6.382   6.131   9.772  1.8728  0.0475 -1.4054
  183SLPC   C3921048   6.490   6.256   9.652  0.9123 -0.4616  0.2735
  183SLPC   H9X21049   6.590   6.244   9.700  1.4949 -1.6806 -1.1868
  183SLPC   H9Y21050   6.502   6.360   9.615 -0.2041 -1.1201 -2.0506
  183SLPC  C31021051   6.474   6.161   9.533  0.2776  0.0814  0.1565
  183SLPC  H10X21052   6.466   6.055   9.565  0.9258 -0.2513 -0.7275
  183SLPC  H10Y21053   6.567   6.172   9.473 -0.9150  0.7476 -1.6447
  183SLPC  C31121054   6.360   6.200   9.432  0.4147  0.8522 -0.1919
  183SLPC  H11X21055   6.329   6.306   9.446 -2.1876  0.4759 -2.3291
  183SLPC  H11Y21056   6.264   6.145   9.441 -0.1933  2.0082  0.7050
  183SLPC  C31221057   6.408   6.183   9.289 -0.1311 -0.1461 -0.0429
  183SLPC  H12X21058   6.421   6.075   9.265  0.3493  0.6556 -4.1639
  183SLPC  H12Y21059   6.500   6.239   9.262  0.1775 -0.5773  0.1151
  183SLPC  C31321060   6.298   6.237   9.190  0.1054 -0.0987 -0.0408
  183SLPC  H13X21061   6.270   6.338   9.228  1.4583 -0.2011  1.3310
  183SLPC  H13Y21062   6.206   6.176   9.208  0.3702 -0.1647  1.2306
  183SLPC  C31421063   6.329   6.231   9.041 -1.0431  0.1456  0.7742
  183SLPC  H14X21064   6.414   6.301   9.026 -1.2913  1.1488  3.5278
  183SLPC  H14Y21065   6.241   6.269   8.985 -0.9447  0.9222  1.1407
  183SLPC  C31521066   6.386   6.092   8.994 -0.1045 -0.0073 -0.2120
  183SLPC  H15X21067   6.304   6.017   8.998 -1.1438  1.0939 -0.1456
  183SLPC  H15Y21068   6.466   6.064   9.066  1.9677  0.1812 -2.3443
  183SLPC  C31621069   6.454   6.102   8.862 -0.0112  0.2898  1.0304
  183SLPC  H16X21070   6.550   6.157   8.874 -0.9460  2.3470 -0.2944
  183SLPC  H16Y21071   6.395   6.175   8.803 -0.0450 -1.1403 -0.7930
  183SLPC  C31721072   6.456   5.959   8.796  0.7684  0.2545  0.2156
  183SLPC  H17X21073   6.353   5.931   8.765 -0.1202 -0.2743  3.3020
  183SLPC  H17Y21074   6.485   5.888   8.877  0.4885 -1.7172 -1.3191
  183SLPC  C31821075   6.550   5.947   8.679  0.2709 -0.0491 -0.3828
  183SLPC  H18X21076   6.510   6.013   8.598 -0.6675  0.1441  0.2117
  183SLPC  H18Y21077   6.550   5.845   8.635 -0.0193  0.1677 -0.9068
  183SLPC  H18Z21078   6.654   5.972   8.706  1.4242 -1.8677 -2.7638
  184SLPC     N21079   1.793   3.087  10.733  0.8551  0.1148 -0.0459
  184SLPC   C1321080   1.855   2.953  10.742 -0.0648  0.6776 -0.6694
  184SLPC  H13A21081   1.872   2.903  10.648 -3.1260 -1.3034 -0.3418
  184SLPC  H13B21082   1.947   2.972  10.795 -1.6138 -0.3897  2.6864
  184SLPC  H13C21083   1.795   2.881  10.797  2.2276  0.1775  1.3674
  184SLPC   C1421084   1.802   3.143  10.871 -0.1731 -0.6082  0.0202
  184SLPC  H14A21085   1.903   3.143  10.909  0.2784  0.2241 -1.1437
  184SLPC  H14B21086   1.751   3.238  10.879 -0.0706 -0.4281 -1.3683
  184SLPC  H14C21087   1.741   3.075  10.929  0.0629 -2.2415 -1.5626
  184SLPC   C1521088   1.650   3.074  10.700 -0.2873 -0.5954  0.0066
  184SLPC  H15A21089   1.587   3.032  10.777  0.5970 -0.3522  0.8934
  184SLPC  H15B21090   1.603   3.167  10.672  0.1986  0.2585  1.8923
  184SLPC  H15C21091   1.634   3.013  10.613  2.7288  0.1873 -1.2289
  184SLPC   C1221092   1.863   3.166  10.633 -0.2140 -0.2124 -0.2135
  184SLPC  H12A21093   1.795   3.246  10.605  1.2087  1.3164  0.5204
  184SLPC  H12B21094   1.865   3.110  10.541  0.4461  1.2201 -1.1138
  184SLPC   C1121095   2.004   3.216  10.669 -0.5000 -0.5023 -0.4388
  184SLPC  H11A21096   1.996   3.281  10.759 -0.6181  0.6077 -1.2227
  184SLPC  H11B21097   2.046   3.286  10.593  0.9673 -1.2880 -0.3798
  184SLPC     P21098   2.241   3.112  10.627  0.6281  0.2525  0.0080
  184SLPC   O1321099   2.304   3.241  10.669  0.7207 -0.2507  0.9784
  184SLPC   O1421100   2.324   2.996  10.664 -0.9540  0.0750 -0.2859
  184SLPC   O1221101   2.094   3.111  10.683 -0.0151  0.8567 -0.4057
  184SLPC   O1121102   2.225   3.120  10.467 -0.2779 -0.1007  0.1614
  184SLPC    C121103   2.133   3.029  10.402 -0.6604  0.1454 -0.1179
  184SLPC    HA21104   2.176   2.928  10.412 -0.9504 -0.0273 -0.5786
  184SLPC    HB21105   2.032   3.031  10.449 -2.2308 -1.0960 -3.1523
  184SLPC    C221106   2.133   3.061  10.249  0.6401 -0.4402  0.8893
  184SLPC    HS21107   2.031   3.036  10.213  0.3371  0.0033  1.4183
  184SLPC   O2121108   2.245   2.981  10.190  0.3527 -0.6565 -0.2201
  184SLPC   C2121109   2.209   2.902  10.085  0.4850 -0.0938 -0.4639
  184SLPC   O2221110   2.093   2.882  10.047 -0.1414  0.4563 -0.1856
  184SLPC   C2221111   2.345   2.844  10.030 -0.2072 -0.0312 -0.1969
  184SLPC   H2R21112   2.403   2.927   9.982  0.8559  0.1518  1.3152
  184SLPC   H2S21113   2.403   2.820  10.122 -0.6782 -2.0043 -0.3779
  184SLPC    C321114   2.158   3.219  10.220  0.2074 -0.3850  0.1545
  184SLPC    HX21115   2.263   3.229  10.255  0.5653 -3.0632  0.0898
  184SLPC    HY21116   2.089   3.274  10.287 -0.1997 -0.6819 -0.0141
  184SLPC   O3121117   2.144   3.250  10.079  0.4362 -0.8150  0.6775
  184SLPC   C3121118   2.042   3.330  10.051  0.3591 -0.1978  0.2073
  184SLPC   O3221119   1.964   3.380  10.133  0.1218  0.3533  0.2200
  184SLPC   C3221120   2.037   3.366   9.897 -0.6002 -0.4211 -0.5691
  184SLPC   H2X21121   2.129   3.426   9.889 -1.7730  1.2560 -2.5977
  184SLPC   H2Y21122   1.942   3.422   9.882 -0.0471  1.0351  1.1427
  184SLPC   C2321123   2.331   2.721   9.939 -0.3493 -0.5044 -0.0342
  184SLPC   H3R21124   2.227   2.682   9.929 -0.5725  0.0969 -0.1131
  184SLPC   H3S21125   2.374   2.640  10.003  2.4239  2.0180  1.5251
  184SLPC   C2421126   2.382   2.737   9.800 -0.0666  0.4814 -0.5005
  184SLPC   H4R21127   2.376   2.640   9.746  0.5150  1.0159 -1.5521
  184SLPC   H4S21128   2.489   2.768   9.806 -0.2886  1.0829  0.4979
  184SLPC   C2521129   2.308   2.848   9.721 -0.2590 -0.9692  0.2120
  184SLPC   H5R21130   2.281   2.920   9.801 -2.1499  0.0345 -1.2584
  184SLPC   H5S21131   2.216   2.808   9.674 -1.2122 -1.0992  2.1063
  184SLPC   C2621132   2.377   2.936   9.614  0.1433 -0.7276 -0.4297
  184SLPC   H6R21133   2.442   2.999   9.678  1.0629 -1.5942 -0.5023
  184SLPC   H6S21134   2.316   3.017   9.567  3.6010  0.9293 -2.5090
  184SLPC   C2721135   2.450   2.857   9.512 -0.5831  0.5365  0.0953
  184SLPC   H7R21136   2.506   2.772   9.558 -3.0089 -0.0157  2.3014
  184SLPC   H7S21137   2.513   2.931   9.458 -4.3980  2.6346 -1.9099
  184SLPC   C2821138   2.370   2.800   9.394 -0.1846 -0.3898 -0.4020
  184SLPC   H8R21139   2.310   2.713   9.429 -1.3504  0.3074 -0.6415
  184SLPC   H8S21140   2.434   2.759   9.313  0.3675 -0.8003  0.2295
  184SLPC   C2921141   2.269   2.901   9.341 -0.3909  0.2990  0.8207
  184SLPC   H9R21142   2.174   2.917   9.395 -1.5336  2.2414 -1.5524
  184SLPC  C21021143   2.269   2.953   9.216 -0.5101 -0.3131 -0.7714
  184SLPC  H10R21144   2.184   3.022   9.201  0.6861  0.8106 -3.0518
  184SLPC  C21121145   2.381   2.940   9.121 -0.1837 -0.4193 -0.0976
  184SLPC  H11R21146   2.351   2.912   9.018  1.6364  1.3043 -1.1814
  184SLPC  H11S21147   2.458   2.862   9.138 -0.4804 -0.6169  0.3511
  184SLPC  C21221148   2.454   3.074   9.104 -0.2683  0.4642  0.1608
  184SLPC  H12R21149   2.476   3.119   9.202 -2.1599 -0.2247  0.9577
  184SLPC  C21321150   2.473   3.144   8.989 -0.0712 -0.0619  0.4156
  184SLPC  H13R21151   2.527   3.239   9.000 -1.5061  0.6621  1.5119
  184SLPC  C21421152   2.429   3.113   8.850 -0.2481 -0.5256  0.0850
  184SLPC  H14R21153   2.465   3.011   8.826 -0.1783 -0.7390  1.0629
  184SLPC  H14S21154   2.477   3.180   8.775 -1.0355  2.0023  1.6842
  184SLPC  C21521155   2.277   3.114   8.838  0.0967 -0.0449  0.2561
  184SLPC  H15R21156   2.231   3.215   8.853  0.5714  0.3059 -0.5695
  184SLPC  H15S21157   2.229   3.047   8.912 -1.1146  1.5750  1.0226
  184SLPC  C21621158   2.232   3.075   8.699  0.6220 -0.2387 -0.1241
  184SLPC  H16R21159   2.121   3.067   8.692  0.5492 -1.1024  1.5476
  184SLPC  H16S21160   2.273   2.974   8.680  1.4874 -0.2782  1.7427
  184SLPC  C21721161   2.292   3.168   8.577 -0.2738 -0.3364 -0.0117
  184SLPC  H17R21162   2.257   3.117   8.485  2.9842 -2.2391 -0.3293
  184SLPC  H17S21163   2.402   3.157   8.586 -0.3848 -1.9919 -0.3442
  184SLPC  C21821164   2.248   3.310   8.571 -0.1461 -0.1403 -0.0141
  184SLPC  H18R21165   2.139   3.312   8.548 -0.4033 -1.4205  0.9340
  184SLPC  H18S21166   2.307   3.356   8.489  0.8644  0.7256  1.1589
  184SLPC  H18T21167   2.264   3.359   8.670  1.9879 -1.1847  0.2168
  184SLPC   C3321168   2.039   3.245   9.797  0.0569  0.5425  0.5483
  184SLPC   H3X21169   1.956   3.173   9.815  0.7827 -0.6165 -0.5674
  184SLPC   H3Y21170   2.140   3.202   9.813  0.0425  0.4240  0.3245
  184SLPC   C3421171   2.047   3.284   9.647  0.2853 -0.3903  0.9852
  184SLPC   H4X21172   2.130   3.227   9.601 -1.1106 -1.3623 -0.4152
  184SLPC   H4Y21173   2.060   3.395   9.642 -1.9819 -0.1259 -2.9435
  184SLPC   C3521174   1.923   3.254   9.558 -0.1547 -0.4069 -0.1915
  184SLPC   H5X21175   1.851   3.336   9.578  1.5300  1.1477 -0.2413
  184SLPC   H5Y21176   1.868   3.167   9.600 -1.6181  0.5363 -0.0960
  184SLPC   C3621177   1.947   3.217   9.415  0.0137 -0.4627  0.6218
  184SLPC   H6X21178   1.853   3.175   9.373  0.2629 -0.4717  0.0687
  184SLPC   H6Y21179   2.029   3.141   9.415  0.1807 -0.2975 -0.5991
  184SLPC   C3721180   1.985   3.337   9.324  0.0631 -0.4996 -0.7682
  184SLPC   H7X21181   2.088   3.366   9.355 -1.2165  3.4362  0.4218
  184SLPC   H7Y21182   1.933   3.428   9.361  0.8560  0.2693 -1.5026
  184SLPC   C3821183   1.982   3.320   9.173  0.1134  0.1679 -0.1248
  184SLPC   H8X21184   2.031   3.227   9.136  0.1613  1.0285 -2.3824
  184SLPC   H8Y21185   2.043   3.401   9.128  1.7834 -1.4706 -0.9626
  184SLPC   C3921186   1.840   3.340   9.111  0.4376  0.2326 -0.0281
  184SLPC   H9X21187   1.799   3.442   9.121 -0.8941 -0.4675  2.8557
  184SLPC   H9Y21188   1.766   3.275   9.164  1.0624 -0.8449 -0.4500
  184SLPC  C31021189   1.846   3.306   8.960 -0.7088  0.3577 -0.6357
  184SLPC  H10X21190   1.889   3.204   8.950  0.4871  0.4962  2.3176
  184SLPC  H10Y21191   1.922   3.366   8.906 -0.1497 -0.3514 -0.6476
  184SLPC  C31121192   1.705   3.326   8.892 -0.0960 -0.1699 -0.3699
  184SLPC  H11X21193   1.662   3.429   8.900 -1.3985 -0.6751 -0.6917
  184SLPC  H11Y21194   1.640   3.267   8.960 -1.3908 -0.2909 -1.6649
  184SLPC  C31221195   1.697   3.283   8.749  0.2065  0.1060 -0.3721
  184SLPC  H12X21196   1.706   3.173   8.764 -0.4488 -0.0115 -0.8167
  184SLPC  H12Y21197   1.775   3.340   8.694  0.7145 -0.5492 -0.3407
  184SLPC  C31321198   1.561   3.302   8.690  0.0293 -0.2741  0.3892
  184SLPC  H13X21199   1.572   3.284   8.581  0.4834 -2.9984  0.8156
  184SLPC  H13Y21200   1.529   3.408   8.707 -0.1421  0.0234 -1.4731
  184SLPC  C31421201   1.455   3.201   8.723 -0.3570  0.3933 -0.3073
  184SLPC  H14X21202   1.502   3.102   8.735  1.3853  1.0588 -1.3464
  184SLPC  H14Y21203   1.390   3.190   8.633  1.5828 -1.1003 -1.6007
  184SLPC  C31521204   1.362   3.243   8.841 -0.4853 -0.2152  0.0528
  184SLPC  H15X21205   1.300   3.325   8.799 -0.8063  0.1433  1.2046
  184SLPC  H15Y21206   1.413   3.282   8.932 -0.3825  2.4690 -1.0464
  184SLPC  C31621207   1.279   3.125   8.887  0.3281 -0.0246 -0.4432
  184SLPC  H16X21208   1.274   3.045   8.810  0.2716  0.1542 -0.6273
  184SLPC  H16Y21209   1.175   3.148   8.918 -0.1495  0.0464 -1.9747
  184SLPC  C31721210   1.335   3.049   9.012 -0.0656  0.1188  0.3126
  184SLPC  H17X21211   1.254   2.978   9.041 -0.1672 -0.0205 -0.2901
  184SLPC  H17Y21212   1.334   3.118   9.099 -0.6012  0.4285  0.0680
  184SLPC  C31821213   1.470   2.977   8.995 -0.4365  0.1450  0.4173
  184SLPC  H18X21214   1.502   2.919   9.084  3.1895 -1.3551 -1.6728
  184SLPC  H18Y21215   1.552   3.044   8.962 -0.1622 -1.1636 -1.7810
  184SLPC  H18Z21216   1.455   2.911   8.907  2.5556 -1.5921  1.0892
  185SLPC     N21217   5.741   5.770   6.240 -0.0902  0.6608 -0.0488
  185SLPC   C1321218   5.769   5.669   6.129 -0.4019 -0.0541 -0.6862
  185SLPC  H13A21219   5.692   5.593   6.135  0.2580 -0.6263  0.9190
  185SLPC  H13B21220   5.761   5.714   6.031  0.1637  0.0365 -0.6904
  185SLPC  H13C21221   5.867   5.628   6.143 -1.1353 -1.4987  0.5556
  185SLPC   C1421222   5.607   5.828   6.219 -0.0905  0.0854 -0.6743
  185SLPC  H14A21223   5.585   5.868   6.121  1.2184 -0.7720 -1.3346
  185SLPC  H14B21224   5.525   5.758   6.233 -2.5106  2.4066 -2.1376
  185SLPC  H14C21225   5.594   5.900   6.300  1.4578 -1.3168  0.8845
  185SLPC   C1521226   5.839   5.879   6.218  0.1558  0.0085 -0.3571
  185SLPC  H15A21227   5.817   5.947   6.299  0.4246  1.4320 -1.4247
  185SLPC  H15B21228   5.940   5.847   6.237  0.8795  2.8126  1.1674
  185SLPC  H15C21229   5.850   5.927   6.122 -3.6742 -0.5591 -1.2373
  185SLPC   C1221230   5.766   5.699   6.370  0.0610  0.0451  0.1358
  185SLPC  H12A21231   5.697   5.617   6.385  1.2684 -0.7938  1.3589
  185SLPC  H12B21232   5.739   5.767   6.450 -0.3968 -2.4047  2.2082
  185SLPC   C1121233   5.901   5.638   6.399 -0.6796  0.5128  0.0778
  185SLPC  H11A21234   5.926   5.562   6.322 -0.6598  0.4894  0.1071
  185SLPC  H11B21235   5.897   5.578   6.492  0.9587 -0.7307 -0.6032
  185SLPC     P21236   6.058   5.822   6.517 -0.2018 -0.0989  0.2025
  185SLPC   O1321237   6.205   5.852   6.494  0.1637  0.3007  0.0124
  185SLPC   O1421238   5.961   5.931   6.542  0.0937 -0.1514  0.1245
  185SLPC   O1221239   6.003   5.733   6.403  0.2742 -0.2602  0.3405
  185SLPC   O1121240   6.041   5.728   6.638  0.7125  0.1457 -0.1212
  185SLPC    C121241   6.149   5.667   6.708  0.4809 -0.0742 -0.6289
  185SLPC    HA21242   6.133   5.558   6.725  0.9269  0.2669  2.6087
  185SLPC    HB21243   6.243   5.665   6.648  1.5234  1.2850  0.8833
  185SLPC    C221244   6.175   5.731   6.848  0.4088  0.7928  0.2528
  185SLPC    HS21245   6.243   5.664   6.903 -2.6808 -1.5360  1.5684
  185SLPC   O2121246   6.056   5.744   6.923 -0.3334 -0.3453  0.9254
  185SLPC   C2121247   6.014   5.648   6.994 -0.0709  0.0911 -0.0889
  185SLPC   O2221248   6.074   5.544   7.014 -0.0584  0.5646 -1.4365
  185SLPC   C2221249   5.883   5.694   7.059  0.6513  0.6861  0.2148
  185SLPC   H2R21250   5.897   5.782   7.125  1.8273  0.3620  0.4340
  185SLPC   H2S21251   5.806   5.724   6.985  0.7690  1.7578  0.5233
  185SLPC    C321252   6.245   5.868   6.829  0.7890 -0.2376  0.5093
  185SLPC    HX21253   6.173   5.940   6.785 -1.3259 -1.9984  0.9365
  185SLPC    HY21254   6.319   5.867   6.747 -1.0724  0.8775 -1.2615
  185SLPC   O3121255   6.294   5.923   6.952 -0.2855  0.0625  0.0472
  185SLPC   C3121256   6.414   5.868   6.985  0.9109  0.1990 -0.1983
  185SLPC   O3221257   6.457   5.766   6.934  0.1103 -0.1968 -0.8717
  185SLPC   C3221258   6.483   5.950   7.092 -0.3155  0.3188 -0.2081
  185SLPC   H2X21259   6.413   5.969   7.176 -0.8526  1.8060 -0.9532
  185SLPC   H2Y21260   6.505   6.041   7.032 -0.5762 -0.1782 -1.0838
  185SLPC   C2321261   5.821   5.578   7.144  0.1807 -0.1057  0.2255
  185SLPC   H3R21262   5.900   5.539   7.213  0.6783 -0.3063 -0.4418
  185SLPC   H3S21263   5.790   5.492   7.081  2.7310 -0.0632 -1.2338
  185SLPC   C2421264   5.708   5.634   7.224  0.1803  0.0754  0.0958
  185SLPC   H4R21265   5.616   5.662   7.168 -0.3901  1.7068  1.7475
  185SLPC   H4S21266   5.737   5.729   7.274  1.1061 -1.0728  1.8511
  185SLPC   C2521267   5.667   5.532   7.336  0.2346  0.0776 -0.2611
  185SLPC   H5R21268   5.754   5.539   7.404  0.3563  0.0401 -0.4146
  185SLPC   H5S21269   5.646   5.433   7.292  1.9056 -0.2588 -0.3407
  185SLPC   C2621270   5.547   5.582   7.409  0.6069 -0.6343  0.0746
  185SLPC   H6R21271   5.461   5.581   7.339 -2.9470 -1.3169  4.0725
  185SLPC   H6S21272   5.564   5.689   7.435 -0.4936 -0.4643  0.1398
  185SLPC   C2721273   5.513   5.501   7.531 -0.4607  0.9147  0.6376
  185SLPC   H7R21274   5.602   5.502   7.597  1.1950 -2.7744 -1.2590
  185SLPC   H7S21275   5.505   5.399   7.489 -1.3696  1.4474 -0.5482
  185SLPC   C2821276   5.388   5.559   7.594  0.6974  0.3114 -0.5692
  185SLPC   H8R21277   5.305   5.536   7.524  1.4666  1.1144 -1.7841
  185SLPC   H8S21278   5.400   5.666   7.619  0.5808 -0.0647  1.2576
  185SLPC   C2921279   5.351   5.494   7.725  0.0498  0.6070  0.0493
  185SLPC   H9R21280   5.388   5.390   7.731 -2.3302 -0.5234 -2.7359
  185SLPC  C21021281   5.273   5.535   7.823 -0.2300 -0.1243  0.4048
  185SLPC  H10R21282   5.258   5.470   7.911 -1.8842  0.9325  0.9462
  185SLPC  C21121283   5.184   5.652   7.837  0.5596  0.0845 -0.5433
  185SLPC  H11R21284   5.079   5.619   7.823  1.1291 -1.3569 -1.7291
  185SLPC  H11S21285   5.208   5.728   7.759  2.1491  0.5740  0.3726
  185SLPC  C21221286   5.190   5.716   7.972  0.1825 -0.8218  0.3627
  185SLPC  H12R21287   5.240   5.813   7.960  1.1925 -1.5133 -1.3728
  185SLPC  C21321288   5.127   5.692   8.091  0.2648  0.8465  0.4160
  185SLPC  H13R21289   5.147   5.762   8.174  1.3308  1.4051 -0.2924
  185SLPC  C21421290   5.035   5.573   8.114 -0.2303 -0.5750  0.1640
  185SLPC  H14R21291   5.066   5.494   8.043 -1.1562  0.5692 -1.5926
  185SLPC  H14S21292   4.926   5.586   8.099 -0.2371 -0.3607  0.3854
  185SLPC  C21521293   5.041   5.521   8.256  0.0970  0.0606  0.0718
  185SLPC  H15R21294   5.147   5.515   8.289 -0.3062 -1.7699  1.2312
  185SLPC  H15S21295   4.992   5.421   8.265  1.3002 -0.5403  0.1854
  185SLPC  C21621296   4.977   5.613   8.365 -0.1262 -0.3225 -0.4307
  185SLPC  H16R21297   4.876   5.640   8.327 -0.0811  1.1208  0.4135
  185SLPC  H16S21298   5.042   5.703   8.377  0.4756 -0.8490  0.3510
  185SLPC  C21721299   4.971   5.552   8.506 -0.0594 -0.1110 -0.4141
  185SLPC  H17R21300   5.064   5.492   8.517  0.2345  0.1008 -1.5744
  185SLPC  H17S21301   4.883   5.484   8.514  0.8023 -1.1668  0.5130
  185SLPC  C21821302   4.954   5.656   8.617 -0.4669  0.1193 -0.0443
  185SLPC  H18R21303   4.979   5.616   8.718 -2.2003  0.5000  0.5641
  185SLPC  H18S21304   4.847   5.682   8.636 -0.5753 -0.6099  0.4008
  185SLPC  H18T21305   5.013   5.745   8.589  0.1736  0.2794  1.6827
  185SLPC   C3321306   6.612   5.894   7.153  0.7679 -0.0677 -0.3323
  185SLPC   H3X21307   6.677   5.972   7.199  1.4706 -0.5487 -0.4939
  185SLPC   H3Y21308   6.676   5.853   7.072  1.7712  0.7066  0.0518
  185SLPC   C3421309   6.588   5.791   7.268 -0.4125 -0.4358 -0.8273
  185SLPC   H4X21310   6.513   5.837   7.336  0.6561 -2.6293  2.0808
  185SLPC   H4Y21311   6.684   5.772   7.322 -0.1123 -2.0639 -1.8630
  185SLPC   C3521312   6.539   5.654   7.216  0.2626  0.1523  0.2018
  185SLPC   H5X21313   6.632   5.615   7.170  1.0064  0.4981  1.3723
  185SLPC   H5Y21314   6.463   5.665   7.136  1.3889 -0.8667 -1.0573
  185SLPC   C3621315   6.491   5.559   7.323  0.9539 -0.1242  0.1033
  185SLPC   H6X21316   6.413   5.614   7.380 -0.2836 -2.1616  0.4740
  185SLPC   H6Y21317   6.572   5.550   7.399  1.6760 -2.3389 -0.8456
  185SLPC   C3721318   6.435   5.422   7.285 -0.3603 -0.3488  1.0493
  185SLPC   H7X21319   6.435   5.362   7.378 -1.3656  1.8999  2.5832
  185SLPC   H7Y21320   6.496   5.365   7.212 -1.0846  1.4928 -1.1341
  185SLPC   C3821321   6.286   5.426   7.242 -0.2446  0.3550  0.4348
  185SLPC   H8X21322   6.248   5.323   7.229 -1.7607  0.7936  1.2196
  185SLPC   H8Y21323   6.283   5.471   7.140  0.2949 -1.1443 -0.2619
  185SLPC   C3921324   6.192   5.511   7.337  0.5960  0.1496 -0.1135
  185SLPC   H9X21325   6.091   5.509   7.290  0.5321  1.9487 -0.1122
  185SLPC   H9Y21326   6.214   5.619   7.348 -1.1810  0.3601  2.0375
  185SLPC  C31021327   6.197   5.448   7.479  0.2771  1.1725  0.2986
  185SLPC  H10X21328   6.292   5.469   7.533 -0.2594  0.8084  1.4048
  185SLPC  H10Y21329   6.180   5.338   7.478 -3.5824  1.6381 -0.0563
  185SLPC  C31121330   6.093   5.501   7.575 -0.4893 -0.3038  0.4849
  185SLPC  H11X21331   5.992   5.465   7.545  0.0994  0.6684 -2.9947
  185SLPC  H11Y21332   6.085   5.611   7.567 -0.5256 -0.4657 -2.7272
  185SLPC  C31221333   6.116   5.448   7.723  0.5262 -0.3273  0.2422
  185SLPC  H12X21334   6.223   5.452   7.748  0.4326  1.6171  0.4547
  185SLPC  H12Y21335   6.078   5.343   7.721 -1.4186  0.3152  0.6345
  185SLPC  C31321336   6.038   5.531   7.827  0.2293  0.6243  0.4098
  185SLPC  H13X21337   5.934   5.543   7.791 -0.0385 -0.1163  0.9288
  185SLPC  H13Y21338   6.076   5.634   7.810 -1.2813  1.0794 -0.4120
  185SLPC  C31421339   6.043   5.483   7.974 -0.1444  0.0520  0.0920
  185SLPC  H14X21340   6.148   5.453   7.996 -0.6001 -1.5452  0.2338
  185SLPC  H14Y21341   6.007   5.379   7.960  0.7558 -0.2257 -0.2438
  185SLPC  C31521342   5.974   5.566   8.084 -0.0618  0.1480  0.1480
  185SLPC  H15X21343   6.031   5.660   8.098 -0.3982 -0.0042  3.2178
  185SLPC  H15Y21344   5.980   5.496   8.170 -1.0989  0.6836  0.6689
  185SLPC  C31621345   5.825   5.595   8.047 -0.6466 -0.0605  0.3180
  185SLPC  H16X21346   5.826   5.660   7.957 -0.0442 -3.5117 -2.3315
  185SLPC  H16Y21347   5.786   5.646   8.138 -0.5170 -0.7954  0.7949
  185SLPC  C31721348   5.746   5.468   8.023  0.5489 -0.3051 -0.1795
  185SLPC  H17X21349   5.742   5.411   8.118  2.5459 -3.2782 -1.7066
  185SLPC  H17Y21350   5.805   5.408   7.950  2.0665  0.0838  0.6821
  185SLPC  C31821351   5.605   5.501   7.979 -0.1122  0.0562  0.4990
  185SLPC  H18X21352   5.556   5.578   8.042 -1.3149  0.8283 -1.2815
  185SLPC  H18Y21353   5.541   5.411   7.978 -1.4140  0.8375 -2.8553
  185SLPC  H18Z21354   5.602   5.542   7.875  1.2658  1.5478  0.9983
  186SLPC     N21355   6.487   2.400   6.169 -0.1216  0.2004  0.4331
  186SLPC   C1321356   6.513   2.390   6.308  0.1501 -0.0791 -0.3515
  186SLPC  H13A21357   6.427   2.354   6.362  0.3287 -0.2891 -0.2075
  186SLPC  H13B21358   6.594   2.321   6.329  0.2418 -0.0401 -0.5715
  186SLPC  H13C21359   6.541   2.486   6.350  0.3304 -0.4278  0.3281
  186SLPC   C1421360   6.363   2.486   6.143  0.1307 -0.1916 -0.0796
  186SLPC  H14A21361   6.362   2.519   6.040  1.8259 -0.0938 -0.0829
  186SLPC  H14B21362   6.268   2.436   6.161  1.6503 -3.8527 -1.2237
  186SLPC  H14C21363   6.373   2.583   6.188 -1.0215  0.7467 -1.7210
  186SLPC   C1521364   6.471   2.264   6.118  0.2122 -0.4020 -0.5689
  186SLPC  H15A21365   6.408   2.193   6.170  0.4191 -0.5118 -0.4686
  186SLPC  H15B21366   6.436   2.276   6.017  2.8699  1.2851 -1.3705
  186SLPC  H15C21367   6.564   2.209   6.115 -0.3572 -1.4962  0.5620
  186SLPC   C1221368   6.594   2.467   6.074 -0.1737 -0.8052 -0.7108
  186SLPC  H12A21369   6.573   2.445   5.971  1.1515  2.3939 -1.8016
  186SLPC  H12B21370   6.692   2.423   6.088  0.8912  1.3699 -0.8223
  186SLPC   C1121371   6.609   2.624   6.103  0.6503  0.1164  0.7204
  186SLPC  H11A21372   6.521   2.681   6.065  1.2097 -0.2526 -1.2315
  186SLPC  H11B21373   6.696   2.646   6.039 -0.6862 -2.8125 -2.4592
  186SLPC     P21374   6.577   2.776   6.312 -0.1235  0.5508 -0.0430
  186SLPC   O1321375   6.617   2.894   6.233  0.2284 -0.3088 -0.0529
  186SLPC   O1421376   6.434   2.747   6.340  0.3776 -0.3941 -0.0820
  186SLPC   O1221377   6.638   2.655   6.238  0.0348  0.0474 -0.4621
  186SLPC   O1121378   6.658   2.774   6.446  0.0917 -0.3258  0.0641
  186SLPC    C121379   6.703   2.658   6.513 -0.2193 -0.6263  0.6844
  186SLPC    HA21380   6.706   2.573   6.441 -1.2746  0.3800 -0.6128
  186SLPC    HB21381   6.808   2.680   6.543  1.0202 -1.4156 -2.6008
  186SLPC    C221382   6.624   2.620   6.637  0.3268 -0.0441 -0.1716
  186SLPC    HS21383   6.520   2.592   6.612  0.8558 -2.7594  0.3312
  186SLPC   O2121384   6.630   2.723   6.731 -0.2311  0.2009 -0.0054
  186SLPC   C2121385   6.531   2.814   6.727 -0.2029 -0.4793 -0.7050
  186SLPC   O2221386   6.447   2.829   6.640 -0.2119 -0.1444 -0.7023
  186SLPC   C2221387   6.531   2.902   6.854 -0.2711  0.6511 -0.1500
  186SLPC   H2R21388   6.532   2.834   6.942  0.0974  0.2211 -0.4792
  186SLPC   H2S21389   6.626   2.959   6.854  0.3780 -0.0228 -4.5348
  186SLPC    C321390   6.683   2.492   6.695  0.0045  0.5332  0.1562
  186SLPC    HX21391   6.790   2.518   6.705  0.1916 -0.6318  1.7437
  186SLPC    HY21392   6.669   2.416   6.615  1.2449 -0.3086  0.7026
  186SLPC   O3121393   6.636   2.468   6.830  0.3343  0.5759 -0.2536
  186SLPC   C3121394   6.706   2.374   6.900 -0.1959 -0.3701  0.0936
  186SLPC   O3221395   6.803   2.315   6.861  0.1784 -0.1281  0.4123
  186SLPC   C3221396   6.647   2.347   7.040 -0.4688  0.1903  0.4913
  186SLPC   H2X21397   6.537   2.334   7.031 -0.3849 -0.0223 -0.3058
  186SLPC   H2Y21398   6.662   2.433   7.108 -0.4544  0.9044 -0.4032
  186SLPC   C2321399   6.412   2.997   6.855  0.2963  0.4293 -0.0848
  186SLPC   H3R21400   6.321   2.935   6.845  0.6298  0.3082 -3.4387
  186SLPC   H3S21401   6.410   3.063   6.766  2.6885 -0.8685 -1.1953
  186SLPC   C2421402   6.390   3.077   6.980 -0.0376  0.2863 -0.7773
  186SLPC   H4R21403   6.482   3.132   7.006 -0.7185 -0.3749  3.9015
  186SLPC   H4S21404   6.374   3.006   7.064 -0.7275  0.2362 -0.9429
  186SLPC   C2521405   6.278   3.181   6.971  0.7016  0.5865 -0.0582
  186SLPC   H5R21406   6.195   3.144   6.907  0.7000 -1.5510  1.0845
  186SLPC   H5S21407   6.316   3.258   6.901  0.6797 -0.3702 -1.1502
  186SLPC   C2621408   6.249   3.251   7.107  0.8442 -0.0301 -0.1670
  186SLPC   H6R21409   6.343   3.290   7.151  0.2104  0.8593  0.4402
  186SLPC   H6S21410   6.201   3.185   7.182  1.1130 -0.5950 -0.4911
  186SLPC   C2721411   6.154   3.372   7.091  0.5348  0.3323  0.5375
  186SLPC   H7R21412   6.053   3.327   7.087  0.1497  0.9213  2.4928
  186SLPC   H7S21413   6.160   3.411   6.987 -0.4473 -1.0981 -0.0905
  186SLPC   C2821414   6.168   3.494   7.186  0.0232  0.2150  0.3671
  186SLPC   H8R21415   6.174   3.468   7.294 -0.3421  0.8012  0.5269
  186SLPC   H8S21416   6.084   3.558   7.152 -1.1082 -1.8133 -0.8925
  186SLPC   C2921417   6.292   3.564   7.163 -0.2283 -0.3056  0.2705
  186SLPC   H9R21418   6.352   3.515   7.085  1.4964  0.4012  1.1145
  186SLPC  C21021419   6.345   3.667   7.244  0.3774 -1.0692  0.1436
  186SLPC  H10R21420   6.450   3.697   7.228 -0.3439  0.9397 -1.3646
  186SLPC  C21121421   6.277   3.731   7.357 -0.5243 -0.5180  0.4860
  186SLPC  H11R21422   6.181   3.675   7.372  0.2282 -2.0950 -0.3554
  186SLPC  H11S21423   6.256   3.837   7.333 -3.1184 -0.9172  0.6787
  186SLPC  C21221424   6.365   3.745   7.486  0.3262 -0.0360  0.3634
  186SLPC  H12R21425   6.441   3.823   7.467  0.1617 -0.1568 -0.8670
  186SLPC  C21321426   6.345   3.683   7.606  0.0731  0.5893 -0.0822
  186SLPC  H13R21427   6.414   3.692   7.691 -0.9085 -1.3501  0.9861
  186SLPC  C21421428   6.228   3.592   7.648 -0.7143  0.3301  0.1355
  186SLPC  H14R21429   6.262   3.529   7.732  0.6957 -0.6555 -1.1101
  186SLPC  H14S21430   6.201   3.517   7.571 -1.5175  1.0996 -0.3635
  186SLPC  C21521431   6.102   3.668   7.689  0.1628  0.7686 -0.2829
  186SLPC  H15R21432   6.016   3.600   7.702  0.6370 -0.0897 -1.4596
  186SLPC  H15S21433   6.071   3.741   7.611  0.8378 -0.0603 -1.3709
  186SLPC  C21621434   6.127   3.755   7.814 -0.1965 -0.0041 -0.7949
  186SLPC  H16R21435   6.218   3.815   7.795 -1.6122  2.2969 -0.6704
  186SLPC  H16S21436   6.145   3.694   7.905 -1.6303  1.7598  0.7583
  186SLPC  C21721437   6.006   3.847   7.837 -0.8006  0.1986  0.1019
  186SLPC  H17R21438   5.925   3.826   7.764 -1.2692  2.2685 -0.0248
  186SLPC  H17S21439   6.045   3.948   7.813 -0.4609  0.6187  2.2062
  186SLPC  C21821440   5.951   3.849   7.983 -0.2961  0.5526  0.2803
  186SLPC  H18R21441   5.853   3.900   7.971 -0.7828 -0.7923 -2.0645
  186SLPC  H18S21442   6.010   3.911   8.055  0.2880 -0.1709  0.4269
  186SLPC  H18T21443   5.931   3.745   8.016  1.3429 -0.3800 -1.4833
  186SLPC   C3321444   6.704   2.225   7.108 -0.3702 -0.2794 -0.4203
  186SLPC   H3X21445   6.814   2.238   7.120 -0.2862 -0.0829 -1.2815
  186SLPC   H3Y21446   6.681   2.144   7.036 -1.3427  0.2292 -0.7011
  186SLPC   C3421447   6.637   2.182   7.235  0.3241 -0.2340 -0.0957
  186SLPC   H4X21448   6.530   2.165   7.211 -0.0260 -0.0384  1.2594
  186SLPC   H4Y21449   6.636   2.260   7.314  0.4818 -1.2867  0.9727
  186SLPC   C3521450   6.690   2.048   7.280  0.3548  0.3735  0.0148
  186SLPC   H5X21451   6.799   2.050   7.303 -0.0502 -1.5340  2.5041
  186SLPC   H5Y21452   6.679   1.973   7.199 -0.2809  0.0230  0.4183
  186SLPC   C3621453   6.616   2.006   7.402 -0.4149 -0.9437 -0.2793
  186SLPC   H6X21454   6.505   2.009   7.402 -0.4203  1.0546  1.4917
  186SLPC   H6Y21455   6.648   2.074   7.484  0.7932  0.0656 -1.5355
  186SLPC   C3721456   6.653   1.859   7.431  0.4793 -0.7013  0.5169
  186SLPC   H7X21457   6.764   1.852   7.428  0.8387  3.1570 -0.3666
  186SLPC   H7Y21458   6.607   1.791   7.356 -2.5382  1.0486  0.6244
  186SLPC   C3821459   6.612   1.810   7.571 -0.0684 -0.1173  0.0580
  186SLPC   H8X21460   6.506   1.781   7.588  0.5370 -1.7235  1.3802
  186SLPC   H8Y21461   6.620   1.893   7.645  2.0517  1.1567 -1.4772
  186SLPC   C3921462   6.698   1.698   7.621 -0.3430  1.5263  0.3492
  186SLPC   H9X21463   6.801   1.735   7.606 -0.6273  1.8731 -0.8787
  186SLPC   H9Y21464   6.687   1.608   7.556  2.5380  0.8008  0.7462
  186SLPC  C31021465   6.675   1.652   7.760  0.0278 -0.1128 -0.0071
  186SLPC  H10X21466   6.571   1.615   7.774 -0.5758  2.0898  1.9923
  186SLPC  H10Y21467   6.667   1.739   7.829 -3.4038  0.0856 -0.4476
  186SLPC  C31121468   6.793   1.561   7.810 -0.0677 -0.4906  0.4256
  186SLPC  H11X21469   6.889   1.611   7.786 -1.0814  0.6537 -1.4263
  186SLPC  H11Y21470   6.810   1.481   7.734  2.6193  3.2833 -3.3726
  186SLPC  C31221471   6.771   1.513   7.952  0.5641  0.2809 -0.0815
  186SLPC  H12X21472   6.671   1.465   7.954  0.9666 -0.5679  0.3688
  186SLPC  H12Y21473   6.771   1.607   8.011 -2.1287 -0.5658  1.4327
  186SLPC  C31321474   6.885   1.418   7.990 -1.1266  0.1308  0.7355
  186SLPC  H13X21475   6.983   1.471   7.999 -0.8556 -0.5339  1.8125
  186SLPC  H13Y21476   6.901   1.347   7.906 -0.5875 -0.3162  1.2173
  186SLPC  C31421477   6.832   1.356   8.122  0.9238 -0.2911  0.2556
  186SLPC  H14X21478   6.728   1.317   8.106  0.1974  1.1085  1.3662
  186SLPC  H14Y21479   6.825   1.438   8.197  2.1403 -0.3064  0.3959
  186SLPC  C31521480   6.924   1.243   8.164  0.6624  1.2587 -0.2670
  186SLPC  H15X21481   6.947   1.190   8.070  0.4226  2.6679 -1.1587
  186SLPC  H15Y21482   6.875   1.165   8.226  2.3446  0.2491 -0.1580
  186SLPC  C31621483   7.054   1.271   8.236 -0.7983 -0.2728  0.5550
  186SLPC  H16X21484   7.038   1.304   8.341  1.9409  1.8498  0.4239
  186SLPC  H16Y21485   7.121   1.350   8.197 -1.1576  1.4656  3.1808
  186SLPC  C31721486   7.147   1.152   8.265 -0.0858  0.3733 -0.2689
  186SLPC  H17X21487   7.232   1.195   8.323  1.5163 -0.0814 -2.1305
  186SLPC  H17Y21488   7.186   1.112   8.169 -0.7104  1.1093 -0.8464
  186SLPC  C31821489   7.065   1.042   8.336  0.1908 -0.5562  0.2883
  186SLPC  H18X21490   7.018   0.986   8.252  0.9308 -0.2814 -0.3294
  186SLPC  H18Y21491   6.990   1.078   8.410 -0.1725 -1.9497  0.6158
  186SLPC  H18Z21492   7.140   0.980   8.388  0.4521  0.1751  0.8056
  187SLPC     N21493   6.365   5.627   6.245 -0.1330 -0.4396 -0.0023
  187SLPC   C1321494   6.491   5.698   6.195  0.6063 -0.4027  0.0882
  187SLPC  H13A21495   6.478   5.805   6.187 -0.5731 -0.5614 -0.2810
  187SLPC  H13B21496   6.581   5.662   6.243  1.4369 -1.3619 -2.0505
  187SLPC  H13C21497   6.518   5.666   6.096 -1.6676 -1.4385 -0.2651
  187SLPC   C1421498   6.381   5.487   6.190  0.5913  0.8968  0.4321
  187SLPC  H14A21499   6.290   5.433   6.215 -0.2680  1.8467 -0.5451
  187SLPC  H14B21500   6.392   5.493   6.083 -0.5613  1.3211  0.3248
  187SLPC  H14C21501   6.468   5.433   6.224 -0.4890 -0.7196  0.7575
  187SLPC   C1521502   6.243   5.693   6.186 -0.0116 -0.7792  0.4152
  187SLPC  H15A21503   6.225   5.653   6.087 -2.3410  0.7440  0.1585
  187SLPC  H15B21504   6.153   5.686   6.246 -0.0510  1.1432  0.6308
  187SLPC  H15C21505   6.251   5.799   6.172 -0.9177 -0.9509 -1.8161
  187SLPC   C1221506   6.354   5.625   6.399 -0.0955 -0.4768 -0.3233
  187SLPC  H12A21507   6.267   5.570   6.432  0.1365 -1.8760 -1.9258
  187SLPC  H12B21508   6.340   5.728   6.428 -0.6697 -0.7567  0.4317
  187SLPC   C1121509   6.472   5.576   6.485  0.0678  0.7551  0.1079
  187SLPC  H11A21510   6.444   5.534   6.584  1.0701 -4.2980 -1.4817
  187SLPC  H11B21511   6.538   5.664   6.502  2.1795 -0.1198 -2.7580
  187SLPC     P21512   6.697   5.445   6.440 -0.2661  0.1351 -0.2192
  187SLPC   O1321513   6.749   5.334   6.355  0.4283  0.0808 -0.2631
  187SLPC   O1421514   6.758   5.574   6.425  0.1085  0.5060  0.0339
  187SLPC   O1221515   6.546   5.469   6.416 -0.0057 -0.4830 -1.1257
  187SLPC   O1121516   6.709   5.399   6.590 -0.3580 -0.1002 -0.8808
  187SLPC    C121517   6.707   5.262   6.620  0.8907 -0.3021  0.3361
  187SLPC    HA21518   6.648   5.202   6.548 -0.2314 -0.3248  1.2388
  187SLPC    HB21519   6.809   5.218   6.610  0.2239 -2.1309  1.1533
  187SLPC    C221520   6.658   5.229   6.763  0.7175 -0.3476  0.2769
  187SLPC    HS21521   6.567   5.291   6.779  1.1397  0.2290  0.4304
  187SLPC   O2121522   6.761   5.267   6.856 -0.1048  0.1691 -0.2586
  187SLPC   C2121523   6.724   5.330   6.966  0.8206  0.7021 -0.4127
  187SLPC   O2221524   6.611   5.362   7.003  0.1384  0.0815 -0.0577
  187SLPC   C2221525   6.848   5.374   7.042  0.7279  0.2728 -0.0087
  187SLPC   H2R21526   6.935   5.307   7.025  0.0162 -0.9544  0.9765
  187SLPC   H2S21527   6.877   5.475   7.006  0.2034  0.5290  0.2768
  187SLPC    C321528   6.624   5.079   6.768  0.5018 -0.3600  0.0945
  187SLPC    HX21529   6.720   5.024   6.759  0.0296 -1.1284 -0.3723
  187SLPC    HY21530   6.560   5.045   6.683  0.2389  1.1434 -0.3385
  187SLPC   O3121531   6.569   5.044   6.891 -0.0521  0.3067  0.3702
  187SLPC   C3121532   6.434   5.069   6.895 -0.2982  0.1602 -0.1081
  187SLPC   O3221533   6.365   5.107   6.802  0.0751  0.6437 -0.0621
  187SLPC   C3221534   6.376   5.053   7.034 -0.4341 -0.6546  0.0821
  187SLPC   H2X21535   6.266   5.052   7.025 -0.5366  0.5178  0.9042
  187SLPC   H2Y21536   6.414   5.135   7.100 -2.0759 -2.2089  3.1703
  187SLPC   C2321537   6.824   5.369   7.190 -0.3541 -1.0113  0.3707
  187SLPC   H3R21538   6.841   5.268   7.233 -1.1268 -1.0971  0.5068
  187SLPC   H3S21539   6.717   5.388   7.217 -0.3001 -0.1687  0.0019
  187SLPC   C2421540   6.910   5.480   7.258 -0.4929  0.2412 -0.1020
  187SLPC   H4R21541   6.868   5.575   7.220  3.1131  1.5537 -1.1710
  187SLPC   H4S21542   7.018   5.481   7.233 -0.2279  1.6412  0.9611
  187SLPC   C2521543   6.909   5.476   7.419  0.3559  0.7652  0.1838
  187SLPC   H5R21544   6.948   5.378   7.455  1.0507  0.5295 -1.1182
  187SLPC   H5S21545   6.805   5.490   7.455  0.7193 -1.4761  2.3308
  187SLPC   C2621546   7.001   5.583   7.471 -0.1803 -0.0900  0.5348
  187SLPC   H6R21547   6.985   5.687   7.435 -2.1202  0.3382  2.4695
  187SLPC   H6S21548   7.105   5.561   7.437 -0.8352 -1.1488 -0.8451
  187SLPC   C2721549   7.015   5.592   7.622  0.2999  1.1639  0.6524
  187SLPC   H7R21550   7.097   5.659   7.656  2.0008  0.4899 -1.8431
  187SLPC   H7S21551   7.035   5.485   7.642 -3.2748  0.2170  0.0085
  187SLPC   C2821552   6.893   5.630   7.706  0.5184  0.6795 -0.5734
  187SLPC   H8R21553   6.898   5.582   7.806  0.6086 -1.5183 -1.5708
  187SLPC   H8S21554   6.806   5.589   7.651  0.7195  2.0086 -1.9426
  187SLPC   C2921555   6.870   5.780   7.718 -0.0962 -0.1346  0.2788
  187SLPC   H9R21556   6.939   5.844   7.662 -0.8426  0.0102 -0.4968
  187SLPC  C21021557   6.776   5.833   7.806 -0.7381 -0.3135 -0.5301
  187SLPC  H10R21558   6.766   5.942   7.809 -0.6658 -0.2495 -2.0928
  187SLPC  C21121559   6.689   5.759   7.899 -0.2512  0.2149 -0.2521
  187SLPC  H11R21560   6.724   5.654   7.906  0.8342  0.6388  1.1514
  187SLPC  H11S21561   6.596   5.767   7.838 -1.1799  1.9841  1.2895
  187SLPC  C21221562   6.655   5.829   8.028 -0.4467  0.3793  0.0593
  187SLPC  H12R21563   6.698   5.929   8.045  0.0212  0.0234  1.0395
  187SLPC  C21321564   6.594   5.767   8.130  0.7872  0.3793 -1.0934
  187SLPC  H13R21565   6.573   5.825   8.221 -0.4822 -0.5586 -0.7572
  187SLPC  C21421566   6.542   5.629   8.145 -0.2015 -0.3253 -0.2267
  187SLPC  H14R21567   6.512   5.586   8.048  2.0408 -2.4699 -0.0439
  187SLPC  H14S21568   6.448   5.638   8.205 -0.0574  0.6834 -0.1248
  187SLPC  C21521569   6.645   5.537   8.210 -0.9351 -0.0651 -0.2960
  187SLPC  H15R21570   6.733   5.531   8.143 -0.8517  0.5110 -0.2431
  187SLPC  H15S21571   6.600   5.435   8.219  1.8264 -1.4908 -1.2931
  187SLPC  C21621572   6.696   5.588   8.353  0.3530  0.2352  0.3059
  187SLPC  H16R21573   6.605   5.596   8.417  0.3283 -0.6442  0.4016
  187SLPC  H16S21574   6.740   5.688   8.339  0.7485 -0.0760 -0.7866
  187SLPC  C21721575   6.802   5.504   8.425  0.8415 -0.0610  0.2171
  187SLPC  H17R21576   6.802   5.527   8.534 -2.1447  0.8454  0.1331
  187SLPC  H17S21577   6.900   5.531   8.381 -0.8016  1.3663 -2.9804
  187SLPC  C21821578   6.783   5.356   8.419  0.1795 -0.4090  0.0813
  187SLPC  H18R21579   6.870   5.311   8.471  0.0168 -1.1964 -0.3124
  187SLPC  H18S21580   6.781   5.328   8.311  0.6154  0.0004 -0.0344
  187SLPC  H18T21581   6.687   5.317   8.459 -0.3560  0.1396 -0.6360
  187SLPC   C3321582   6.417   4.918   7.097 -0.0273  0.1912 -0.6576
  187SLPC   H3X21583   6.528   4.911   7.098  0.2395  3.0873  0.6024
  187SLPC   H3Y21584   6.377   4.841   7.028  0.3226 -1.6474  1.1354
  187SLPC   C3421585   6.342   4.892   7.236  0.3050 -0.1505 -0.5563
  187SLPC   H4X21586   6.341   4.784   7.263 -2.8666  0.4097  2.1537
  187SLPC   H4Y21587   6.238   4.930   7.232  0.5341  0.7236  0.9047
  187SLPC   C3521588   6.403   4.967   7.361 -0.3931 -0.0426  0.1325
  187SLPC   H5X21589   6.473   5.049   7.334 -0.4233  1.0221  2.9979
  187SLPC   H5Y21590   6.468   4.886   7.403  0.0155  0.2664  0.1070
  187SLPC   C3621591   6.295   5.015   7.461  0.7257 -0.0582  0.2680
  187SLPC   H6X21592   6.232   4.925   7.474  0.7686 -0.2252 -0.5908
  187SLPC   H6Y21593   6.230   5.091   7.413  2.4320  2.0377  1.1143
  187SLPC   C3721594   6.360   5.072   7.585  0.4968  0.7209  0.0488
  187SLPC   H7X21595   6.449   5.008   7.603 -0.6820 -0.8717  0.4476
  187SLPC   H7Y21596   6.417   5.162   7.551  0.9480 -0.2357 -1.9005
  187SLPC   C3821597   6.279   5.089   7.716 -0.9785  0.3846  0.3956
  187SLPC   H8X21598   6.244   4.990   7.753  0.1635 -0.6927 -1.2369
  187SLPC   H8Y21599   6.193   5.155   7.694 -0.0332  1.5527  0.1506
  187SLPC   C3921600   6.364   5.154   7.828  0.3502  0.2808  0.3396
  187SLPC   H9X21601   6.398   5.253   7.793  1.2448 -0.0640  0.1970
  187SLPC   H9Y21602   6.460   5.100   7.845  0.1118  0.0942  1.1880
  187SLPC  C31021603   6.283   5.157   7.955 -0.1770 -0.2120 -0.1221
  187SLPC  H10X21604   6.281   5.053   7.997  3.2043  0.2306  1.4209
  187SLPC  H10Y21605   6.176   5.175   7.929  0.1732 -1.6452 -2.8893
  187SLPC  C31121606   6.331   5.251   8.066 -0.0244  0.2177  0.2107
  187SLPC  H11X21607   6.303   5.352   8.028 -0.4963  0.9575  2.3380
  187SLPC  H11Y21608   6.441   5.249   8.079  0.1709  0.9018 -1.1293
  187SLPC  C31221609   6.266   5.217   8.208  0.0206  0.2030  0.8298
  187SLPC  H12X21610   6.291   5.115   8.244 -1.2009  0.0854  1.3632
  187SLPC  H12Y21611   6.159   5.236   8.186 -0.0143 -0.9255 -0.0706
  187SLPC  C31321612   6.295   5.332   8.309 -0.9280  0.2443  0.1835
  187SLPC  H13X21613   6.251   5.429   8.278  1.2288  0.8299 -1.3164
  187SLPC  H13Y21614   6.406   5.337   8.305 -0.8550 -0.8537  0.4752
  187SLPC  C31421615   6.250   5.292   8.451 -0.3726 -0.4953 -0.8634
  187SLPC  H14X21616   6.266   5.184   8.469  0.2476 -0.4593 -1.1771
  187SLPC  H14Y21617   6.141   5.317   8.457 -0.2666  0.4292 -2.2589
  187SLPC  C31521618   6.341   5.378   8.539  0.7157  0.3118  0.1270
  187SLPC  H15X21619   6.337   5.484   8.507 -2.0813  0.5128  0.9187
  187SLPC  H15Y21620   6.446   5.348   8.517  0.3323  0.3389 -1.9271
  187SLPC  C31621621   6.310   5.371   8.687  0.2917 -0.0430  0.6320
  187SLPC  H16X21622   6.330   5.264   8.710 -1.2601 -0.5750 -0.2906
  187SLPC  H16Y21623   6.203   5.395   8.704  0.2560  0.6548 -0.4975
  187SLPC  C31721624   6.406   5.455   8.773 -0.6205 -0.3297 -0.6278
  187SLPC  H17X21625   6.376   5.429   8.876 -1.8569  0.6850 -0.7142
  187SLPC  H17Y21626   6.386   5.562   8.753  0.3440 -0.1003 -0.3999
  187SLPC  C31821627   6.557   5.416   8.748 -0.0039 -0.0641 -0.3421
  187SLPC  H18X21628   6.572   5.307   8.758 -0.1485 -0.0360  0.2156
  187SLPC  H18Y21629   6.617   5.461   8.829 -0.4663 -1.2544  0.7033
  187SLPC  H18Z21630   6.592   5.456   8.651  1.0244 -0.4417 -0.1360
  188SLPC     N21631   2.864   3.233   6.253 -0.1912  0.6187 -0.0626
  188SLPC   C1321632   2.799   3.174   6.134  0.5927 -0.2006  0.5064
  188SLPC  H13A21633   2.736   3.241   6.077  0.4780 -0.1926  0.6426
  188SLPC  H13B21634   2.868   3.125   6.067  0.5844 -0.6975  0.8521
  188SLPC  H13C21635   2.733   3.099   6.175  1.2661 -0.7995  0.5116
  188SLPC   C1421636   2.774   3.331   6.322  0.4808  0.5159 -0.0355
  188SLPC  H14A21637   2.821   3.388   6.401 -2.3469  0.6799  1.6526
  188SLPC  H14B21638   2.738   3.410   6.258  0.2633  0.7000  0.3054
  188SLPC  H14C21639   2.683   3.283   6.354  1.2868 -1.7179 -0.9492
  188SLPC   C1521640   2.997   3.301   6.226 -0.4645 -0.2626 -0.5660
  188SLPC  H15A21641   3.083   3.238   6.207 -0.1303  0.3451 -1.1046
  188SLPC  H15B21642   2.990   3.373   6.146 -0.3418 -0.2725 -0.5853
  188SLPC  H15C21643   3.018   3.362   6.313 -1.8084  1.2488 -1.2565
  188SLPC   C1221644   2.892   3.125   6.354  0.4506  1.1286  0.0771
  188SLPC  H12A21645   2.914   3.158   6.455 -2.4405 -0.5535  1.3987
  188SLPC  H12B21646   2.978   3.069   6.321  0.4344  0.7948  0.5898
  188SLPC   C1121647   2.787   3.007   6.386 -0.1423 -0.5219 -0.1938
  188SLPC  H11A21648   2.686   3.049   6.403  0.6516  0.9744  1.1612
  188SLPC  H11B21649   2.816   2.978   6.490 -2.8821 -0.5434  0.6362
  188SLPC     P21650   2.930   2.818   6.274  0.3258 -0.0965 -0.1074
  188SLPC   O1321651   2.897   2.682   6.225 -0.1636  0.0260  0.2387
  188SLPC   O1421652   3.022   2.904   6.195  0.4844  0.0385  0.4537
  188SLPC   O1221653   2.788   2.891   6.300  0.1496 -0.7211  0.2632
  188SLPC   O1121654   2.995   2.810   6.417 -0.0429 -0.5281 -0.0006
  188SLPC    C121655   3.018   2.693   6.485  0.0255  0.3883 -0.3525
  188SLPC    HA21656   3.078   2.623   6.422  2.1152  0.7346  1.1308
  188SLPC    HB21657   3.088   2.713   6.569 -2.2022  0.6701  1.5309
  188SLPC    C221658   2.896   2.626   6.559 -0.5119 -0.2187  0.4598
  188SLPC    HS21659   2.822   2.582   6.489 -0.4584 -1.7241  1.3247
  188SLPC   O2121660   2.825   2.733   6.632  0.0983  0.5629 -0.4294
  188SLPC   C2121661   2.699   2.702   6.663 -0.2933 -0.0582 -0.0190
  188SLPC   O2221662   2.633   2.608   6.618 -0.2587  0.8650  0.6451
  188SLPC   C2221663   2.638   2.795   6.768  0.0916  0.2401  0.0371
  188SLPC   H2R21664   2.703   2.884   6.778  1.5734 -0.9293  1.4284
  188SLPC   H2S21665   2.545   2.829   6.719  1.2522 -1.4050 -3.6270
  188SLPC    C321666   2.941   2.499   6.648 -0.0515 -0.3037  0.3088
  188SLPC    HX21667   3.008   2.443   6.579 -1.9013 -0.6102 -1.3200
  188SLPC    HY21668   2.851   2.434   6.661  0.2751 -0.8661 -0.2003
  188SLPC   O3121669   3.016   2.521   6.772  0.0272 -0.2200 -0.1879
  188SLPC   C3121670   2.974   2.459   6.885 -0.0275  0.0348  0.5329
  188SLPC   O3221671   2.875   2.390   6.894 -0.8650  0.0485 -0.2902
  188SLPC   C3221672   3.082   2.484   6.988  0.3466 -0.1596 -0.0709
  188SLPC   H2X21673   3.115   2.590   6.979 -0.7978  0.1155 -1.3862
  188SLPC   H2Y21674   3.171   2.423   6.965 -1.7098 -3.2103 -0.5638
  188SLPC   C2321675   2.624   2.724   6.902 -0.4442  0.6086  0.5019
  188SLPC   H3R21676   2.717   2.718   6.963 -0.3041  0.6735  0.2936
  188SLPC   H3S21677   2.595   2.618   6.883  1.1576  0.3077 -0.4123
  188SLPC   C2421678   2.526   2.801   6.989  0.4344 -0.7466  0.0855
  188SLPC   H4R21679   2.423   2.820   6.953 -0.5565  0.6714  3.3150
  188SLPC   H4S21680   2.570   2.899   7.018 -1.2818 -0.6108  2.5003
  188SLPC   C2521681   2.502   2.733   7.121  0.2108  0.0742 -0.7223
  188SLPC   H5R21682   2.600   2.704   7.165 -0.3925 -1.3382 -0.2412
  188SLPC   H5S21683   2.442   2.641   7.104 -0.6120  0.8561 -2.1717
  188SLPC   C2621684   2.441   2.821   7.230 -0.0342 -0.3928 -0.1007
  188SLPC   H6R21685   2.369   2.766   7.294 -0.3629 -2.0732 -1.8264
  188SLPC   H6S21686   2.385   2.906   7.185 -0.4808  1.1840  3.1365
  188SLPC   C2721687   2.554   2.885   7.318 -0.2865 -0.4176 -0.0513
  188SLPC   H7R21688   2.617   2.955   7.259  0.7727 -1.3776 -0.0926
  188SLPC   H7S21689   2.621   2.811   7.366 -0.3215 -2.6171 -3.0835
  188SLPC   C2821690   2.495   2.965   7.436 -0.2063  1.5805 -0.3411
  188SLPC   H8R21691   2.445   2.891   7.502 -0.1017 -0.3224 -2.2952
  188SLPC   H8S21692   2.411   3.019   7.386 -0.6138  0.6521 -0.6721
  188SLPC   C2921693   2.591   3.046   7.512 -0.1013 -0.1972 -0.4493
  188SLPC   H9R21694   2.670   3.101   7.459  1.6541 -0.5680  1.6242
  188SLPC  C21021695   2.602   3.052   7.649  0.2587  0.7854 -0.1000
  188SLPC  H10R21696   2.685   3.112   7.688  0.2961  1.1667 -0.7592
  188SLPC  C21121697   2.526   2.984   7.761 -0.0354 -0.6501  0.6670
  188SLPC  H11R21698   2.419   2.970   7.734 -0.0969 -1.7930  1.4387
  188SLPC  H11S21699   2.515   3.055   7.845 -0.3739 -0.5381  0.5287
  188SLPC  C21221700   2.586   2.858   7.801 -0.2914  0.2865 -0.1952
  188SLPC  H12R21701   2.650   2.812   7.724  0.1044 -0.8672  0.7964
  188SLPC  C21321702   2.578   2.807   7.924 -0.0707  0.6032 -0.0767
  188SLPC  H13R21703   2.642   2.719   7.942 -0.4992  0.5913  1.5089
  188SLPC  C21421704   2.497   2.867   8.038  0.5218 -0.0205  0.4120
  188SLPC  H14R21705   2.389   2.862   8.013  0.8932 -1.3193 -1.0842
  188SLPC  H14S21706   2.528   2.972   8.059  1.3495 -0.2513  0.3835
  188SLPC  C21521707   2.519   2.795   8.166  0.3493 -0.1859  0.7438
  188SLPC  H15R21708   2.625   2.807   8.199  0.3887 -0.9142  0.8929
  188SLPC  H15S21709   2.510   2.687   8.147  0.2299 -0.2741  1.2726
  188SLPC  C21621710   2.433   2.855   8.275 -0.2004 -0.2152 -0.8406
  188SLPC  H16R21711   2.411   2.962   8.253  2.3634  0.1863 -1.7775
  188SLPC  H16S21712   2.500   2.854   8.363  2.4689 -0.5527 -2.7489
  188SLPC  C21721713   2.313   2.768   8.317  0.2582  0.6316  0.3984
  188SLPC  H17R21714   2.336   2.661   8.339 -1.9755 -0.4235 -1.8066
  188SLPC  H17S21715   2.236   2.769   8.237  2.0881  0.2176 -1.4392
  188SLPC  C21821716   2.247   2.815   8.445  0.8458  0.7358  0.1140
  188SLPC  H18R21717   2.159   2.750   8.463  0.8222  0.4315 -1.0399
  188SLPC  H18S21718   2.200   2.914   8.425  1.5988  0.9539 -0.5940
  188SLPC  H18T21719   2.318   2.809   8.530  4.0633 -1.1983 -2.5009
  188SLPC   C3321720   3.031   2.442   7.129 -0.4248 -0.1061  0.1352
  188SLPC   H3X21721   3.121   2.414   7.189  2.3839  0.0589 -3.6141
  188SLPC   H3Y21722   2.976   2.347   7.114  3.3392 -2.7591  1.3464
  188SLPC   C3421723   2.939   2.550   7.197 -0.1775 -0.4671 -0.3696
  188SLPC   H4X21724   2.853   2.577   7.131 -1.2162 -0.3716  0.9719
  188SLPC   H4Y21725   3.004   2.639   7.206  2.3939 -2.1271 -1.4816
  188SLPC   C3521726   2.897   2.502   7.337  0.5187  0.1115  0.2472
  188SLPC   H5X21727   2.836   2.414   7.307  2.0785 -0.3374 -1.8358
  188SLPC   H5Y21728   2.838   2.577   7.394 -1.3716 -0.8917 -0.2872
  188SLPC   C3621729   3.013   2.465   7.429  0.5228 -0.1131  0.8250
  188SLPC   H6X21730   3.105   2.508   7.385  0.4891 -1.7623 -0.9917
  188SLPC   H6Y21731   3.039   2.357   7.426 -1.5923 -0.6752  1.0745
  188SLPC   C3721732   3.004   2.501   7.577 -0.0807 -0.1568 -0.2662
  188SLPC   H7X21733   2.991   2.610   7.593 -0.8080 -0.3340  0.4201
  188SLPC   H7Y21734   3.102   2.473   7.623  0.9124  0.3382 -2.0076
  188SLPC   C3821735   2.888   2.418   7.642  0.1819  0.2051 -0.0666
  188SLPC   H8X21736   2.922   2.313   7.651  1.4029  0.6468  0.6914
  188SLPC   H8Y21737   2.808   2.403   7.565 -0.3415 -0.0533  0.5170
  188SLPC   C3921738   2.833   2.465   7.773 -0.2649 -0.8519 -0.5083
  188SLPC   H9X21739   2.772   2.379   7.808  1.4826 -1.1471  2.1917
  188SLPC   H9Y21740   2.760   2.545   7.752  0.6574  0.3208  0.5880
  188SLPC  C31021741   2.933   2.493   7.882  0.1705 -0.5573 -0.3457
  188SLPC  H10X21742   2.882   2.527   7.974  1.0716 -3.0718  1.1786
  188SLPC  H10Y21743   2.990   2.582   7.847  1.5602 -0.3264  2.2851
  188SLPC  C31121744   3.023   2.377   7.920 -0.6318  0.1689 -0.0501
  188SLPC  H11X21745   3.092   2.351   7.837  1.3504  0.7740  1.3334
  188SLPC  H11Y21746   2.966   2.289   7.956  1.2347 -1.1203 -0.0813
  188SLPC  C31221747   3.119   2.412   8.033 -0.2277 -0.1441 -0.1065
  188SLPC  H12X21748   3.068   2.456   8.121  1.2593 -0.3923  0.9259
  188SLPC  H12Y21749   3.168   2.502   7.991 -0.0603  0.2319  0.8570
  188SLPC  C31321750   3.221   2.307   8.080  0.5882  0.2974 -0.9199
  188SLPC  H13X21751   3.286   2.278   7.995  1.0542 -1.6993  0.0786
  188SLPC  H13Y21752   3.174   2.209   8.100 -1.1397  0.8524 -2.0315
  188SLPC  C31421753   3.289   2.352   8.203 -0.0659 -0.5868 -0.4927
  188SLPC  H14X21754   3.220   2.386   8.284 -0.4515 -0.1633 -0.9954
  188SLPC  H14Y21755   3.359   2.437   8.188 -1.7947  0.7942 -1.1497
  188SLPC  C31521756   3.368   2.232   8.275  0.0954  0.0225 -0.2371
  188SLPC  H15X21757   3.308   2.140   8.256  0.3493  0.1004 -1.5166
  188SLPC  H15Y21758   3.370   2.246   8.385  1.3991 -1.0046 -0.1011
  188SLPC  C31621759   3.517   2.229   8.228  0.6432 -0.2339 -0.1878
  188SLPC  H16X21760   3.561   2.328   8.252  0.3086 -0.5232  1.8009
  188SLPC  H16Y21761   3.515   2.205   8.119 -0.2253 -3.4268  0.4143
  188SLPC  C31721762   3.606   2.116   8.289  0.2967 -0.0079 -0.5350
  188SLPC  H17X21763   3.712   2.151   8.285  0.2463  0.0767 -4.1596
  188SLPC  H17Y21764   3.603   2.021   8.233  0.5536  0.0420 -0.6340
  188SLPC  C31821765   3.568   2.083   8.436 -0.0110 -0.1224 -0.0773
  188SLPC  H18X21766   3.466   2.041   8.449 -0.7650  1.7026  0.2091
  188SLPC  H18Y21767   3.585   2.171   8.502  0.3138 -0.4338  0.2527
  188SLPC  H18Z21768   3.647   2.016   8.475 -0.9929 -1.0308  0.4112
  189SLPC     N21769   3.733   5.193   6.267 -0.5802 -0.3808  0.5243
  189SLPC   C1321770   3.669   5.067   6.309 -0.4227 -0.1250  0.1941
  189SLPC  H13A21771   3.707   5.023   6.400  2.1073 -0.0404 -0.7283
  189SLPC  H13B21772   3.565   5.091   6.328 -0.0351  0.4588  1.7746
  189SLPC  H13C21773   3.667   4.991   6.232 -0.1783  0.7573 -0.7010
  189SLPC   C1421774   3.660   5.266   6.151 -0.5561  0.4013  0.2964
  189SLPC  H14A21775   3.620   5.197   6.078 -0.1175  1.4195 -0.9463
  189SLPC  H14B21776   3.580   5.328   6.190  1.1680  2.9771  0.0158
  189SLPC  H14C21777   3.737   5.330   6.110  0.7054 -0.7621  0.7811
  189SLPC   C1521778   3.878   5.174   6.224  0.8852 -0.5708  0.0230
  189SLPC  H15A21779   3.912   5.257   6.164  0.2459 -0.7898 -0.6600
  189SLPC  H15B21780   3.940   5.158   6.310  1.5520 -1.8315 -0.6677
  189SLPC  H15C21781   3.894   5.085   6.166  1.1912 -1.3178  1.2160
  189SLPC   C1221782   3.732   5.282   6.388  1.1201  0.2442  0.3747
  189SLPC  H12A21783   3.630   5.275   6.422  0.3953 -0.6266 -1.7846
  189SLPC  H12B21784   3.757   5.384   6.361  0.3766  0.4178  0.3328
  189SLPC   C1121785   3.832   5.251   6.504  0.4529 -0.1470  0.2520
  189SLPC  H11A21786   3.816   5.146   6.537 -0.4036 -0.2364 -0.4190
  189SLPC  H11B21787   3.802   5.312   6.592 -1.9486  0.3255 -0.8122
  189SLPC     P21788   4.024   5.414   6.430  0.2567  0.2253  0.3269
  189SLPC   O1321789   4.144   5.397   6.351 -0.0292 -0.2287 -0.3775
  189SLPC   O1421790   3.918   5.503   6.368  0.1714 -0.9657  0.0379
  189SLPC   O1221791   3.968   5.274   6.472  0.8367  0.1943 -0.5897
  189SLPC   O1121792   4.062   5.462   6.563 -0.3494 -0.1413  0.2434
  189SLPC    C121793   4.196   5.465   6.618 -0.8838 -0.1094  0.5624
  189SLPC    HA21794   4.279   5.463   6.545  1.6831  0.4349  3.3072
  189SLPC    HB21795   4.202   5.562   6.673 -0.8882  1.7451 -2.4333
  189SLPC    C221796   4.228   5.350   6.710  0.3696 -0.0692  0.1744
  189SLPC    HS21797   4.225   5.258   6.648  0.1833  0.8183 -1.1751
  189SLPC   O2121798   4.127   5.343   6.815 -0.2008 -0.2487  0.1788
  189SLPC   C2121799   4.109   5.227   6.869  0.0630  0.7122 -0.3784
  189SLPC   O2221800   4.163   5.125   6.837 -0.1644  0.6869 -0.3532
  189SLPC   C2221801   3.995   5.237   6.978 -0.0197 -0.0698  0.4312
  189SLPC   H2R21802   3.988   5.345   7.000 -1.1577 -0.0586  0.0846
  189SLPC   H2S21803   3.902   5.203   6.929 -1.0705  0.2803  2.0861
  189SLPC    C321804   4.365   5.367   6.770 -0.1441  0.3727 -0.1313
  189SLPC    HX21805   4.366   5.463   6.825 -3.7799  1.3150 -1.4598
  189SLPC    HY21806   4.444   5.379   6.692  2.6127  0.6112  2.4945
  189SLPC   O3121807   4.402   5.261   6.863 -0.1305  0.8339 -0.5073
  189SLPC   C3121808   4.460   5.152   6.806  0.8264  0.1994 -0.7656
  189SLPC   O3221809   4.470   5.136   6.686  0.2915 -0.4862 -0.7744
  189SLPC   C3221810   4.505   5.050   6.906 -0.0637 -0.3546  0.3721
  189SLPC   H2X21811   4.596   5.085   6.959 -0.2699 -0.1294  0.5851
  189SLPC   H2Y21812   4.533   4.958   6.852  1.7915  0.8311 -0.7642
  189SLPC   C2321813   4.022   5.158   7.108 -0.2942  0.4654 -0.7339
  189SLPC   H3R21814   4.120   5.189   7.149 -0.5563  1.3016 -0.7108
  189SLPC   H3S21815   4.023   5.048   7.096  1.0089  0.1370  1.7948
  189SLPC   C2421816   3.942   5.189   7.235  0.3475  0.3317 -0.5179
  189SLPC   H4R21817   3.838   5.155   7.221  0.3543 -1.4647  2.7093
  189SLPC   H4S21818   3.949   5.298   7.257 -0.3327 -0.1046  2.3342
  189SLPC   C2521819   4.001   5.116   7.361 -0.2382  0.1679  0.4935
  189SLPC   H5R21820   4.106   5.147   7.376 -0.6410  1.6733  0.4535
  189SLPC   H5S21821   3.997   5.006   7.350 -0.1087 -0.1233  2.9526
  189SLPC   C2621822   3.913   5.148   7.480  1.2795  0.7448  0.2722
  189SLPC   H6R21823   3.822   5.086   7.464  1.6060  0.0763  0.9747
  189SLPC   H6S21824   3.889   5.257   7.482 -2.6984  0.0878 -1.1451
  189SLPC   C2721825   3.970   5.098   7.615 -0.2089  0.2603 -0.2995
  189SLPC   H7R21826   4.074   5.137   7.623  0.1485 -0.9647  1.7938
  189SLPC   H7S21827   3.993   4.990   7.610 -1.0920 -0.0682  1.7626
  189SLPC   C2821828   3.884   5.140   7.730  0.0539  0.6874 -1.0213
  189SLPC   H8R21829   3.784   5.095   7.713 -0.8885  1.9637  0.7934
  189SLPC   H8S21830   3.868   5.250   7.721  0.5753  0.9447  0.8171
  189SLPC   C2921831   3.930   5.132   7.871 -0.3277  0.0121 -0.1717
  189SLPC   H9R21832   4.029   5.178   7.879 -0.3128  0.4254 -2.1410
  189SLPC  C21021833   3.873   5.064   7.974  0.4801 -0.3680  0.2651
  189SLPC  H10R21834   3.909   5.077   8.077 -1.7741  1.9537  0.8831
  189SLPC  C21121835   3.742   4.982   7.954 -0.3889 -0.2994 -0.3400
  189SLPC  H11R21836   3.770   4.876   7.936 -2.4057 -0.4621 -3.3453
  189SLPC  H11S21837   3.690   5.019   7.863  0.9522 -1.0653 -1.4482
  189SLPC  C21221838   3.646   5.000   8.074  0.1941  0.2514  0.0863
  189SLPC  H12R21839   3.608   5.103   8.087 -0.6712 -0.0811  0.2648
  189SLPC  C21321840   3.604   4.905   8.161  0.0869  0.0570 -0.2533
  189SLPC  H13R21841   3.523   4.934   8.230 -0.5706 -0.1056 -0.9532
  189SLPC  C21421842   3.627   4.759   8.160 -0.8047 -0.3188 -0.1248
  189SLPC  H14R21843   3.668   4.739   8.261  1.8334 -2.4464 -1.4840
  189SLPC  H14S21844   3.694   4.719   8.081 -1.0441  1.1574 -1.1294
  189SLPC  C21521845   3.496   4.683   8.145  0.1826  0.3699 -0.4335
  189SLPC  H15R21846   3.420   4.715   8.218 -1.3958 -2.2187 -0.8002
  189SLPC  H15S21847   3.524   4.579   8.175 -1.2587 -0.1828 -0.9367
  189SLPC  C21621848   3.432   4.684   8.001  0.2661 -0.2431  0.7465
  189SLPC  H16R21849   3.512   4.646   7.934  0.0655  0.6232 -0.0079
  189SLPC  H16S21850   3.415   4.790   7.974  1.1124  0.0750  1.4117
  189SLPC  C21721851   3.318   4.582   7.996  0.6455 -0.0065 -0.2727
  189SLPC  H17R21852   3.251   4.606   8.081  0.2349 -2.3278  0.1340
  189SLPC  H17S21853   3.370   4.489   8.026 -0.7193 -0.9667 -0.7981
  189SLPC  C21821854   3.256   4.567   7.858  0.5188  0.6096 -0.8266
  189SLPC  H18R21855   3.234   4.667   7.814 -0.6604  0.1890 -1.2356
  189SLPC  H18S21856   3.161   4.513   7.878  0.7544  1.0348  1.9074
  189SLPC  H18T21857   3.317   4.507   7.787 -1.3420 -0.7463 -1.3615
  189SLPC   C3321858   4.402   5.009   7.020 -0.0346  0.4068 -0.5779
  189SLPC   H3X21859   4.314   4.958   6.977 -0.0207 -1.0659  1.0405
  189SLPC   H3Y21860   4.369   5.105   7.066  0.7056  0.4747 -0.1695
  189SLPC   C3421861   4.465   4.918   7.124 -0.2912 -0.6428  0.0608
  189SLPC   H4X21862   4.517   4.983   7.198  0.6269 -1.7998  0.4711
  189SLPC   H4Y21863   4.549   4.855   7.086  2.9047  3.1220  0.2145
  189SLPC   C3521864   4.364   4.836   7.211  0.0332  0.1556  0.0272
  189SLPC   H5X21865   4.419   4.750   7.254  0.9476  0.3337 -0.7477
  189SLPC   H5Y21866   4.286   4.811   7.136 -0.6460  1.0863  0.3995
  189SLPC   C3621867   4.282   4.915   7.309 -0.2936  0.1361 -0.0851
  189SLPC   H6X21868   4.175   4.903   7.282 -0.1067  1.0655 -1.3168
  189SLPC   H6Y21869   4.298   5.024   7.299  0.6028 -0.2233 -3.7550
  189SLPC   C3721870   4.296   4.875   7.466  0.6870  0.2898  0.0362
  189SLPC   H7X21871   4.306   4.765   7.472 -0.2481  0.1473 -0.7377
  189SLPC   H7Y21872   4.201   4.904   7.515  0.7785 -0.3312  0.5887
  189SLPC   C3821873   4.410   4.938   7.538 -0.3783 -0.2652 -0.2432
  189SLPC   H8X21874   4.406   5.047   7.516 -0.2316 -0.6197 -2.2665
  189SLPC   H8Y21875   4.503   4.912   7.482 -1.7124  0.1514 -2.8051
  189SLPC   C3921876   4.413   4.922   7.694 -0.5846  0.2920  0.1099
  189SLPC   H9X21877   4.488   4.996   7.730  0.2846 -0.6431  0.2697
  189SLPC   H9Y21878   4.456   4.821   7.716  1.0986  1.0703  0.5822
  189SLPC  C31021879   4.280   4.935   7.773  0.7119  0.2315 -0.0614
  189SLPC  H10X21880   4.198   4.873   7.730 -0.0617 -0.4145  2.1971
  189SLPC  H10Y21881   4.241   5.038   7.756  1.7084  0.3693 -1.6716
  189SLPC  C31121882   4.303   4.890   7.920  0.3080 -0.2329  0.3740
  189SLPC  H11X21883   4.323   4.781   7.926  2.4554 -0.0104 -1.4356
  189SLPC  H11Y21884   4.210   4.921   7.973 -0.6228  1.8761 -2.2412
  189SLPC  C31221885   4.426   4.945   7.989 -0.3038  0.3954  0.2089
  189SLPC  H12X21886   4.429   5.053   7.965  1.5931 -0.1053 -2.1364
  189SLPC  H12Y21887   4.522   4.907   7.949  0.0970  3.7131 -2.4141
  189SLPC  C31321888   4.438   4.918   8.144  0.2885  0.5273  0.2711
  189SLPC  H13X21889   4.516   4.989   8.178  1.0134 -0.1306  0.0074
  189SLPC  H13Y21890   4.475   4.815   8.161  0.4181  0.3559 -0.9975
  189SLPC  C31421891   4.308   4.954   8.218  0.1726  0.2368  0.2088
  189SLPC  H14X21892   4.226   4.892   8.176 -1.1228  1.0891  1.3851
  189SLPC  H14Y21893   4.281   5.061   8.207  0.4982  0.2877 -0.1191
  189SLPC  C31521894   4.325   4.925   8.364  0.4853  0.1725  0.7164
  189SLPC  H15X21895   4.414   4.981   8.400 -1.0166  3.0273  0.2524
  189SLPC  H15Y21896   4.337   4.815   8.376 -0.7834 -0.0672  0.0270
  189SLPC  C31621897   4.201   4.980   8.441 -0.2661  0.3692 -0.1065
  189SLPC  H16X21898   4.105   4.945   8.397 -0.4178 -0.1783  0.6350
  189SLPC  H16Y21899   4.203   5.091   8.431  0.1550  0.4907  1.1358
  189SLPC  C31721900   4.198   4.926   8.585  0.2457 -0.0156  1.2877
  189SLPC  H17X21901   4.264   4.987   8.651 -0.7748 -0.6420  2.9317
  189SLPC  H17Y21902   4.234   4.821   8.585 -2.4042 -0.9785  1.3034
  189SLPC  C31821903   4.064   4.917   8.654  0.6093  0.0406 -0.4017
  189SLPC  H18X21904   4.007   5.012   8.644 -1.0553 -1.0097 -1.1868
  189SLPC  H18Y21905   4.079   4.887   8.760  0.6993 -3.4482 -1.2866
  189SLPC  H18Z21906   4.001   4.836   8.614  1.0097 -0.0841 -0.7926
  190SLPC     N21907   0.214   1.054   6.216 -0.2754 -0.1082 -0.0597
  190SLPC   C1321908   0.191   1.191   6.167 -0.0493 -0.5834 -0.7931
  190SLPC  H13A21909   0.114   1.202   6.092 -0.4153  2.7950 -0.0854
  190SLPC  H13B21910   0.137   1.240   6.246 -0.7213 -2.7725  0.1778
  190SLPC  H13C21911   0.276   1.249   6.132 -1.1407  1.8124  0.2669
  190SLPC   C1421912   0.310   1.062   6.329  0.4678 -0.0369  0.2096
  190SLPC  H14A21913   0.314   0.964   6.375  0.6365  0.9003  2.2935
  190SLPC  H14B21914   0.407   1.075   6.284 -0.7942  3.4908 -1.9081
  190SLPC  H14C21915   0.280   1.139   6.399  1.5443  0.7291 -0.1541
  190SLPC   C1521916   0.283   0.976   6.111 -0.0438  0.7661 -0.6298
  190SLPC  H15A21917   0.381   1.008   6.078  1.7529 -2.1192  1.4114
  190SLPC  H15B21918   0.308   0.880   6.153 -0.4040  0.7849 -0.3749
  190SLPC  H15C21919   0.220   0.955   6.026  0.3956 -0.8244 -0.5883
  190SLPC   C1221920   0.081   0.978   6.237  0.3083  1.1773 -0.1576
  190SLPC  H12A21921   0.111   0.882   6.275 -1.4289 -0.0784 -1.7579
  190SLPC  H12B21922   0.040   0.960   6.139  1.0626 -2.1922  0.0275
  190SLPC   C1121923  -0.015   1.029   6.347 -0.8604 -0.0654  1.2140
  190SLPC  H11A21924   0.035   1.029   6.446  1.8352 -0.3401 -0.0384
  190SLPC  H11B21925  -0.109   0.970   6.348 -1.5236  0.9743  1.0340
  190SLPC     P21926  -0.182   1.190   6.210  0.0034 -0.1585 -0.0016
  190SLPC   O1321927  -0.147   1.313   6.128 -0.6246  0.2488 -0.6767
  190SLPC   O1421928  -0.224   1.072   6.131 -1.0290 -0.4786  0.1707
  190SLPC   O1221929  -0.058   1.158   6.307  0.1126 -0.3156 -0.1769
  190SLPC   O1121930  -0.299   1.226   6.307  0.0456  0.1932 -0.6390
  190SLPC    C121931  -0.304   1.346   6.384  0.6992 -0.6417  0.0670
  190SLPC    HA21932  -0.276   1.441   6.333  0.2265 -0.1710  0.6690
  190SLPC    HB21933  -0.411   1.357   6.410  0.9895 -0.1960  1.1161
  190SLPC    C221934  -0.228   1.335   6.519  0.3268  0.2280  0.3560
  190SLPC    HS21935  -0.121   1.336   6.491 -0.0197  2.4363 -1.1342
  190SLPC   O2121936  -0.278   1.213   6.585  0.0887  0.5414 -0.4255
  190SLPC   C2121937  -0.184   1.160   6.672  1.5200  0.2502 -0.2279
  190SLPC   O2221938  -0.067   1.193   6.678 -0.6734  0.2514 -0.0034
  190SLPC   C2221939  -0.259   1.069   6.775  0.5434  0.7029 -0.0132
  190SLPC   H2R21940  -0.354   1.117   6.807  0.4268 -0.1315  0.9441
  190SLPC   H2S21941  -0.277   0.978   6.714  2.8713  1.2254 -1.6063
  190SLPC    C321942  -0.245   1.456   6.614  0.3316 -0.7067 -0.4292
  190SLPC    HX21943  -0.352   1.470   6.642 -0.2604  0.3681 -2.9929
  190SLPC    HY21944  -0.237   1.550   6.555 -0.8002  0.4435  1.1411
  190SLPC   O3121945  -0.166   1.456   6.737 -0.4136 -0.1983  0.4498
  190SLPC   C3121946  -0.042   1.517   6.724 -0.4366  0.4810 -0.7566
  190SLPC   O3221947  -0.016   1.605   6.643  0.6645 -0.2223  0.6300
  190SLPC   C3221948   0.064   1.469   6.824 -0.2622  0.1859  0.5093
  190SLPC   H2X21949   0.152   1.533   6.802 -2.3674  2.7204 -1.1329
  190SLPC   H2Y21950   0.075   1.359   6.815 -0.1077  0.2503 -0.0958
  190SLPC   C2321951  -0.175   1.031   6.905 -0.7648 -0.2111  0.7122
  190SLPC   H3R21952  -0.073   1.000   6.873 -1.7626 -2.9550 -0.0861
  190SLPC   H3S21953  -0.228   0.953   6.964 -0.5808 -1.2170 -0.4063
  190SLPC   C2421954  -0.172   1.159   6.991 -0.6333  0.2757  0.6093
  190SLPC   H4R21955  -0.277   1.185   7.013 -0.7151 -0.8719  1.6943
  190SLPC   H4S21956  -0.118   1.242   6.942 -0.8713  0.6127  0.9122
  190SLPC   C2521957  -0.095   1.137   7.128  0.4591  0.5942 -0.2276
  190SLPC   H5R21958   0.011   1.156   7.100  0.4258  2.1268  0.5826
  190SLPC   H5S21959  -0.109   1.033   7.165 -0.9233  0.2976 -1.4870
  190SLPC   C2621960  -0.138   1.250   7.231  0.2222  0.4184  0.0769
  190SLPC   H6R21961  -0.248   1.263   7.240  0.0556 -0.6367 -0.3057
  190SLPC   H6S21962  -0.120   1.352   7.190 -0.2240  1.4496  2.3176
  190SLPC   C2721963  -0.065   1.232   7.364  0.8708  0.4246 -0.0450
  190SLPC   H7R21964  -0.071   1.331   7.413  1.9640 -0.3958  1.8380
  190SLPC   H7S21965   0.045   1.217   7.355  0.6649 -0.4276 -1.7653
  190SLPC   C2821966  -0.130   1.124   7.455  0.3166  0.1396 -0.0459
  190SLPC   H8R21967  -0.072   1.109   7.548 -0.1102 -1.1561  0.0240
  190SLPC   H8S21968  -0.135   1.018   7.422 -0.6760 -0.4395  1.8354
  190SLPC   C2921969  -0.273   1.153   7.490  0.1102 -0.0558  0.4473
  190SLPC   H9R21970  -0.344   1.124   7.411  0.0852 -0.3420  0.5733
  190SLPC  C21021971  -0.326   1.198   7.603  0.1996  0.1259  0.4098
  190SLPC  H10R21972  -0.432   1.226   7.599 -1.1629 -4.1726  1.3333
  190SLPC  C21121973  -0.256   1.220   7.736  0.7034  0.4525  0.6783
  190SLPC  H11R21974  -0.262   1.325   7.771 -1.3553  0.6937 -0.2603
  190SLPC  H11S21975  -0.146   1.201   7.735  0.3236 -2.1424 -0.7762
  190SLPC  C21221976  -0.323   1.132   7.840  0.3438 -0.4129  0.1406
  190SLPC  H12R21977  -0.268   1.039   7.860 -1.1316 -0.9827  1.8514
  190SLPC  C21321978  -0.431   1.153   7.910 -0.3489 -0.5153 -0.5600
  190SLPC  H13R21979  -0.470   1.076   7.978  0.1710 -0.7721 -0.5501
  190SLPC  C21421980  -0.532   1.272   7.912  0.2125 -0.2254 -0.2127
  190SLPC  H14R21981  -0.635   1.231   7.897 -0.1988  1.1210 -1.1958
  190SLPC  H14S21982  -0.528   1.326   7.816 -0.9204  0.1982 -0.0382
  190SLPC  C21521983  -0.549   1.352   8.051 -0.4942 -0.2638  0.4360
  190SLPC  H15R21984  -0.612   1.438   8.018 -0.5655 -1.0097 -1.5176
  190SLPC  H15S21985  -0.449   1.392   8.077 -0.1903 -1.0262  0.4348
  190SLPC  C21621986  -0.602   1.265   8.164 -0.1696  0.3656 -1.2640
  190SLPC  H16R21987  -0.618   1.161   8.127 -1.6447  0.5287 -1.1498
  190SLPC  H16S21988  -0.701   1.302   8.200  0.8495 -0.4604  2.9077
  190SLPC  C21721989  -0.501   1.251   8.278 -0.5074 -0.7134  0.0126
  190SLPC  H17R21990  -0.474   1.353   8.311  0.4996 -1.1629  0.6370
  190SLPC  H17S21991  -0.408   1.200   8.244  0.4667  1.0971 -0.1637
  190SLPC  C21821992  -0.558   1.195   8.405 -0.2261  0.0614 -0.0623
  190SLPC  H18R21993  -0.605   1.100   8.371  2.6588 -0.9955 -1.3492
  190SLPC  H18S21994  -0.628   1.258   8.464  2.8489  2.3666  1.3475
  190SLPC  H18T21995  -0.471   1.181   8.471  1.8823 -1.1688 -2.8954
  190SLPC   C3321996   0.033   1.504   6.967  0.7649  0.3424  0.0333
  190SLPC   H3X21997  -0.055   1.443   6.997  1.9396 -0.5834  1.8579
  190SLPC   H3Y21998   0.004   1.609   6.986  0.5227  0.1306  0.8982
  190SLPC   C3421999   0.147   1.468   7.064 -0.2265 -0.1021 -0.4312
  190SLPC   H4X22000   0.237   1.503   7.008 -2.0627  5.3387 -0.6254
  190SLPC   H4Y22001   0.145   1.359   7.085  0.9161  0.1276  1.0575
  190SLPC   C3522002   0.143   1.535   7.206 -0.3358  0.4927 -0.5580
  190SLPC   H5X22003   0.049   1.504   7.256 -0.2885  1.7884  0.3897
  190SLPC   H5Y22004   0.135   1.644   7.185 -2.3674  0.7978  1.4263
  190SLPC   C3622005   0.271   1.500   7.291 -0.5714  0.3671 -0.0952
  190SLPC   H6X22006   0.351   1.574   7.272 -1.2681  0.7918 -1.5606
  190SLPC   H6Y22007   0.301   1.399   7.256  0.3963  1.1289 -1.5846
  190SLPC   C3722008   0.259   1.500   7.438 -0.0580 -0.2906 -0.2391
  190SLPC   H7X22009   0.201   1.409   7.467  1.7913 -0.9982  1.4610
  190SLPC   H7Y22010   0.211   1.588   7.484  1.5196  1.4673 -1.7853
  190SLPC   C3822011   0.390   1.465   7.521  0.0793 -0.0008  0.9508
  190SLPC   H8X22012   0.461   1.550   7.530  2.6915 -1.9071 -0.4134
  190SLPC   H8Y22013   0.458   1.394   7.471  1.6963  1.0755  1.5414
  190SLPC   C3922014   0.355   1.423   7.665 -0.8429 -0.9469 -0.7899
  190SLPC   H9X22015   0.277   1.344   7.661 -3.3819  1.3905 -0.2036
  190SLPC   H9Y22016   0.308   1.508   7.718  0.8433 -1.0419  0.9901
  190SLPC  C31022017   0.475   1.387   7.751 -0.1667  0.4337 -0.1054
  190SLPC  H10X22018   0.533   1.478   7.777  0.4933  0.4583 -1.5374
  190SLPC  H10Y22019   0.531   1.304   7.703 -1.2797 -0.6671  0.4289
  190SLPC  C31122020   0.421   1.331   7.885  0.0615 -0.0387  0.7629
  190SLPC  H11X22021   0.352   1.252   7.848  2.6375 -1.4348 -1.5076
  190SLPC  H11Y22022   0.355   1.409   7.929 -2.0109 -0.7673 -0.9095
  190SLPC  C31222023   0.525   1.272   7.981  0.7172 -0.2527 -0.5254
  190SLPC  H12X22024   0.482   1.224   8.071 -1.1858  1.5484 -0.3904
  190SLPC  H12Y22025   0.593   1.358   8.000  0.6371 -0.1326 -0.7736
  190SLPC  C31322026   0.618   1.167   7.924 -0.5831  0.5309 -0.1144
  190SLPC  H13X22027   0.686   1.222   7.856  1.7455 -0.5764  1.1938
  190SLPC  H13Y22028   0.555   1.095   7.868 -0.3521  0.4032 -0.2106
  190SLPC  C31422029   0.693   1.093   8.033  0.1062  0.0977 -0.6609
  190SLPC  H14X22030   0.770   1.022   7.997  2.8091  2.5011 -0.0130
  190SLPC  H14Y22031   0.620   1.035   8.093  0.8179  1.0293  1.1605
  190SLPC  C31522032   0.764   1.177   8.139  0.8018  0.2417 -0.1790
  190SLPC  H15X22033   0.706   1.270   8.156 -0.2316 -0.5239  0.5848
  190SLPC  H15Y22034   0.868   1.213   8.121  0.0908  2.1701 -0.6693
  190SLPC  C31622035   0.776   1.091   8.267 -0.7542 -0.3404  0.2576
  190SLPC  H16X22036   0.846   1.006   8.254  0.3485  0.7178 -1.0593
  190SLPC  H16Y22037   0.675   1.049   8.285 -1.0963 -0.0365 -0.8777
  190SLPC  C31722038   0.833   1.163   8.392  0.1070  0.6809  0.2932
  190SLPC  H17X22039   0.944   1.158   8.387  0.1807 -0.7515  2.2645
  190SLPC  H17Y22040   0.799   1.099   8.476 -2.4695 -1.5686 -2.3044
  190SLPC  C31822041   0.778   1.306   8.425 -0.3256  0.0654  0.6033
  190SLPC  H18X22042   0.669   1.325   8.417 -0.7351 -1.4876  1.8852
  190SLPC  H18Y22043   0.826   1.369   8.348 -3.2672  2.3774  0.5063
  190SLPC  H18Z22044   0.816   1.333   8.526  0.5159  0.4239  0.2032
  191SLPC     N22045   2.078   4.462   5.867 -0.1371  0.1513  1.1233
  191SLPC   C1322046   2.134   4.357   5.768 -0.1517  0.3963  0.0464
  191SLPC  H13A22047   2.136   4.259   5.813  3.0402 -0.6700 -2.0399
  191SLPC  H13B22048   2.089   4.346   5.671  0.9914 -2.9320 -0.2276
  191SLPC  H13C22049   2.235   4.392   5.752 -0.2570  1.4133  1.3861
  191SLPC   C1422050   1.927   4.441   5.871  1.1609 -0.7635 -0.0430
  191SLPC  H14A22051   1.896   4.457   5.768  2.1354  0.8576 -0.1154
  191SLPC  H14B22052   1.907   4.338   5.897 -0.0603 -0.8884 -1.3472
  191SLPC  H14C22053   1.878   4.515   5.932 -0.0514 -1.0679 -0.6204
  191SLPC   C1522054   2.105   4.601   5.815 -0.6669  0.5059  0.2698
  191SLPC  H15A22055   2.039   4.670   5.864 -0.9543  1.1682 -0.9980
  191SLPC  H15B22056   2.204   4.630   5.846 -1.3129  1.1534  1.8018
  191SLPC  H15C22057   2.081   4.609   5.710 -1.0856  4.6304  0.5290
  191SLPC   C1222058   2.144   4.445   6.004  0.1274 -0.3443  0.7955
  191SLPC  H12A22059   2.112   4.526   6.068  3.8585  1.3530  0.7354
  191SLPC  H12B22060   2.251   4.456   5.992 -0.0442 -0.6243 -1.6344
  191SLPC   C1122061   2.128   4.308   6.090 -0.1909  0.1846 -1.1663
  191SLPC  H11A22062   2.020   4.315   6.114  0.0584  1.6291 -0.3106
  191SLPC  H11B22063   2.181   4.328   6.185 -0.2278 -1.7233 -0.7083
  191SLPC     P22064   2.327   4.172   5.998  0.1655 -0.3862  0.0145
  191SLPC   O1322065   2.345   4.067   5.892 -0.2413 -0.2770 -0.5106
  191SLPC   O1422066   2.400   4.297   5.987  0.3760 -0.1888 -0.6196
  191SLPC   O1222067   2.172   4.193   6.027  0.1431  0.3425 -0.1376
  191SLPC   O1122068   2.372   4.113   6.135  0.3613  0.6205 -0.0062
  191SLPC    C122069   2.336   3.978   6.181  0.1384 -1.4524  0.5677
  191SLPC    HA22070   2.302   3.913   6.097 -0.0307 -2.0270  1.0755
  191SLPC    HB22071   2.407   3.921   6.244  0.0137 -1.1848  0.9605
  191SLPC    C222072   2.214   3.996   6.269 -0.3447  0.3267 -0.5473
  191SLPC    HS22073   2.134   4.042   6.207 -2.1421  1.9152  2.7009
  191SLPC   O2122074   2.256   4.077   6.381  0.6368  0.2054 -0.2129
  191SLPC   C2122075   2.159   4.153   6.419 -0.1599  0.3285  0.3423
  191SLPC   O2222076   2.048   4.170   6.371 -0.0924  0.0986 -0.6292
  191SLPC   C2222077   2.209   4.232   6.538  0.4213  0.3991  0.7954
  191SLPC   H2R22078   2.294   4.293   6.503  0.6998  0.0561  0.8702
  191SLPC   H2S22079   2.137   4.310   6.570  0.3993  1.0813 -0.8337
  191SLPC    C322080   2.146   3.860   6.316  0.3641  0.0064  0.1949
  191SLPC    HX22081   2.229   3.798   6.355 -0.0610 -0.7242 -0.0407
  191SLPC    HY22082   2.098   3.796   6.240  0.0438  0.7609 -0.2530
  191SLPC   O3122083   2.057   3.875   6.434 -0.0865  0.2376 -0.4605
  191SLPC   C3122084   1.932   3.885   6.408  0.3823  0.0449  0.2275
  191SLPC   O3222085   1.872   3.872   6.299 -0.0853 -0.6241  0.3296
  191SLPC   C3222086   1.863   3.908   6.543  0.2708 -0.0700 -0.0825
  191SLPC   H2X22087   1.918   3.985   6.601 -2.0233  1.4104  0.2524
  191SLPC   H2Y22088   1.880   3.816   6.603  1.1358 -0.0915 -0.3467
  191SLPC   C2322089   2.249   4.141   6.656  0.5959 -0.0511  0.5756
  191SLPC   H3R22090   2.348   4.178   6.689  1.4260 -0.8677 -0.8474
  191SLPC   H3S22091   2.277   4.036   6.631 -1.7335 -0.0542 -2.7779
  191SLPC   C2422092   2.137   4.137   6.762 -0.3022  0.5719 -0.0161
  191SLPC   H4R22093   2.060   4.061   6.736 -0.9356  1.6534 -1.4652
  191SLPC   H4S22094   2.089   4.235   6.782 -0.4177  0.3321  0.9279
  191SLPC   C2522095   2.199   4.098   6.901  0.4408  0.3404 -0.2453
  191SLPC   H5R22096   2.283   4.166   6.925  1.3976  0.5868 -3.6989
  191SLPC   H5S22097   2.240   3.998   6.876  0.6447  0.3729 -0.0363
  191SLPC   C2622098   2.097   4.100   7.013  0.2695 -0.1244  0.5456
  191SLPC   H6R22099   2.008   4.037   6.993 -2.4393  3.8467 -1.3065
  191SLPC   H6S22100   2.043   4.196   7.025  0.6727  0.0533  0.9747
  191SLPC   C2722101   2.156   4.066   7.151  0.1871  0.2569  0.4428
  191SLPC   H7R22102   2.230   4.143   7.181 -0.6177  1.4492 -0.5055
  191SLPC   H7S22103   2.208   3.968   7.150  0.4072  0.3723  0.6088
  191SLPC   C2822104   2.055   4.057   7.267  0.6091  0.1438 -1.1710
  191SLPC   H8R22105   2.106   4.017   7.357 -0.1929  0.8489 -0.3965
  191SLPC   H8S22106   1.963   3.998   7.248  0.0195 -0.0842  1.8844
  191SLPC   C2922107   2.008   4.197   7.303 -0.5990  0.3018 -0.1869
  191SLPC   H9R22108   2.018   4.273   7.224  2.3730 -1.9524 -2.1748
  191SLPC  C21022109   1.976   4.238   7.428  0.2461  0.0878 -0.1482
  191SLPC  H10R22110   1.953   4.342   7.455 -0.8386 -0.0572 -0.4664
  191SLPC  C21122111   1.990   4.159   7.556 -0.5541  1.0375 -0.3995
  191SLPC  H11R22112   1.934   4.065   7.537 -1.0795  1.4714 -1.0229
  191SLPC  H11S22113   1.941   4.210   7.642  4.0708  0.9417  2.6845
  191SLPC  C21222114   2.133   4.140   7.607  0.0727  1.3890 -0.0605
  191SLPC  H12R22115   2.213   4.156   7.533  0.2019  1.0960  0.0104
  191SLPC  C21322116   2.166   4.120   7.736 -0.2910  0.5989 -0.4191
  191SLPC  H13R22117   2.270   4.103   7.768 -0.5601  0.6155  0.4874
  191SLPC  C21422118   2.077   4.101   7.854 -0.1782 -0.2046 -0.2805
  191SLPC  H14R22119   2.082   3.999   7.898  2.7134 -0.6553 -1.4257
  191SLPC  H14S22120   1.975   4.136   7.825 -0.1186  1.2023  1.0788
  191SLPC  C21522121   2.104   4.197   7.974 -0.6396  0.0998  0.3978
  191SLPC  H15R22122   2.025   4.187   8.051 -0.9786 -2.1084 -0.1883
  191SLPC  H15S22123   2.100   4.299   7.930  1.4217 -1.2077 -3.2699
  191SLPC  C21622124   2.244   4.207   8.032  0.1707 -0.2159 -0.0491
  191SLPC  H16R22125   2.321   4.233   7.956  1.1486  0.1380  1.0175
  191SLPC  H16S22126   2.275   4.115   8.086  0.5445 -1.2079 -1.8773
  191SLPC  C21722127   2.244   4.323   8.134 -0.3372 -0.3008 -0.1094
  191SLPC  H17R22128   2.158   4.308   8.203  0.7166  0.8692  1.5209
  191SLPC  H17S22129   2.230   4.414   8.071  1.1692 -1.6764 -2.5636
  191SLPC  C21822130   2.357   4.335   8.233 -0.7289  0.9185 -0.1074
  191SLPC  H18R22131   2.345   4.426   8.294  0.0957  0.1954  1.1885
  191SLPC  H18S22132   2.456   4.335   8.183 -2.1099  2.5866 -3.0857
  191SLPC  H18T22133   2.354   4.249   8.303  1.4410  1.8852  1.2654
  191SLPC   C3322134   1.711   3.938   6.534 -0.5457 -0.5892  0.1931
  191SLPC   H3X22135   1.664   3.838   6.520 -0.2125 -0.8377  0.8164
  191SLPC   H3Y22136   1.684   4.006   6.451  0.8204 -0.6052 -0.2895
  191SLPC   C3422137   1.651   3.982   6.665  0.3590  0.2225 -0.0359
  191SLPC   H4X22138   1.544   4.008   6.649  0.2207 -0.9922 -1.3173
  191SLPC   H4Y22139   1.718   4.068   6.688 -0.2698  1.0021 -1.0468
  191SLPC   C3522140   1.672   3.892   6.790 -0.0098  0.3561  0.6275
  191SLPC   H5X22141   1.772   3.844   6.784 -0.2607  0.0324 -4.1998
  191SLPC   H5Y22142   1.590   3.817   6.788  0.8693 -0.6107 -0.1602
  191SLPC   C3622143   1.651   3.979   6.918 -0.8662  0.7483 -0.7142
  191SLPC   H6X22144   1.561   4.043   6.914 -0.4366  1.3240 -1.3156
  191SLPC   H6Y22145   1.749   4.030   6.928 -0.1470 -0.9527  3.2919
  191SLPC   C3722146   1.631   3.885   7.050  0.0025 -0.0670  0.0134
  191SLPC   H7X22147   1.713   3.810   7.044 -0.2089 -0.1996 -1.8340
  191SLPC   H7Y22148   1.533   3.833   7.055 -0.3723  0.7594  2.2872
  191SLPC   C3822149   1.648   3.965   7.174  0.2882  0.3495 -0.1092
  191SLPC   H8X22150   1.580   4.053   7.171  1.3158  1.1586 -0.7394
  191SLPC   H8Y22151   1.752   3.998   7.194 -0.3378  1.5725  1.2364
  191SLPC   C3922152   1.610   3.892   7.305 -0.1352 -0.2616 -0.3205
  191SLPC   H9X22153   1.668   3.797   7.304 -0.6547 -0.6130 -2.7226
  191SLPC   H9Y22154   1.503   3.866   7.318  0.1538 -1.4262 -0.1378
  191SLPC  C31022155   1.636   3.981   7.426  0.0945 -0.1484  1.3200
  191SLPC  H10X22156   1.575   4.074   7.424  0.6759  0.2263  0.7073
  191SLPC  H10Y22157   1.742   4.012   7.441  0.0555 -0.0609  1.4142
  191SLPC  C31122158   1.615   3.910   7.565  0.1237 -0.2807 -0.0458
  191SLPC  H11X22159   1.694   3.833   7.559  0.7262  0.4398 -2.3988
  191SLPC  H11Y22160   1.510   3.874   7.563  0.5535 -1.5342 -0.9999
  191SLPC  C31222161   1.629   4.003   7.686  0.5518 -0.6406 -0.6445
  191SLPC  H12X22162   1.565   4.094   7.686 -0.2094 -1.0844  2.1939
  191SLPC  H12Y22163   1.734   4.040   7.694  0.3998 -0.5933  2.0161
  191SLPC  C31322164   1.588   3.925   7.807  0.1077 -0.2535 -0.3154
  191SLPC  H13X22165   1.637   3.825   7.809  1.3258  0.2989 -1.1015
  191SLPC  H13Y22166   1.479   3.908   7.802  0.1010 -0.1398 -0.5867
  191SLPC  C31422167   1.637   4.000   7.937  0.8361 -0.1714 -0.3916
  191SLPC  H14X22168   1.586   4.098   7.949 -0.1199 -0.7649  0.6669
  191SLPC  H14Y22169   1.747   4.014   7.929  0.6470  1.8523  0.1587
  191SLPC  C31522170   1.606   3.917   8.057  0.1535  0.2659  0.2331
  191SLPC  H15X22171   1.671   3.829   8.035 -1.3256 -0.7624 -0.2157
  191SLPC  H15Y22172   1.506   3.869   8.060  0.5927 -0.7375 -0.4404
  191SLPC  C31622173   1.650   3.963   8.193 -0.5941  0.1446  0.2568
  191SLPC  H16X22174   1.642   3.877   8.262  1.0547 -0.5888 -0.3884
  191SLPC  H16Y22175   1.576   4.037   8.231 -0.2752  0.9437 -0.6139
  191SLPC  C31722176   1.789   4.018   8.201  0.0517  0.1286 -0.0024
  191SLPC  H17X22177   1.800   4.102   8.130  0.9045  0.1278  0.1278
  191SLPC  H17Y22178   1.863   3.939   8.175  0.2599  0.4546 -0.3923
  191SLPC  C31822179   1.814   4.073   8.345 -0.0492 -0.2481  0.2848
  191SLPC  H18X22180   1.921   4.090   8.368  0.3026 -2.7572  0.8167
  191SLPC  H18Y22181   1.786   4.011   8.433  0.5632  0.8475  1.2746
  191SLPC  H18Z22182   1.772   4.175   8.338  1.1230  0.1563 -1.9033
  192SLPC     N22183   3.782   6.171   5.969 -0.9393  0.5341 -0.6913
  192SLPC   C1322184   3.796   6.160   5.812  0.2289 -0.2704  0.4513
  192SLPC  H13A22185   3.712   6.104   5.773  0.5668 -0.7060  0.3381
  192SLPC  H13B22186   3.778   6.258   5.771 -1.7081 -0.4145  0.8528
  192SLPC  H13C22187   3.891   6.124   5.776  0.3694  0.8514 -0.3414
  192SLPC   C1422188   3.647   6.219   6.003  0.4501 -0.6037  0.0210
  192SLPC  H14A22189   3.566   6.153   5.975 -0.2346  0.0970  0.3183
  192SLPC  H14B22190   3.636   6.249   6.107  0.9331  2.0664 -0.6191
  192SLPC  H14C22191   3.629   6.308   5.944  1.4859  0.4174  1.1781
  192SLPC   C1522192   3.882   6.275   6.005 -0.5494 -0.2494  0.1729
  192SLPC  H15A22193   3.880   6.289   6.112  2.7074  1.7276  0.1174
  192SLPC  H15B22194   3.983   6.244   5.984 -0.3515  1.4958 -1.7602
  192SLPC  H15C22195   3.864   6.370   5.956 -0.8648  0.9404  2.4547
  192SLPC   C1222196   3.816   6.038   6.033  0.4378  0.7240 -0.3711
  192SLPC  H12A22197   3.921   6.016   6.015  0.8756  1.7115  0.8696
  192SLPC  H12B22198   3.764   5.970   5.966  0.9272  2.0059 -2.1246
  192SLPC   C1122199   3.784   6.010   6.184  0.6975 -0.0361 -0.0139
  192SLPC  H11A22200   3.764   5.902   6.199  1.1911 -0.2665 -0.9869
  192SLPC  H11B22201   3.691   6.058   6.219  0.9619  1.4795 -1.3096
  192SLPC     P22202   4.032   5.989   6.262 -0.0927  0.0774 -0.1466
  192SLPC   O1322203   4.036   5.878   6.164  0.0807  0.0768  0.1868
  192SLPC   O1422204   4.134   6.093   6.250 -0.0360 -0.1280  0.1372
  192SLPC   O1222205   3.892   6.051   6.270  0.0140  0.2789 -0.3121
  192SLPC   O1122206   4.065   5.920   6.403  0.2439 -0.4858  0.1251
  192SLPC    C122207   3.975   5.812   6.455 -1.0157  0.5030 -0.1761
  192SLPC    HA22208   3.930   5.751   6.373 -0.0655 -0.4299 -0.0256
  192SLPC    HB22209   4.034   5.750   6.525  0.3370  1.5877 -0.3221
  192SLPC    C222210   3.860   5.871   6.534  0.0374  0.0421  0.3809
  192SLPC    HS22211   3.826   5.961   6.479  2.6863  1.5136  0.9457
  192SLPC   O2122212   3.914   5.917   6.662 -0.2121  0.1785  0.4828
  192SLPC   C2122213   3.812   5.980   6.718  0.0978  0.4744 -0.5161
  192SLPC   O2222214   3.716   6.028   6.664 -0.3388 -0.5715 -0.0785
  192SLPC   C2222215   3.864   5.991   6.861  0.2372  0.6805 -0.0237
  192SLPC   H2R22216   3.875   5.886   6.897 -0.3717  0.3486 -0.7715
  192SLPC   H2S22217   3.961   6.044   6.861  0.3892  0.4343  0.9194
  192SLPC    C322218   3.746   5.767   6.549 -0.0056 -0.2652 -0.0774
  192SLPC    HX22219   3.743   5.712   6.453  1.2642  0.7017 -0.7057
  192SLPC    HY22220   3.645   5.810   6.565 -0.6511 -2.6118  3.1766
  192SLPC   O3122221   3.781   5.682   6.659  0.1717  0.0540  0.4342
  192SLPC   C3122222   3.719   5.565   6.674  0.1004 -0.8042  0.1031
  192SLPC   O3222223   3.642   5.526   6.593 -0.0588 -0.3075  0.7789
  192SLPC   C3222224   3.744   5.500   6.818  0.3522 -0.7337  0.5751
  192SLPC   H2X22225   3.823   5.422   6.814  1.4920  0.2609  2.2948
  192SLPC   H2Y22226   3.656   5.436   6.840  0.1052 -1.3686 -1.9441
  192SLPC   C2322227   3.769   6.076   6.949  0.3759 -0.0800 -0.1465
  192SLPC   H3R22228   3.678   6.016   6.965 -0.4325  1.0298 -0.4297
  192SLPC   H3S22229   3.734   6.173   6.907  1.9918  0.2377 -0.8497
  192SLPC   C2422230   3.824   6.086   7.092  0.1405  0.3390  0.2280
  192SLPC   H4R22231   3.913   6.152   7.085 -1.3908  2.3922 -1.4144
  192SLPC   H4S22232   3.856   5.988   7.133 -0.4719 -0.0439 -0.1810
  192SLPC   C2522233   3.701   6.137   7.176 -0.3796 -0.5188 -0.6687
  192SLPC   H5R22234   3.653   6.045   7.214  1.8909 -0.9590  1.3532
  192SLPC   H5S22235   3.626   6.195   7.118  1.7433  2.7561 -0.4059
  192SLPC   C2622236   3.749   6.225   7.292 -0.5927 -0.7787 -0.0047
  192SLPC   H6R22237   3.671   6.297   7.323  0.2627 -0.6064  1.9536
  192SLPC   H6S22238   3.839   6.275   7.251  0.0175 -1.2712  0.6960
  192SLPC   C2722239   3.790   6.142   7.419  0.1973 -0.0795  0.1873
  192SLPC   H7R22240   3.870   6.078   7.378  0.4048  0.4061 -0.1828
  192SLPC   H7S22241   3.704   6.078   7.448  0.2121 -1.8100 -3.0919
  192SLPC   C2822242   3.846   6.225   7.533  0.5306  1.4556  0.0286
  192SLPC   H8R22243   3.922   6.301   7.504  1.6671  0.4080  0.1493
  192SLPC   H8S22244   3.888   6.138   7.588 -3.0803 -0.2553  0.3981
  192SLPC   C2922245   3.727   6.272   7.611 -0.3500 -0.6578 -0.2926
  192SLPC   H9R22246   3.630   6.268   7.560 -0.4126  0.3997 -0.2673
  192SLPC  C21022247   3.732   6.325   7.735 -0.4457  0.5996  0.2596
  192SLPC  H10R22248   3.641   6.359   7.786 -1.6284 -2.4056  0.3603
  192SLPC  C21122249   3.861   6.332   7.813 -0.6186  0.5588 -0.2413
  192SLPC  H11R22250   3.941   6.381   7.753  0.7039 -0.5526  0.5439
  192SLPC  H11S22251   3.898   6.228   7.829  1.9497  1.5276  0.6310
  192SLPC  C21222252   3.853   6.402   7.949 -0.8483  0.0623  1.4177
  192SLPC  H12R22253   3.878   6.509   7.946 -3.3841  0.7302 -1.4651
  192SLPC  C21322254   3.832   6.344   8.068  0.0726 -0.1799  0.3445
  192SLPC  H13R22255   3.820   6.400   8.162  0.1406  0.5296 -0.0600
  192SLPC  C21422256   3.826   6.198   8.094 -0.5742 -0.7588  0.0099
  192SLPC  H14R22257   3.854   6.135   8.006  0.8176  1.8821 -1.5551
  192SLPC  H14S22258   3.717   6.186   8.109 -0.6297  1.2236  1.5305
  192SLPC  C21522259   3.882   6.148   8.232 -0.3987 -0.5044 -0.0580
  192SLPC  H15R22260   3.867   6.223   8.312  2.8267  0.9031 -0.6261
  192SLPC  H15S22261   3.992   6.142   8.222 -0.3931  1.1976 -1.4623
  192SLPC  C21622262   3.844   6.004   8.281 -1.2116 -0.5630 -0.3119
  192SLPC  H16R22263   3.888   5.977   8.379  0.9723  1.3984 -0.6789
  192SLPC  H16S22264   3.893   5.929   8.215 -1.2852  0.3876 -1.4835
  192SLPC  C21722265   3.696   5.986   8.293  0.1513 -0.2356  0.5873
  192SLPC  H17R22266   3.643   6.079   8.324 -0.5331  1.0183 -3.5838
  192SLPC  H17S22267   3.650   5.963   8.194 -0.1398 -0.4361  0.7699
  192SLPC  C21822268   3.665   5.872   8.388 -0.0323  0.2119  0.3865
  192SLPC  H18R22269   3.726   5.888   8.479  3.5939  0.5488 -1.9157
  192SLPC  H18S22270   3.702   5.773   8.353  1.6624  1.2994 -1.0334
  192SLPC  H18T22271   3.555   5.876   8.406  0.0838  0.6054  1.0387
  192SLPC   C3322272   3.779   5.603   6.924 -0.1643 -0.0379  0.0536
  192SLPC   H3X22273   3.710   5.690   6.920 -1.3376 -0.9740 -1.1943
  192SLPC   H3Y22274   3.881   5.636   6.897 -0.3919  1.7534  1.2552
  192SLPC   C3422275   3.781   5.554   7.064  0.2956 -0.3028 -0.7212
  192SLPC   H4X22276   3.846   5.467   7.089  0.2754  0.5238  2.5461
  192SLPC   H4Y22277   3.677   5.528   7.096  0.3135  1.5830  1.0567
  192SLPC   C3522278   3.813   5.661   7.161  0.4291  0.0430 -0.0221
  192SLPC   H5X22279   3.738   5.743   7.155  1.1368  0.6569 -0.8320
  192SLPC   H5Y22280   3.910   5.710   7.136 -0.0940  0.6943 -0.8730
  192SLPC   C3622281   3.807   5.613   7.306 -0.0657  0.2423 -0.4523
  192SLPC   H6X22282   3.877   5.529   7.328  0.3704  0.6430 -0.2741
  192SLPC   H6Y22283   3.704   5.580   7.329  0.6853 -1.3268  0.9321
  192SLPC   C3722284   3.839   5.732   7.399  0.1170 -0.2762  0.2131
  192SLPC   H7X22285   3.776   5.821   7.376  0.5791  0.0967  0.3714
  192SLPC   H7Y22286   3.941   5.770   7.378 -1.2225  2.5799 -1.9620
  192SLPC   C3822287   3.845   5.695   7.550  0.3373 -0.4149 -0.1183
  192SLPC   H8X22288   3.913   5.607   7.556  1.5411  0.3294 -1.9084
  192SLPC   H8Y22289   3.744   5.663   7.584 -0.1052  0.9920 -0.0452
  192SLPC   C3922290   3.875   5.823   7.627 -1.0058 -0.1871  0.8980
  192SLPC   H9X22291   3.810   5.903   7.584  1.1084  0.3684 -1.5281
  192SLPC   H9Y22292   3.981   5.858   7.618 -1.0246 -0.0041  1.3674
  192SLPC  C31022293   3.852   5.793   7.784  0.3056 -1.1543  0.3199
  192SLPC  H10X22294   3.744   5.780   7.809  0.6272 -0.5765  2.1596
  192SLPC  H10Y22295   3.893   5.885   7.830  1.6442 -0.5165 -1.9911
  192SLPC  C31122296   3.926   5.668   7.853  0.5523 -0.2619 -0.6150
  192SLPC  H11X22297   4.032   5.663   7.820  0.5197 -1.5642 -0.5599
  192SLPC  H11Y22298   3.872   5.575   7.826 -2.3205  0.8670  0.8014
  192SLPC  C31222299   3.923   5.702   8.006 -0.3280  0.8214  0.1839
  192SLPC  H12X22300   3.815   5.713   8.031 -0.5589 -2.5490  1.1827
  192SLPC  H12Y22301   3.975   5.800   8.008 -1.2960  1.3439  0.1678
  192SLPC  C31322302   3.984   5.582   8.081  0.1089  0.2621  0.2380
  192SLPC  H13X22303   4.077   5.562   8.024  0.1276  1.5276 -0.2252
  192SLPC  H13Y22304   3.909   5.500   8.081  0.5367 -0.1496  1.2137
  192SLPC  C31422305   4.017   5.626   8.222  0.3762  0.0309  0.3325
  192SLPC  H14X22306   3.929   5.632   8.289  0.3573 -2.0613  0.5771
  192SLPC  H14Y22307   4.077   5.719   8.215 -1.3147  1.0166 -2.6372
  192SLPC  C31522308   4.109   5.525   8.294  1.5865 -0.1231  0.0679
  192SLPC  H15X22309   4.127   5.555   8.399  0.4046 -2.3032  0.9678
  192SLPC  H15Y22310   4.203   5.519   8.235  0.8624 -4.5963 -1.0096
  192SLPC  C31622311   4.065   5.379   8.308 -0.0774 -0.0037  0.5665
  192SLPC  H16X22312   4.132   5.331   8.383  0.3498 -0.2185  0.0515
  192SLPC  H16Y22313   4.085   5.329   8.211  1.2718 -3.0726  2.2719
  192SLPC  C31722314   3.918   5.354   8.339 -0.2892  0.7509  0.1408
  192SLPC  H17X22315   3.846   5.385   8.261 -0.0013  2.3407  0.4740
  192SLPC  H17Y22316   3.893   5.412   8.431  1.3573 -0.0364  1.1165
  192SLPC  C31822317   3.901   5.195   8.371  0.0369  0.1840  0.1400
  192SLPC  H18X22318   3.967   5.143   8.444  1.9985  0.8476 -1.0954
  192SLPC  H18Y22319   3.915   5.141   8.275 -0.0383 -2.1250  1.3567
  192SLPC  H18Z22320   3.795   5.173   8.400 -0.5344  2.6476  0.0842
  193SOD    SOD22321   0.255   4.775   2.930  0.0392 -0.4114  0.0543
  194SOD    SOD22322   2.904   4.473   1.819  0.0292 -0.0485  0.0670
  195SOD    SOD22323   2.764   4.433  11.493  0.1448 -0.1411 -0.3539
  196SOD    SOD22324   2.225   0.006   2.732 -0.4019  0.0747 -0.4914
  197SOD    SOD22325   2.505   2.534   5.488  0.3019 -0.2320  0.0426
  198SOD    SOD22326   0.037   4.515   1.214  0.2011 -0.2164 -0.1861
  199SOD    SOD22327   2.877   2.812   5.790  0.1561 -0.0351 -0.3096
  200SOD    SOD22328   6.060   3.573  16.228 -0.4670 -0.2602  0.1608
  201SOD    SOD22329   1.996   4.159   4.089  0.1239 -0.3129 -0.0321
  202SOD    SOD22330   1.590   2.531  11.417 -0.5929  0.2554 -0.1891
  203SOD    SOD22331   3.517   6.365  11.228  0.0179  0.1286  0.1073
  204SOD    SOD22332   0.134   2.717   4.558  0.7322  0.0980 -0.3241
  205SOD    SOD22333   4.286   0.482   6.217 -0.0389 -0.1024 -0.0538
  206SOD    SOD22334   3.910   3.347  10.539  0.3459  0.2361 -0.1219
  207SOD    SOD22335   2.472   4.603   6.313 -0.3777  0.1826  0.5504
  208SOD    SOD22336   6.348   5.523  14.743  0.2108 -0.1218  0.3410
  209SOD    SOD22337   1.023   6.406   0.836  0.0610  0.5587  0.0831
  210SOD    SOD22338   5.457   1.554  16.739  0.1711  0.3478  0.2883
  211SOD    SOD22339   2.578   5.308  12.463 -0.2532  0.4995 -0.3400
  212SOD    SOD22340   4.454   5.456   4.852  0.0942 -0.1436 -0.2877
  213SOD    SOD22341   3.336   1.992   4.323  0.1098 -0.1677  0.3797
  214SOD    SOD22342   5.165   6.104   4.208 -0.0563 -0.6565 -0.1526
  215SOD    SOD22343   1.719   3.627  12.144 -0.0785 -0.0962  0.0556
  216SOD    SOD22344   6.402   6.137  14.392  0.0762  0.4294 -0.3722
  217SOD    SOD22345   3.862   0.916   5.115 -0.4107 -0.0463  0.2079
  218SOD    SOD22346   3.339   1.973   5.085 -0.1748  0.0252 -0.2362
  219SOD    SOD22347   2.328   6.004   5.305 -0.3523  0.1992  0.1419
  220SOD    SOD22348   0.890   2.209   1.215 -0.2858 -0.1699 -0.3305
  221SOD    SOD22349   6.239   0.521   5.982 -0.5170 -0.1102 -0.2299
  222SOD    SOD22350   2.917   5.320  14.389  0.7156  0.0779 -0.3741
  223SOD    SOD22351   4.827   5.982   5.022  0.1961 -0.6127 -0.3363
  224SOD    SOD22352   2.857   2.518  10.726  0.0462 -0.1417  0.0523
  225SOD    SOD22353   5.254   3.060   6.315 -0.1048  0.0169  0.0324
  226SOD    SOD22354   6.267   2.294  14.004  0.3143 -0.3500  0.0136
  227SOD    SOD22355   4.966   0.882   3.049  0.2470  0.3846  0.2575
  228SOD    SOD22356   2.929   0.854  13.650  0.4342 -0.1607 -0.1116
  229SOD    SOD22357   6.319   2.542  11.177  0.3316  0.4526 -0.4372
  230SOD    SOD22358   1.451   6.268  15.500 -0.4633 -0.5314  0.1038
  231SOD    SOD22359   1.325   1.325   2.300 -0.3966  0.2522 -0.2821
  232SOD    SOD22360   2.896   5.884  17.096 -0.3428 -0.0603 -0.3723
  233SOD    SOD22361   0.896   2.574  15.738  0.7268 -0.3046  0.0688
  234SOD    SOD22362   3.942   3.706   3.001 -0.6523  0.1898  0.2402
  235SOD    SOD22363   6.825   3.943   3.197  0.0734  0.0338  0.2425
  236SOD    SOD22364   1.004   3.321  11.197 -0.5802 -0.2241  0.4920
  237SOD    SOD22365   3.148   3.805  17.068  0.8649  0.4045  0.1548
  238SOD    SOD22366   1.182   0.814   2.713  0.2225  0.1004 -0.0983
  239SOD    SOD22367   2.027   2.363   3.754  0.2242 -0.0113  0.3567
  240SOD    SOD22368   6.494   0.623  13.541 -0.0755 -0.2688  0.0754
  241SOD    SOD22369   5.022   1.932   5.938  0.3329 -0.2759  0.4138
  242SOD    SOD22370   0.184   1.530   6.400 -0.0546 -0.0116  0.3620
  243SOD    SOD22371   4.927   6.418   0.666  0.2210 -0.0835  0.0180
  244SOD    SOD22372   6.807   4.520  10.997  0.0075  0.5486 -0.5745
  245SOD    SOD22373   6.829   5.654   6.644  0.0869 -0.5714  0.2780
  246SOD    SOD22374   4.244   5.468  15.663 -0.3547 -0.3370 -0.0372
  247SOD    SOD22375   4.715   6.384   6.445 -0.2002 -0.2315 -0.5416
  248SOD    SOD22376   3.260   2.575   2.207  0.1053  0.1091 -0.0959
  249SOD    SOD22377   5.827   4.721   1.025  0.2020 -0.1782 -0.5867
  250SOD    SOD22378   5.102   5.454  11.089 -0.6188  0.3635 -0.0200
  251SOD    SOD22379   2.081   3.332  11.711 -0.4507 -0.3533  0.3997
  252SOD    SOD22380   2.092   6.470   0.655 -0.1398  0.3873 -0.2251
  253SOD    SOD22381   2.881   4.354  16.183  0.0749  0.1683  0.3805
  254SOD    SOD22382   0.241   0.482  10.915 -0.3975  0.2423 -0.0954
  255SOD    SOD22383   4.860   5.289  14.748  0.4638 -0.0126  0.6203
  256SOD    SOD22384   5.340   6.656   4.469  0.0675 -0.2434 -0.2389
  257SOD    SOD22385   3.040   5.914  11.741 -0.1202  0.2469  0.0833
  258SOD    SOD22386   5.726   6.323   5.094  0.0401  0.1176 -0.0183
  259SOD    SOD22387   2.364   5.922   6.393  0.2269  0.3170  0.4395
  260SOD    SOD22388   3.067   6.331   6.588 -0.0249  0.1663  0.0512
  261SOD    SOD22389   5.564   2.253   4.333  0.5797  0.0223  0.1293
  262SOD    SOD22390   4.626   4.983  13.100  0.1255  0.3146 -0.1542
  263SOD    SOD22391   1.448   3.156  16.431  0.3670 -0.5627 -0.4437
  264SOD    SOD22392   5.361   3.028   5.079 -0.0454 -0.3427  0.0277
  265SOD    SOD22393   4.420   1.175  11.694 -0.2588  0.2891 -0.0922
  266CLA    CLA22394   4.969   0.000   5.430  0.1412  0.0478  0.1429
  267CLA    CLA22395   2.017   1.826   3.673 -0.1050 -0.1289 -0.1739
  268CLA    CLA22396   1.343   3.960   1.106 -0.0994 -0.4817 -0.2267
  269CLA    CLA22397   5.101   5.787   3.743  0.2420  0.1857  0.6188
  270CLA    CLA22398   6.713   2.534   4.037 -0.2243  0.0443  0.2859
  271CLA    CLA22399   1.987   4.901   5.917 -0.1474 -0.4165 -0.2751
  272CLA    CLA22400   1.746   5.710  14.754  0.7843  0.2433 -0.5714
  273CLA    CLA22401   1.343   6.633   0.459 -0.3019  0.1912  0.4622
  274CLA    CLA22402   0.972   0.797   2.541 -0.0959  0.0494 -0.0532
  275CLA    CLA22403   2.113   1.691  12.703 -0.0290  0.1594  0.0090
  276CLA    CLA22404   5.381   6.630   5.209  0.0528  0.3278 -0.4859
  277CLA    CLA22405   5.675   0.203   3.662 -0.0915  0.3269  0.1667
  278CLA    CLA22406   5.007   2.738   2.640  0.3390 -0.0200 -0.0442
  279CLA    CLA22407   3.013   3.458   1.319  0.3485  0.4809 -0.2465
  280CLA    CLA22408   0.530   2.039  16.388 -0.0838  0.5131 -0.0635
  281CLA    CLA22409   1.264   5.469   0.130 -0.1276 -0.1929  0.0666
  282CLA    CLA22410   3.036   1.528   4.614  0.0821 -0.1551  0.2648
  283CLA    CLA22411   5.992   5.918   5.622  0.2373  0.3458  0.0494
  284CLA    CLA22412   4.008   3.261   4.666 -0.2351  0.0457 -0.0336
  285CLA    CLA22413   3.363   3.107  11.750  0.1567 -0.3110 -0.1700
  286CLA    CLA22414   1.379   5.770   2.019 -0.1391  0.0708 -0.2474
  287CLA    CLA22415   1.952   1.409  15.075 -0.0384  0.0225 -0.1150
  288CLA    CLA22416   2.737   4.075  16.640  0.1391 -0.1925 -0.0259
  289CLA    CLA22417   5.249   6.666  16.449  0.3118  0.0742  0.0886
  290CLA    CLA22418   4.928   1.123   1.607 -0.1931 -0.0338 -0.1845
  291CLA    CLA22419   5.379   5.394   5.216 -0.6049  0.2552  0.0737
  292CLA    CLA22420   3.739   6.558   4.379  0.1491  0.4558  0.4566
  293CLA    CLA22421   6.431   2.294  12.562  0.1917 -0.2503 -0.2711
  294CLA    CLA22422   2.084   3.926   1.345 -0.0328  0.1679  0.1005
  295CLA    CLA22423   2.151   4.313  16.224  0.0316  0.0006  0.0558
  296CLA    CLA22424   4.103   2.134  12.781 -0.1096 -0.3129  0.0578
  297CLA    CLA22425   4.453   4.642   1.840 -0.1056  0.6018 -0.2032
  298CLA    CLA22426   4.318   5.958  15.102 -0.1942 -0.1157  0.0509
  299CLA    CLA22427   3.025   2.747   4.280  0.2556  0.5957  0.1461
  300CLA    CLA22428   2.589   1.115  15.619  0.2268  0.1555  0.7382
  301CLA    CLA22429   5.535   1.386  16.329  0.0081  0.0009  0.2357
  302CLA    CLA22430   6.808   5.088  15.203 -0.0667 -0.5957  0.0994
  303CLA    CLA22431   6.387   2.226  14.742 -0.0721  0.3561 -0.5563
  304CLA    CLA22432   5.989   5.080  14.739  0.0764 -0.2684  0.0185
  305CLA    CLA22433   3.478   5.157  14.388 -0.5052  0.0436  0.4050
  306CLA    CLA22434   5.911   6.587   4.256  0.2642 -0.6192 -0.0074
  307CLA    CLA22435   6.304   3.288   4.160 -0.1272 -0.3336  0.0277
  308CLA    CLA22436   3.298   4.479   4.133  0.0859 -0.3569 -0.3668
  309CLA    CLA22437   1.675   4.494  12.944 -0.3970  0.7168 -0.1107
  310CLA    CLA22438   2.397   6.375   2.852 -0.1583  0.1163 -0.0607
  311CLA    CLA22439   5.509   2.605   5.145 -0.1908 -0.3264 -0.3702
  312CLA    CLA22440   5.603   6.279   6.401  0.1723  0.2396  0.2070
  313CLA    CLA22441   3.131   5.455  12.333 -0.2345  0.1291 -0.1820
  314CLA    CLA22442   2.520   6.102  13.360 -0.1985  0.4229 -0.0646
  315CLA    CLA22443   6.669   5.856  16.932 -0.6060 -0.1153 -0.6086
  316CLA    CLA22444   0.669   3.456   2.294  0.0813 -0.0474 -0.5006
  317CLA    CLA22445   4.439   3.101   3.793  0.0467  0.0198  0.0898
  318CLA    CLA22446   6.805   5.854  14.260  0.0754 -0.2621 -0.1478
  319TIP3   OH222447   2.369   4.736  15.586  0.7407  0.1419  0.0207
  319TIP3    H122448   2.348   4.828  15.573 -0.3240 -0.3534 -2.1270
  319TIP3    H222449   2.350   4.720  15.678 -0.3155  1.7586  0.1244
  320TIP3   OH222450   2.221   5.989  14.765  0.0577 -0.0089  0.6370
  320TIP3    H122451   2.259   6.021  14.847 -0.3523  1.5645  0.2538
  320TIP3    H222452   2.155   6.055  14.742 -0.4289 -0.8694 -0.5130
  321TIP3   OH222453   3.060   1.009   2.593 -0.3537  0.0368 -0.3913
  321TIP3    H122454   3.100   1.093   2.612 -1.3166  0.3916  0.1678
  321TIP3    H222455   3.132   0.954   2.563  0.6848  0.4474  1.1958
  322TIP3   OH222456   4.926   5.514   0.092 -0.9848  0.5319  0.3041
  322TIP3    H122457   4.859   5.541   0.155 -0.5142 -1.7895  1.9058
  322TIP3    H222458   4.997   5.576   0.105 -1.1612  0.4900  1.6121
  323TIP3   OH222459   4.579   1.433  12.494  0.4807 -0.2356  0.6274
  323TIP3    H122460   4.663   1.447  12.537 -0.0999 -0.6077  1.9233
  323TIP3    H222461   4.573   1.338  12.484  1.4027 -0.1176 -1.9915
  324TIP3   OH222462   3.746   5.473   1.483  0.3097 -0.3281  0.5326
  324TIP3    H122463   3.740   5.410   1.556 -3.7630 -1.5270 -0.5463
  324TIP3    H222464   3.711   5.554   1.520  1.0496 -0.0528  0.6475
  325TIP3   OH222465   4.493   2.456   5.419 -0.0942 -0.1689  0.3324
  325TIP3    H122466   4.560   2.518   5.392  0.4025 -0.4526  0.9059
  325TIP3    H222467   4.442   2.439   5.339 -1.3783  2.3490  0.5133
  326TIP3   OH222468   0.213   6.005  17.087 -0.5854  0.0876 -0.2972
  326TIP3    H122469   0.165   6.059  17.024 -2.2061 -0.9184 -0.0006
  326TIP3    H222470   0.146   5.976  17.149  0.9590  1.0235  1.9162
  327TIP3   OH222471   1.641   2.356   4.639  0.1924 -0.3384  0.0998
  327TIP3    H122472   1.630   2.449   4.623 -0.9879 -0.5220 -0.2418
  327TIP3    H222473   1.617   2.344   4.731 -1.0943 -0.5029 -0.2359
  328TIP3   OH222474   2.621   6.827   3.611 -0.1495 -0.2804  0.4765
  328TIP3    H122475   2.658   6.763   3.671  2.3380  0.2385 -0.3676
  328TIP3    H222476   2.653   6.800   3.524 -4.2917 -1.5065 -0.9068
  329TIP3   OH222477   2.157   3.440  12.481  0.1625  0.3904 -0.5675
  329TIP3    H122478   2.080   3.392  12.450 -0.7974  2.3368 -1.4004
  329TIP3    H222479   2.128   3.479  12.564  0.6691  0.1845 -0.2899
  330TIP3   OH222480   6.425   6.276  11.781 -0.0906 -0.2500  0.6108
  330TIP3    H122481   6.516   6.306  11.792  0.0357 -0.7784  1.0594
  330TIP3    H222482   6.372   6.353  11.803  0.2372 -0.2580  1.4682
  331TIP3   OH222483   1.148   4.553   5.551  0.0461  0.6382  0.2601
  331TIP3    H122484   1.060   4.582   5.575 -1.1181 -2.0028 -0.4488
  331TIP3    H222485   1.160   4.584   5.461 -0.6387  0.0281 -0.0427
  332TIP3   OH222486   2.278   3.181  12.610  0.0080 -0.0633 -0.2402
  332TIP3    H122487   2.330   3.169  12.690 -2.3480  3.3376  2.0651
  332TIP3    H222488   2.317   3.258  12.568 -1.2829  0.7035 -0.0718
  333TIP3   OH222489   4.324   5.196   6.327 -0.3833 -0.4520 -0.1717
  333TIP3    H122490   4.265   5.123   6.306  0.6929 -1.4472  0.1150
  333TIP3    H222491   4.274   5.275   6.306 -1.3423 -1.2848 -1.1467
  334TIP3   OH222492   1.319   6.223   2.051 -0.0417  0.3375  0.2887
  334TIP3    H122493   1.366   6.290   2.101  1.1231  0.2776 -0.6682
  334TIP3    H222494   1.389   6.172   2.009 -0.9159 -1.0709  0.4740
  335TIP3   OH222495   0.477   1.399   3.459 -0.0633  0.2484  0.1958
  335TIP3    H122496   0.550   1.338   3.458  1.5959  2.1233 -1.9560
  335TIP3    H222497   0.491   1.451   3.538 -1.3411 -1.7837  1.8979
  336TIP3   OH222498   1.878   5.000   3.288  0.2059  0.5757 -0.4392
  336TIP3    H122499   1.899   5.074   3.344  0.9558 -0.8834  1.2916
  336TIP3    H222500   1.945   5.001   3.220  1.1620  0.6035  0.4757
  337TIP3   OH222501   4.796   1.182   4.491 -0.2436 -0.4650 -0.0923
  337TIP3    H122502   4.758   1.163   4.577  0.3551 -1.8956 -0.1174
  337TIP3    H222503   4.840   1.266   4.502 -0.8819 -0.2282  0.7566
  338TIP3   OH222504   3.809   0.025  11.950  0.2734  0.4954  0.0011
  338TIP3    H122505   3.760   0.018  11.868 -0.0489 -0.8758  0.2877
  338TIP3    H222506   3.818  -0.065  11.981 -0.6067  1.0465  2.0606
  339TIP3   OH222507   0.760   2.171   0.708 -0.1308  0.1199 -0.3237
  339TIP3    H122508   0.844   2.214   0.723  1.1428 -2.4430  0.3849
  339TIP3    H222509   0.706   2.198   0.782  0.1652  1.4770 -0.5711
  340TIP3   OH222510   1.308   4.039   6.564 -0.2050  0.0330  0.0401
  340TIP3    H122511   1.238   4.081   6.613 -0.0518 -1.2443  1.4070
  340TIP3    H222512   1.363   4.111   6.534 -0.5933  0.8809  1.2995
  341TIP3   OH222513   1.061   0.451  16.933  0.3993 -0.0797  0.6817
  341TIP3    H122514   1.140   0.472  16.983  2.4073 -0.2650 -2.1192
  341TIP3    H222515   1.036   0.364  16.962  1.3667 -0.1100  1.4827
  342TIP3   OH222516   1.574   5.618  13.675 -0.3110 -0.3641 -0.2185
  342TIP3    H122517   1.548   5.690  13.618  0.3003 -1.1376 -1.5242
  342TIP3    H222518   1.599   5.548  13.615 -2.0211 -2.1091  0.9926
  343TIP3   OH222519   2.114   4.486   5.425  0.0680  0.6802 -0.2037
  343TIP3    H122520   2.022   4.492   5.402  0.1051 -1.5881 -1.1902
  343TIP3    H222521   2.146   4.577   5.421 -2.3332  1.7001  1.3808
  344TIP3   OH222522   2.654   5.681  15.472  0.1408  0.2459  0.0079
  344TIP3    H122523   2.587   5.750  15.476 -0.8385 -0.7519  1.9127
  344TIP3    H222524   2.736   5.728  15.484 -0.4311  1.2233  0.2666
  345TIP3   OH222525   3.201   2.633   3.585 -0.3813  0.2042  0.0045
  345TIP3    H122526   3.289   2.617   3.549 -0.1644 -0.6831  0.8984
  345TIP3    H222527   3.205   2.723   3.617  0.7983 -0.3616  1.6120
  346TIP3   OH222528   4.490   4.558   1.255  0.1385 -0.3939 -0.1537
  346TIP3    H122529   4.452   4.635   1.296  2.3021  0.6535  0.0513
  346TIP3    H222530   4.458   4.484   1.306 -3.7243  0.0319 -1.6429
  347TIP3   OH222531   4.092   0.810  15.435  0.4457 -0.5003  0.0470
  347TIP3    H122532   4.184   0.794  15.457  0.6879  0.2779 -0.3767
  347TIP3    H222533   4.043   0.774  15.509  0.9790 -2.6864 -0.5758
  348TIP3   OH222534   1.804   3.331   3.759  0.0202  0.0264 -0.1455
  348TIP3    H122535   1.865   3.367   3.694  0.5647 -1.9029 -0.7783
  348TIP3    H222536   1.727   3.305   3.708  0.3245 -1.2083 -0.0255
  349TIP3   OH222537   2.294   3.758  17.105  0.2342 -0.2518 -0.6417
  349TIP3    H122538   2.245   3.700  17.046 -2.6836  1.5829 -0.2038
  349TIP3    H222539   2.277   3.846  17.072  1.6138  0.6019  0.7956
  350TIP3   OH222540   0.457   1.433   2.485  0.2731  0.3880  0.2128
  350TIP3    H122541   0.362   1.435   2.470  0.1266 -0.2754  1.0046
  350TIP3    H222542   0.482   1.343   2.468  1.2169  1.0535 -2.4490
  351TIP3   OH222543   3.460   2.734   4.711 -0.2655 -0.4099  0.2840
  351TIP3    H122544   3.379   2.784   4.703  0.9584  1.3439 -2.4061
  351TIP3    H222545   3.443   2.653   4.662  0.0858  0.7293 -1.8373
  352TIP3   OH222546   0.680   3.802  14.759 -0.5955  0.0102  0.5447
  352TIP3    H122547   0.713   3.803  14.849 -0.9677 -1.5492  0.7231
  352TIP3    H222548   0.754   3.770  14.707 -0.6445  0.1182  0.4085
  353TIP3   OH222549   6.687   2.978  16.384 -0.2289  0.2681 -0.2267
  353TIP3    H122550   6.679   2.883  16.393 -0.0513  0.2177 -0.6020
  353TIP3    H222551   6.611   3.004  16.332 -0.9147  0.4842  0.8417
  354TIP3   OH222552   1.949   5.069   2.733 -0.4093 -0.1468  0.2792
  354TIP3    H122553   1.897   5.115   2.668  0.2967  1.1595  0.5978
  354TIP3    H222554   1.887   5.014   2.779 -1.3016  0.5193 -0.1048
  355TIP3   OH222555   4.888   4.155  12.130 -0.3546  0.5901  0.1769
  355TIP3    H122556   4.858   4.066  12.149 -1.4474  1.3370  2.2736
  355TIP3    H222557   4.809   4.203  12.107 -0.0192  1.3579  0.5708
  356TIP3   OH222558   0.567   6.264   5.732  0.1978 -0.1548  0.1815
  356TIP3    H122559   0.649   6.253   5.684 -0.7977 -0.6687 -1.4873
  356TIP3    H222560   0.560   6.358   5.747  1.1776 -0.1251  0.5186
  357TIP3   OH222561   6.316   0.777   0.298  0.6532 -0.3234  0.0259
  357TIP3    H122562   6.237   0.733   0.329  0.5380 -0.4278 -0.4114
  357TIP3    H222563   6.388   0.731   0.341  0.5109 -0.6669 -0.1022
  358TIP3   OH222564   2.413   5.527   6.472 -0.0427  0.5968  0.1451
  358TIP3    H122565   2.360   5.522   6.551 -1.6118 -0.9373 -0.9553
  358TIP3    H222566   2.413   5.620   6.449 -4.0487  0.5050 -0.9188
  359TIP3   OH222567   3.885   6.452  14.125  0.2735  0.6737 -0.0095
  359TIP3    H122568   3.919   6.438  14.213 -2.0248  1.7041  1.1394
  359TIP3    H222569   3.819   6.383  14.114  1.1223  0.0340 -1.3037
  360TIP3   OH222570   1.098   5.355   4.456 -0.2894 -0.3579 -0.2232
  360TIP3    H122571   1.141   5.434   4.491 -1.7520  0.7504 -0.8441
  360TIP3    H222572   1.007   5.363   4.485  0.0784 -3.3384  2.2440
  361TIP3   OH222573   3.816   4.790   2.219  0.1321 -0.5608  0.4216
  361TIP3    H122574   3.724   4.806   2.200  0.6121  1.1350 -0.7140
  361TIP3    H222575   3.839   4.714   2.166 -0.8459 -1.7540  1.6132
  362TIP3   OH222576   3.496   0.867   4.813 -0.5801 -0.5007  0.3444
  362TIP3    H122577   3.464   0.817   4.738 -0.9362  0.9863 -0.5312
  362TIP3    H222578   3.417   0.894   4.859 -0.4632  0.3113  0.0846
  363TIP3   OH222579   0.597   5.333   4.324 -0.2082  0.1734 -0.3614
  363TIP3    H122580   0.641   5.276   4.387 -1.6839  0.0681  0.6210
  363TIP3    H222581   0.623   5.299   4.238  0.3272 -0.8604  0.1984
  364TIP3   OH222582   2.237   4.888   3.450 -0.0424 -0.0683  0.2728
  364TIP3    H122583   2.323   4.875   3.412  0.6569  0.2033  1.6760
  364TIP3    H222584   2.176   4.876   3.378  1.3094  3.6493 -1.7870
  365TIP3   OH222585   2.361   4.465  10.354  0.0937 -0.2958  0.3134
  365TIP3    H122586   2.356   4.393  10.417 -1.6844  0.1697  0.7550
  365TIP3    H222587   2.440   4.447  10.304 -0.1544 -2.4033  0.5858
  366TIP3   OH222588   4.042   0.272   0.054 -0.2420  0.4595  0.7127
  366TIP3    H122589   4.109   0.247  -0.010 -2.0675 -0.1253 -1.0795
  366TIP3    H222590   4.074   0.355   0.091  0.3802  1.4333 -1.8134
  367TIP3   OH222591   3.480   4.113  11.598  0.1255 -0.1259  0.1692
  367TIP3    H122592   3.443   4.043  11.652 -0.3130 -0.5585 -0.6685
  367TIP3    H222593   3.431   4.108  11.516  2.0040 -0.6848 -0.9818
  368TIP3   OH222594   4.798   3.608   4.161  0.4126  0.0573 -0.2799
  368TIP3    H122595   4.803   3.683   4.102  0.8676  0.0010 -0.3207
  368TIP3    H222596   4.857   3.543   4.121 -0.2587 -0.4594 -0.4428
  369TIP3   OH222597   5.873   0.307   5.909 -0.0726  0.0965  0.4428
  369TIP3    H122598   5.914   0.222   5.925  1.0013  0.6360  0.6244
  369TIP3    H222599   5.779   0.289   5.916 -0.0155 -1.5664 -1.8377
  370TIP3   OH222600   1.257   1.945  11.620  0.1303 -0.3908 -0.0293
  370TIP3    H122601   1.310   1.868  11.642 -0.8081 -0.6273  1.5538
  370TIP3    H222602   1.207   1.963  11.700 -1.0597  0.7283 -0.9887
  371TIP3   OH222603   6.837   3.779   0.712  0.1735 -0.2738 -0.5164
  371TIP3    H122604   6.862   3.861   0.753 -0.8746  0.7058 -1.7281
  371TIP3    H222605   6.907   3.761   0.649  0.6190 -0.5514  0.0498
  372TIP3   OH222606   6.097   4.108  13.004  0.5576 -0.3166  0.6614
  372TIP3    H122607   6.044   4.034  13.034  0.1403 -0.1909  0.2487
  372TIP3    H222608   6.034   4.180  12.995  0.9169  0.0178  0.8166
  373TIP3   OH222609   3.076   4.402   3.663 -0.1989 -0.2221 -0.6022
  373TIP3    H122610   3.167   4.427   3.647  0.7443 -0.3649  3.5700
  373TIP3    H222611   3.027   4.485   3.657  1.1785  0.9408  2.3964
  374TIP3   OH222612   3.755   1.848   5.776 -0.0707  0.5405  0.2827
  374TIP3    H122613   3.826   1.799   5.735  0.3762  0.5275  1.0542
  374TIP3    H222614   3.714   1.896   5.703 -0.4287 -0.8441 -0.4622
  375TIP3   OH222615   4.240   4.048   0.740  0.1565  0.1177 -0.0563
  375TIP3    H122616   4.296   4.088   0.806 -0.4504  1.2185 -0.1872
  375TIP3    H222617   4.301   4.008   0.678  0.7761  0.6701  0.1884
  376TIP3   OH222618   3.299   5.264   4.057  0.2982 -0.1293 -0.0567
  376TIP3    H122619   3.214   5.270   4.014 -0.0736  1.6323  0.8344
  376TIP3    H222620   3.322   5.171   4.053 -0.0059 -0.1663 -3.4028
  377TIP3   OH222621   0.605   1.345   5.208  0.1479  0.2136 -0.3628
  377TIP3    H122622   0.657   1.277   5.166 -0.7957  1.5365 -4.1165
  377TIP3    H222623   0.665   1.419   5.218 -0.2322  0.7760 -1.9876
  378TIP3   OH222624   3.464   6.786  13.153  1.2662  0.3996 -0.4154
  378TIP3    H122625   3.461   6.881  13.162  2.5620  0.4197 -0.1118
  378TIP3    H222626   3.556   6.765  13.143  1.0368 -0.8620 -0.0930
  379TIP3   OH222627   2.697   5.515   4.968  0.6849  0.1586  0.0672
  379TIP3    H122628   2.760   5.541   4.901 -0.0919  0.0692 -0.7240
  379TIP3    H222629   2.657   5.597   4.996  1.7669  0.3230  1.2421
  380TIP3   OH222630   4.088   1.154   3.771  0.0839  0.6048 -0.3556
  380TIP3    H122631   4.133   1.226   3.727 -2.2857  2.1774 -0.3924
  380TIP3    H222632   3.997   1.183   3.778 -0.2182 -0.6798  3.1924
  381TIP3   OH222633   4.210   2.606   2.517  0.3723 -0.3221  0.0506
  381TIP3    H122634   4.268   2.530   2.528  2.6796  1.0329 -1.9680
  381TIP3    H222635   4.230   2.662   2.592  2.5095  0.5805 -1.1212
  382TIP3   OH222636   0.014   5.338   4.053  0.3042 -0.1228  0.3422
  382TIP3    H122637   0.088   5.291   4.092 -0.3976 -2.3190 -0.8432
  382TIP3    H222638  -0.064   5.290   4.083 -0.3346 -1.0576 -2.5087
  383TIP3   OH222639   4.170   4.391  14.959 -0.0164  0.0805  0.5349
  383TIP3    H122640   4.082   4.353  14.958  0.1082 -0.2523 -1.1519
  383TIP3    H222641   4.220   4.336  14.899  0.9888  1.0721  0.4384
  384TIP3   OH222642   4.305   2.694   1.339 -0.7612 -0.3073 -0.1293
  384TIP3    H122643   4.216   2.674   1.310  0.2069 -2.2130 -2.0143
  384TIP3    H222644   4.335   2.613   1.381 -0.1618  0.5905  1.2472
  385TIP3   OH222645   0.740   2.104  11.850 -0.4149  0.3292 -0.0817
  385TIP3    H122646   0.791   2.107  11.931 -1.1629  1.4348  0.3630
  385TIP3    H222647   0.683   2.028  11.861 -0.3593  0.3457  0.3360
  386TIP3   OH222648   5.143   4.842  12.683  0.8730  0.1912  0.0100
  386TIP3    H122649   5.130   4.911  12.617 -0.0636  0.4396  0.4312
  386TIP3    H222650   5.236   4.820  12.677  0.7369 -0.0464 -1.6318
  387TIP3   OH222651   0.246   5.533  14.815  0.0091  0.2269 -0.4367
  387TIP3    H122652   0.284   5.615  14.784  0.4514  0.4240  0.5686
  387TIP3    H222653   0.322   5.481  14.842 -0.3134 -0.2126 -0.3676
  388TIP3   OH222654   6.253   2.696  11.568 -0.5307 -0.1677  0.1772
  388TIP3    H122655   6.233   2.789  11.572  2.6788  0.8415 -2.3176
  388TIP3    H222656   6.337   2.687  11.614 -0.3649 -1.6111 -0.3404
  389TIP3   OH222657   1.397   0.145   5.732  0.1348  0.2681 -0.4280
  389TIP3    H122658   1.373   0.186   5.649 -0.5608  0.6958 -0.0268
  389TIP3    H222659   1.387   0.214   5.797 -1.3791 -0.5797  0.3136
  390TIP3   OH222660   1.802   4.431   6.233  0.6610 -0.1316  0.2896
  390TIP3    H122661   1.728   4.483   6.262  0.6558 -0.1285  0.2706
  390TIP3    H222662   1.816   4.458   6.142  1.2928  0.5728  0.5800
  391TIP3   OH222663   2.022   4.078  13.802  0.1293 -0.0597  0.4113
  391TIP3    H122664   2.041   4.087  13.895 -1.6053 -0.2598  0.8250
  391TIP3    H222665   2.000   4.167  13.773  0.5389 -0.0185  0.2264
  392TIP3   OH222666   0.985   0.115  13.142 -0.2298  0.0863 -0.2821
  392TIP3    H122667   1.029   0.042  13.098  0.7358  0.8471 -0.6007
  392TIP3    H222668   0.957   0.172  13.070 -0.2186  0.4535  0.0019
  393TIP3   OH222669   0.402   2.042   4.713 -0.1969 -0.3980 -0.2214
  393TIP3    H122670   0.465   2.038   4.641  0.9461  0.7383  0.6642
  393TIP3    H222671   0.457   2.039   4.792 -1.2544  0.6228  0.5811
  394TIP3   OH222672   1.838   5.744  14.483  0.5967  0.7113  0.3048
  394TIP3    H122673   1.903   5.674  14.475  0.4611  0.7322 -1.3404
  394TIP3    H222674   1.805   5.735  14.572  2.2372  0.1709  0.9037
  395TIP3   OH222675   2.658   4.692   3.587 -0.1930  0.3483  0.1968
  395TIP3    H122676   2.588   4.744   3.628 -0.7803 -0.5251  0.3391
  395TIP3    H222677   2.618   4.606   3.573  0.5470  0.1302 -0.6532
  396TIP3   OH222678   6.764   3.237   0.552  0.2590  0.4755 -0.0611
  396TIP3    H122679   6.717   3.230   0.469  1.5025 -0.4282 -0.7161
  396TIP3    H222680   6.847   3.193   0.536  0.5891  0.4372  1.6214
  397TIP3   OH222681   0.719   2.009   2.805 -0.1956  0.3597 -0.5678
  397TIP3    H122682   0.700   1.929   2.757  2.4126  0.3134 -1.6891
  397TIP3    H222683   0.815   2.011   2.811 -0.2996  0.8972  3.8185
  398TIP3   OH222684   2.654   5.334   0.824 -0.1629  0.1075 -0.3985
  398TIP3    H122685   2.723   5.342   0.890 -1.4978  1.4021  0.9204
  398TIP3    H222686   2.616   5.248   0.840 -0.8990  0.6608  1.0085
  399TIP3   OH222687   0.141   1.549   2.849 -0.1814 -0.4382 -0.0146
  399TIP3    H122688   0.124   1.476   2.790 -1.3793 -1.3155  1.3417
  399TIP3    H222689   0.236   1.551   2.858 -0.1056 -1.5067 -0.4615
  400TIP3   OH222690   6.804   5.245  13.758 -0.8097 -0.4721 -0.1101
  400TIP3    H122691   6.779   5.155  13.777 -1.4834 -0.3235 -0.2281
  400TIP3    H222692   6.832   5.243  13.666 -0.1421 -0.6870  0.0929
  401TIP3   OH222693   0.838   0.356  16.064 -0.2424 -0.2714  0.2183
  401TIP3    H122694   0.916   0.303  16.079  0.9514  1.7663  1.6609
  401TIP3    H222695   0.775   0.325  16.128  0.1154 -0.5678  0.4335
  402TIP3   OH222696   0.889   5.308   2.020 -0.4719  0.1493 -0.3744
  402TIP3    H122697   0.838   5.382   2.053 -0.8354  0.7330 -2.1723
  402TIP3    H222698   0.979   5.326   2.048 -0.5212  1.4027 -0.9866
  403TIP3   OH222699   1.732   5.800  11.651 -0.1813  0.3162  0.9122
  403TIP3    H122700   1.664   5.860  11.681  0.6380  0.9037  1.6525
  403TIP3    H222701   1.801   5.857  11.617 -0.8435 -0.3178 -1.6726
  404TIP3   OH222702   1.571   1.098  12.072 -0.4995 -0.1730  0.0465
  404TIP3    H122703   1.641   1.076  12.133 -0.4672 -0.3895 -0.0652
  404TIP3    H222704   1.536   1.181  12.103 -0.3000 -0.1454  0.1966
  405TIP3   OH222705   1.353   0.043  13.884 -0.6267  0.3497  0.2663
  405TIP3    H122706   1.272  -0.005  13.871  0.7728 -1.9159 -0.5388
  405TIP3    H222707   1.356   0.106  13.812 -0.7397 -0.8870 -0.8358
  406TIP3   OH222708   5.929   5.758  16.825 -0.0188  0.5080 -0.0305
  406TIP3    H122709   5.887   5.685  16.779 -0.4732  1.2626 -0.8424
  406TIP3    H222710   5.933   5.729  16.916  1.1772 -1.1607 -0.5574
  407TIP3   OH222711   1.113   0.220  15.855  0.1748 -0.8476 -0.3732
  407TIP3    H122712   1.099   0.140  15.804 -0.0780 -1.5184  0.7079
  407TIP3    H222713   1.058   0.286  15.813  0.3369 -1.2565 -1.2390
  408TIP3   OH222714   3.940   5.581  13.996  0.7135  0.5074  0.2212
  408TIP3    H122715   4.016   5.639  13.983 -1.5659  3.2705 -2.1397
  408TIP3    H222716   3.910   5.602  14.084  0.9066  1.7610  0.0150
  409TIP3   OH222717   1.173   6.502   1.195 -0.0021  0.3842  0.0836
  409TIP3    H122718   1.210   6.414   1.197  3.6863  1.6819 -2.0505
  409TIP3    H222719   1.191   6.538   1.281  2.5192  0.4288 -0.4051
  410TIP3   OH222720   4.197   5.834  10.397  0.5509 -0.0924 -0.2145
  410TIP3    H122721   4.194   5.930  10.394 -1.2994  0.0503  2.8797
  410TIP3    H222722   4.115   5.806  10.355  0.4719 -0.2615  0.0518
  411TIP3   OH222723   5.747   4.484   4.729 -0.0128  0.4473  0.0016
  411TIP3    H122724   5.728   4.399   4.768  2.3314 -0.8994 -1.5429
  411TIP3    H222725   5.661   4.522   4.711 -1.1816 -2.4147 -0.9437
  412TIP3   OH222726   3.712   6.699   4.830  0.3865  0.0697  0.1823
  412TIP3    H122727   3.655   6.735   4.762  0.4391 -0.0142  0.0924
  412TIP3    H222728   3.684   6.608   4.838 -0.0809  0.2572  0.7608
  413TIP3   OH222729   0.369   6.417   2.277  0.3508  0.1137 -0.7065
  413TIP3    H122730   0.378   6.427   2.182 -1.2883 -2.2160 -1.2032
  413TIP3    H222731   0.406   6.330   2.296  0.4685  0.4609  0.7666
  414TIP3   OH222732   5.127   1.114   4.188  1.0775  0.4098 -0.2065
  414TIP3    H122733   5.210   1.156   4.212  1.0118  0.1359  0.5196
  414TIP3    H222734   5.085   1.095   4.271  0.0817  0.9349 -0.5744
  415TIP3   OH222735   0.822   6.405  11.367 -0.1726  0.3796  0.5330
  415TIP3    H122736   0.768   6.455  11.428 -0.9381  1.4677 -0.9851
  415TIP3    H222737   0.780   6.417  11.282  0.4366 -1.7077 -0.1233
  416TIP3   OH222738   3.503   4.955  12.469 -0.1479 -0.1402  0.3093
  416TIP3    H122739   3.461   4.872  12.489 -1.8195  0.7859  0.8734
  416TIP3    H222740   3.430   5.017  12.463  1.1871  1.6745  1.8585
  417TIP3   OH222741   3.088   3.099  14.159  0.1053 -0.0159  0.5966
  417TIP3    H122742   3.031   3.169  14.193  1.4485  0.8107  1.2286
  417TIP3    H222743   3.063   3.021  14.208 -1.5762 -0.0648 -0.2727
  418TIP3   OH222744   1.767   1.684   3.262 -0.3402  0.0385  0.0432
  418TIP3    H122745   1.767   1.768   3.308 -1.2593 -0.4044  0.8974
  418TIP3    H222746   1.735   1.622   3.327 -2.2373 -0.5200 -1.3269
  419TIP3   OH222747   2.026   4.705  15.895 -0.2640  0.2559  0.1429
  419TIP3    H122748   2.065   4.774  15.949  0.0272 -0.5689  1.0119
  419TIP3    H222749   2.044   4.624  15.943 -1.6076 -0.3152 -0.2664
  420TIP3   OH222750   6.400   1.745  14.911 -0.0240  0.4105  0.6940
  420TIP3    H122751   6.479   1.693  14.896 -0.3716  0.5932 -2.4117
  420TIP3    H222752   6.421   1.832  14.877 -2.2156 -0.1764 -2.6000
  421TIP3   OH222753   4.953   6.227  15.274  0.1666  0.0527 -0.3294
  421TIP3    H122754   4.911   6.282  15.208 -1.6545 -1.8520 -0.8581
  421TIP3    H222755   5.045   6.222  15.246 -0.1738  0.7774 -1.6408
  422TIP3   OH222756   4.322   1.836  16.924  0.1651  0.3313  0.0487
  422TIP3    H122757   4.318   1.930  16.909 -1.9609  0.1704 -0.7670
  422TIP3    H222758   4.366   1.801  16.846  1.0521  0.6339  0.4011
  423TIP3   OH222759   3.361   1.900  13.368  0.1627  0.2193  0.2003
  423TIP3    H122760   3.385   1.873  13.279  1.4881  1.6197  0.0883
  423TIP3    H222761   3.288   1.960  13.356  0.3861  0.4622  0.0442
  424TIP3   OH222762   0.223   3.288  16.286 -0.2427 -0.1873  0.0581
  424TIP3    H122763   0.277   3.363  16.310  0.8602 -1.7003  2.8789
  424TIP3    H222764   0.213   3.239  16.368 -2.3332 -2.2400 -1.2950
  425TIP3   OH222765   0.823   3.367   5.131  0.2307  0.0710 -0.2202
  425TIP3    H122766   0.824   3.437   5.196 -0.8606  0.9462 -1.0933
  425TIP3    H222767   0.876   3.400   5.059 -0.7540  0.2548 -0.8746
  426TIP3   OH222768   2.771   1.040  16.049 -0.4620 -0.0387  0.5355
  426TIP3    H122769   2.682   1.014  16.026  0.2737 -1.1386 -1.3015
  426TIP3    H222770   2.826   0.992  15.987  1.4680 -0.0624  2.1892
  427TIP3   OH222771   2.534   0.630  13.521  0.0063 -0.4056 -0.1634
  427TIP3    H122772   2.550   0.572  13.446 -1.8174 -1.5673  0.2607
  427TIP3    H222773   2.483   0.576  13.581 -1.3241  1.5102  0.5042
  428TIP3   OH222774   6.408   6.451   3.178 -0.0326 -0.5655 -0.0421
  428TIP3    H122775   6.403   6.449   3.082 -0.9684  1.5720 -0.0945
  428TIP3    H222776   6.337   6.393   3.207 -0.3884 -0.4460 -0.6595
  429TIP3   OH222777   1.457   6.641   2.976  0.5459  0.1159 -0.1190
  429TIP3    H122778   1.407   6.613   2.900 -0.0778 -0.6816  0.5652
  429TIP3    H222779   1.409   6.717   3.009 -0.7830 -1.1354  1.0273
  430TIP3   OH222780   3.718   2.927  15.885 -0.4594  0.1505 -0.1426
  430TIP3    H122781   3.668   2.861  15.933 -1.3066  1.1820  0.4473
  430TIP3    H222782   3.784   2.878  15.837 -2.2898 -1.3276 -1.2922
  431TIP3   OH222783   5.504   1.039  11.169  0.0810  0.0681  0.5960
  431TIP3    H122784   5.446   0.963  11.171  1.3857 -1.0254 -0.5714
  431TIP3    H222785   5.583   1.009  11.214  1.1505  0.1915 -1.1053
  432TIP3   OH222786   4.510   1.872  15.840  0.0469 -0.4264 -0.7093
  432TIP3    H122787   4.457   1.946  15.871  1.9770  1.1442 -0.9314
  432TIP3    H222788   4.459   1.834  15.769 -1.1136  0.5598 -0.4342
  433TIP3   OH222789   0.926   3.509   1.512 -0.2250 -0.0494  0.2632
  433TIP3    H122790   0.893   3.598   1.498  0.8728  0.4296  0.6003
  433TIP3    H222791   0.992   3.518   1.580  0.4685 -0.9920 -0.2543
  434TIP3   OH222792   3.365   6.022   4.784  0.7300  0.3986  0.7060
  434TIP3    H122793   3.366   5.973   4.701 -0.1856 -1.7561  1.8841
  434TIP3    H222794   3.437   6.084   4.775 -0.5487  1.6481 -2.4653
  435TIP3   OH222795   5.793   2.122   0.256 -0.2087  0.2377 -0.3457
  435TIP3    H122796   5.850   2.059   0.212  0.4821  0.1069  0.6851
  435TIP3    H222797   5.719   2.070   0.287  0.0609  0.0445 -0.0223
  436TIP3   OH222798   3.998   0.425   0.493  0.1293  0.2808  0.0905
  436TIP3    H122799   4.081   0.470   0.476 -0.6357  0.9541 -2.1171
  436TIP3    H222800   4.024   0.339   0.526  1.6674  0.8966  0.5656
  437TIP3   OH222801   3.933   1.875  16.510 -0.3569 -0.7700  0.3126
  437TIP3    H122802   3.954   1.840  16.423  1.5712 -1.8391  1.1541
  437TIP3    H222803   4.014   1.918  16.538 -1.1859  0.1867  1.3032
  438TIP3   OH222804   3.409   1.399  13.669 -0.3755 -0.2503  0.3481
  438TIP3    H122805   3.402   1.306  13.650 -2.4199  0.0562 -0.7099
  438TIP3    H222806   3.413   1.441  13.583 -0.9836  0.7042  0.7588
  439TIP3   OH222807   4.411   0.352   6.786 -0.1181  0.1441 -0.5721
  439TIP3    H122808   4.482   0.389   6.733  0.5417  2.0950  1.4875
  439TIP3    H222809   4.333   0.397   6.755 -0.2345 -0.8866 -1.8213
  440TIP3   OH222810   1.893   1.493   0.722  0.4952 -0.1121  0.3989
  440TIP3    H122811   1.936   1.433   0.784 -1.2583  0.2453  2.0671
  440TIP3    H222812   1.824   1.534   0.774 -0.3268  1.0678 -1.5480
  441TIP3   OH222813   6.282   2.868   2.587 -0.8450 -0.0398 -0.3132
  441TIP3    H122814   6.321   2.789   2.551  1.0604  0.4214  0.5954
  441TIP3    H222815   6.253   2.918   2.511 -0.7944 -0.9578 -0.9506
  442TIP3   OH222816   2.577   1.552  16.719  0.4422  0.4811 -0.2199
  442TIP3    H122817   2.583   1.456  16.712 -0.0060  0.5306 -1.3897
  442TIP3    H222818   2.586   1.569  16.813  0.3024 -0.7294  0.0319
  443TIP3   OH222819   2.894   2.510  16.703 -0.0243 -0.1824 -0.0998
  443TIP3    H122820   2.857   2.446  16.642 -0.4182 -1.0506  1.0118
  443TIP3    H222821   2.987   2.488  16.706 -0.0459 -0.2928 -0.2068
  444TIP3   OH222822   3.651   2.702   1.098 -0.1562  0.0034 -0.1192
  444TIP3    H122823   3.602   2.741   1.170  2.0117  2.6597  0.0608
  444TIP3    H222824   3.608   2.735   1.019  0.9806  1.9494  0.0344
  445TIP3   OH222825   3.763   3.494   4.059 -0.2101 -0.2396 -0.0095
  445TIP3    H122826   3.803   3.410   4.083  0.6363  0.2399  0.2820
  445TIP3    H222827   3.804   3.558   4.116 -1.2704  0.3091  0.1660
  446TIP3   OH222828   1.122   5.624  12.316 -1.0040 -0.1647  1.1866
  446TIP3    H122829   1.087   5.679  12.386 -0.6894 -1.9239  2.8285
  446TIP3    H222830   1.202   5.668  12.288 -1.9415  1.3644  0.8320
  447TIP3   OH222831   2.854   6.007   1.637 -0.4852 -0.6955 -0.3735
  447TIP3    H122832   2.762   5.987   1.624 -0.8179  0.8714 -0.5443
  447TIP3    H222833   2.867   5.998   1.732 -1.1427  0.3085 -0.1681
  448TIP3   OH222834   4.613   5.343  15.410 -0.0581 -0.0626  0.3203
  448TIP3    H122835   4.581   5.252  15.410  1.0053 -0.4731 -1.2000
  448TIP3    H222836   4.624   5.364  15.503  0.8727 -1.9337  0.6779
  449TIP3   OH222837   2.005   1.211  11.826 -0.2949 -0.3263 -0.7015
  449TIP3    H122838   1.917   1.205  11.789 -0.8891  3.2627 -0.2564
  449TIP3    H222839   2.056   1.257  11.759  0.1097  1.2241  0.6166
  450TIP3   OH222840   4.833   1.076   3.049  0.0529  0.0097  0.0661
  450TIP3    H122841   4.885   1.152   3.024 -0.2905  0.7147  1.3710
  450TIP3    H222842   4.744   1.098   3.021 -0.3903  0.9318  1.9948
  451TIP3   OH222843   6.169   4.233  15.049  0.1392 -0.0414  0.6102
  451TIP3    H122844   6.115   4.312  15.048  0.2236  0.0323 -1.1418
  451TIP3    H222845   6.175   4.210  15.142  0.6364  2.3507  1.2508
  452TIP3   OH222846   5.839   0.556  17.054 -0.4989 -0.6241 -0.0190
  452TIP3    H122847   5.919   0.603  17.077 -0.4547 -0.8719  0.3409
  452TIP3    H222848   5.868   0.488  16.993 -0.8744  1.1928 -2.3755
  453TIP3   OH222849   4.980   5.416   2.957 -0.6517  0.3454 -0.4303
  453TIP3    H122850   4.931   5.358   2.898 -2.4832 -0.5735  1.8324
  453TIP3    H222851   4.973   5.373   3.043 -0.4138  2.9381  0.9601
  454TIP3   OH222852   5.094   2.685  15.721  0.3163  0.0751 -0.2127
  454TIP3    H122853   5.083   2.624  15.647  1.0610 -0.3496  0.0164
  454TIP3    H222854   5.072   2.633  15.798  0.0999  0.3546 -0.0846
  455TIP3   OH222855   5.908   1.551   0.289  0.6587 -0.1159  0.0817
  455TIP3    H122856   5.968   1.612   0.331  0.4678  0.2122 -0.1234
  455TIP3    H222857   5.965   1.487   0.245  0.8824  1.0115 -1.3381
  456TIP3   OH222858   3.382   4.556  13.969  0.7466  0.0680  0.3824
  456TIP3    H122859   3.404   4.637  14.015  2.6761  0.5167 -1.1926
  456TIP3    H222860   3.428   4.488  14.018 -0.5618 -0.0793  1.4754
  457TIP3   OH222861   5.581   2.456   5.434  0.0527  0.0010  0.1611
  457TIP3    H122862   5.540   2.492   5.355 -1.0376 -0.0831  0.6796
  457TIP3    H222863   5.674   2.450   5.411 -0.1897  0.3148 -0.9910
  458TIP3   OH222864   6.701   4.093  13.522  0.7649  0.1672 -0.2520
  458TIP3    H122865   6.636   4.082  13.453 -0.8373 -2.1631  1.4492
  458TIP3    H222866   6.651   4.125  13.597  2.5223  3.0089 -0.1717
  459TIP3   OH222867   0.259   4.008   2.436  0.5445  0.7564 -0.1631
  459TIP3    H122868   0.238   4.097   2.466 -0.1965  0.4533  0.2478
  459TIP3    H222869   0.335   4.019   2.380  0.8710  1.5703  0.4217
  460TIP3   OH222870   4.307   1.646  10.804 -0.4056 -0.8767  0.0452
  460TIP3    H122871   4.396   1.658  10.836  1.0767 -0.6518 -3.6514
  460TIP3    H222872   4.256   1.711  10.852  1.7817  0.2601  0.9773
  461TIP3   OH222873   2.188   1.466  15.838  0.2296 -0.2792  0.3191
  461TIP3    H122874   2.205   1.409  15.913 -1.7096 -1.0659  0.2218
  461TIP3    H222875   2.137   1.412  15.777 -0.4428  1.1164 -0.4173
  462TIP3   OH222876   5.209   1.361   0.119  0.2400  0.2886 -0.3412
  462TIP3    H122877   5.243   1.435   0.070  1.3860  0.6919  0.9918
  462TIP3    H222878   5.269   1.289   0.099  0.1974  0.2188 -0.2186
  463TIP3   OH222879   5.265   1.837   4.933  0.4614 -0.5160 -0.3259
  463TIP3    H122880   5.337   1.784   4.967  2.2542  1.8253 -0.2615
  463TIP3    H222881   5.306   1.919   4.906 -2.3616  1.4328  0.8708
  464TIP3   OH222882   4.300   0.893  13.482 -0.1668  0.7352 -0.1841
  464TIP3    H122883   4.243   0.947  13.536 -0.3126 -0.8449  1.3222
  464TIP3    H222884   4.383   0.890  13.529 -0.5063 -1.2130  0.3960
  465TIP3   OH222885   4.606   3.939  12.205 -0.5866  0.1713 -0.3128
  465TIP3    H122886   4.696   3.951  12.235 -0.9721  1.8531  0.2959
  465TIP3    H222887   4.555   3.925  12.285 -1.1913  1.6948 -0.3971
  466TIP3   OH222888   3.802   2.564   2.711 -0.3035 -0.1418 -0.0516
  466TIP3    H122889   3.737   2.578   2.780  0.1366  1.5328  0.0821
  466TIP3    H222890   3.885   2.589   2.751  0.2562 -1.0951 -0.5863
  467TIP3   OH222891   6.251   6.296   3.675  0.2213 -0.2516 -0.1331
  467TIP3    H122892   6.308   6.373   3.677 -0.2322  0.1589 -1.8508
  467TIP3    H222893   6.166   6.329   3.704  0.2046 -0.2815 -0.1483
  468TIP3   OH222894   3.750   5.634   0.357  0.3644 -0.6686 -0.3831
  468TIP3    H122895   3.723   5.705   0.300 -1.9281 -2.6200 -1.9056
  468TIP3    H222896   3.839   5.613   0.329  1.8128  2.5822  1.2725
  469TIP3   OH222897   1.790   5.892   0.649  0.3775  0.1136  0.2241
  469TIP3    H122898   1.842   5.814   0.669 -2.4627 -1.6331  1.4274
  469TIP3    H222899   1.704   5.858   0.623 -0.7792  2.8478  0.1149
  470TIP3   OH222900   2.838   0.157  13.923 -0.0939  0.5690 -0.2591
  470TIP3    H122901   2.774   0.223  13.949  0.7812  1.6688 -0.7788
  470TIP3    H222902   2.874   0.125  14.006 -3.1092 -2.0541  0.2241
  471TIP3   OH222903   0.491   3.474  12.606  0.1260  0.2548  0.3508
  471TIP3    H122904   0.453   3.459  12.693  0.4702  0.5328  0.5518
  471TIP3    H222905   0.440   3.547  12.571  1.9359  2.2338  1.5720
  472TIP3   OH222906   5.624   1.637  12.459 -0.2652 -0.0560  0.0685
  472TIP3    H122907   5.590   1.705  12.516 -2.4322 -1.1008  0.1290
  472TIP3    H222908   5.619   1.674  12.371 -0.0535  0.3633  0.2289
  473TIP3   OH222909   4.954   0.131  15.186 -0.4399  0.7144 -0.4400
  473TIP3    H122910   4.968   0.173  15.101 -1.4206  0.2207 -0.8570
  473TIP3    H222911   4.860   0.116  15.190 -0.1624 -1.1958 -0.1933
  474TIP3   OH222912   2.625   2.279  13.277 -0.1668  0.1251  0.4184
  474TIP3    H122913   2.535   2.300  13.254 -0.5124 -0.6637  0.9925
  474TIP3    H222914   2.666   2.363  13.296 -0.9320  0.4491  0.6647
  475TIP3   OH222915   2.301   2.759   1.617  0.4525 -0.4841  0.0820
  475TIP3    H122916   2.272   2.850   1.617  2.1372  0.1015 -0.0666
  475TIP3    H222917   2.227   2.710   1.581 -0.5219  0.8107  0.2561
  476TIP3   OH222918   4.529   5.186  15.658 -0.8788 -0.4126  0.0657
  476TIP3    H122919   4.560   5.226  15.740 -0.1885  2.6581 -1.5058
  476TIP3    H222920   4.437   5.212  15.652 -0.7260  0.0537 -0.4344
  477TIP3   OH222921   1.496   1.367  11.192  0.0027  0.6268  0.3564
  477TIP3    H122922   1.586   1.380  11.162 -0.9243  0.4715 -2.9694
  477TIP3    H222923   1.468   1.286  11.150 -1.2948 -0.0862  2.4619
  478TIP3   OH222924   0.517   3.472   3.316 -0.4101  0.0046  0.3756
  478TIP3    H122925   0.571   3.498   3.241  0.3596 -0.1262  0.8734
  478TIP3    H222926   0.454   3.410   3.280 -1.2526  1.3322 -0.5237
  479TIP3   OH222927   0.649   5.645   3.398  0.4152 -0.1942 -0.3994
  479TIP3    H122928   0.676   5.727   3.441  0.7449 -0.3750 -0.2604
  479TIP3    H222929   0.635   5.670   3.306  1.0739 -0.1047 -0.4754
  480TIP3   OH222930   5.903   1.109  12.684 -0.0571 -0.3704  0.6481
  480TIP3    H122931   5.902   1.111  12.780 -0.7322 -2.5338  0.7399
  480TIP3    H222932   5.819   1.069  12.661 -0.3695  1.0868 -0.9206
  481TIP3   OH222933   1.462   0.239  14.500 -0.0228  0.2095  0.0606
  481TIP3    H122934   1.518   0.297  14.448  0.9861  0.4015  1.3224
  481TIP3    H222935   1.468   0.154  14.456  1.1171  0.2735  0.0717
  482TIP3   OH222936   2.272   2.331  13.973  0.8953  0.5311 -0.1880
  482TIP3    H122937   2.216   2.383  13.915  1.5091  1.6711  0.2077
  482TIP3    H222938   2.221   2.323  14.054  0.1971 -0.7438 -0.7147
  483TIP3   OH222939   5.782   5.809   0.794  0.0195 -0.2270  0.0520
  483TIP3    H122940   5.768   5.902   0.779  1.4491  0.4352  2.2690
  483TIP3    H222941   5.702   5.778   0.835  0.3970  0.6296  1.4986
  484TIP3   OH222942   0.926   5.340  11.970  0.2692 -0.5299  0.3811
  484TIP3    H122943   0.929   5.434  11.955  2.3013 -0.4656  0.9284
  484TIP3    H222944   1.009   5.307  11.936 -0.1896 -2.0496  0.6556
  485TIP3   OH222945   2.737   5.588  11.205  0.2171  0.1456  0.2399
  485TIP3    H122946   2.662   5.535  11.233  0.1296 -0.5652 -1.2305
  485TIP3    H222947   2.813   5.534  11.223  0.1751 -0.2254 -0.6533
  486TIP3   OH222948   6.366   6.016   2.905 -0.6533 -0.3858  0.1267
  486TIP3    H122949   6.292   5.998   2.963 -0.0680  0.2657  1.0885
  486TIP3    H222950   6.344   5.969   2.824 -1.2769 -1.6586  1.0015
  487TIP3   OH222951   5.087   3.727   0.282 -0.0263  0.3890 -0.2241
  487TIP3    H122952   5.181   3.718   0.264  0.0231 -0.6100  0.4251
  487TIP3    H222953   5.072   3.670   0.358 -1.2518  0.1560 -0.6157
  488TIP3   OH222954   3.986   4.850   2.931  0.0450 -0.1954  0.5424
  488TIP3    H122955   3.979   4.909   2.855  0.9304 -1.5124 -0.6062
  488TIP3    H222956   4.029   4.903   2.998  2.8428 -0.0778 -1.1641
  489TIP3   OH222957   1.518   3.107   4.899 -0.3477  0.4096 -0.2610
  489TIP3    H122958   1.507   3.029   4.954 -1.1683 -0.1825 -1.2402
  489TIP3    H222959   1.514   3.074   4.810  0.2655  1.4602 -0.6970
  490TIP3   OH222960   6.038   0.399  12.275 -0.1876  0.4244  0.1811
  490TIP3    H122961   5.943   0.392  12.266 -0.0352 -0.7631 -0.7844
  490TIP3    H222962   6.059   0.345  12.351 -0.2880  0.8172  0.4931
  491TIP3   OH222963   3.657   0.058   4.449  0.0284 -0.1756 -0.5465
  491TIP3    H122964   3.640  -0.028   4.412  0.3060 -0.2543 -0.4951
  491TIP3    H222965   3.753   0.065   4.451  0.0946 -0.7811  1.4895
  492TIP3   OH222966   0.389   4.811   0.569 -0.0817 -0.5128 -0.4865
  492TIP3    H122967   0.317   4.874   0.578  0.0635 -0.5926  2.1874
  492TIP3    H222968   0.368   4.761   0.490 -1.5592  1.1819 -1.2233
  493TIP3   OH222969   0.566   5.414  11.429 -0.0957  0.7441  0.0995
  493TIP3    H122970   0.548   5.480  11.496 -5.2516  1.5070 -1.6649
  493TIP3    H222971   0.549   5.458  11.346 -0.0397 -1.8283 -1.3741
  494TIP3   OH222972   4.712   5.775  14.635 -0.2293  0.4007 -0.2117
  494TIP3    H122973   4.617   5.789  14.632 -0.2894 -0.1061 -1.1022
  494TIP3    H222974   4.735   5.788  14.727 -1.2689 -0.0997  0.1461
  495TIP3   OH222975   4.456   3.796   4.256  0.0139 -0.7036 -0.2277
  495TIP3    H122976   4.507   3.719   4.233 -1.5252 -1.2797 -1.8702
  495TIP3    H222977   4.401   3.767   4.329 -0.7354 -1.2429 -0.9996
  496TIP3   OH222978   4.683   5.580   4.319 -0.8653 -0.2078 -0.1515
  496TIP3    H122979   4.648   5.559   4.232 -0.3780 -0.7889 -0.2193
  496TIP3    H222980   4.622   5.539   4.379 -0.2276 -1.4124 -0.2745
  497TIP3   OH222981   2.218   4.589  16.673 -0.4723 -0.5283 -0.0166
  497TIP3    H122982   2.304   4.546  16.677 -0.2739 -0.1035  0.4901
  497TIP3    H222983   2.159   4.523  16.636  0.4228 -0.2546 -2.0924
  498TIP3   OH222984   3.166   6.375   3.528  0.0555 -0.8659 -0.4368
  498TIP3    H122985   3.231   6.418   3.472 -0.3315  0.0864 -0.1863
  498TIP3    H222986   3.160   6.432   3.605 -0.3218 -1.4965  0.0074
  499TIP3   OH222987   2.018   0.568  15.750 -0.5923 -0.0713 -0.5536
  499TIP3    H122988   1.945   0.629  15.760  1.4912  2.3524  0.7858
  499TIP3    H222989   2.070   0.578  15.829  0.4711 -2.8249 -0.7941
  500TIP3   OH222990   0.784   3.972  12.578 -0.2211 -0.4917 -0.4480
  500TIP3    H122991   0.714   4.022  12.535 -0.1116 -0.8733 -1.0658
  500TIP3    H222992   0.756   3.967  12.670 -0.9948 -0.6222 -0.6861
  501TIP3   OH222993   6.495   1.077  11.748  0.9451  0.1372 -0.1069
  501TIP3    H122994   6.555   1.122  11.689  0.9428  1.6504  0.9709
  501TIP3    H222995   6.408   1.102  11.717  0.9300  0.3222  0.0823
  502TIP3   OH222996   2.307   1.521   5.301  0.2744  0.0706 -0.2395
  502TIP3    H122997   2.321   1.480   5.216  0.3122 -0.6590  0.1146
  502TIP3    H222998   2.217   1.555   5.296  0.1081 -0.3832 -0.4006
  503TIP3   OH222999   5.042   3.594  16.473  0.0852  0.0230 -0.8108
  503TIP3    H123000   5.085   3.645  16.405  0.1446 -0.5836 -1.2322
  503TIP3    H223001   4.959   3.639  16.488 -0.2008 -0.1844 -1.7206
  504TIP3   OH223002   6.682   6.097   2.300  0.1967  0.1142  0.4221
  504TIP3    H123003   6.667   6.002   2.298  1.1134 -0.0575  1.1065
  504TIP3    H223004   6.628   6.129   2.372 -0.7601  0.2537 -0.3300
  505TIP3   OH223005   4.694   6.412   2.817  0.6003  0.7122  0.1490
  505TIP3    H123006   4.747   6.356   2.761 -2.5795 -0.9060 -1.5072
  505TIP3    H223007   4.650   6.352   2.877  0.2882  1.9014  1.1457
  506TIP3   OH223008   3.339   0.891   5.382  0.5105 -0.8843 -0.3095
  506TIP3    H123009   3.281   0.961   5.413  1.9894 -1.0856  3.5502
  506TIP3    H223010   3.288   0.811   5.396  0.2439 -0.8115 -0.8715
  507TIP3   OH223011   0.750   3.966  13.963  0.2349  0.6363  0.4950
  507TIP3    H123012   0.671   3.924  13.931  0.6086  0.2976 -0.0063
  507TIP3    H223013   0.723   4.010  14.044 -0.6855  1.3772 -0.2041
  508TIP3   OH223014   1.479   0.510  10.302  0.0770 -0.1299 -0.2040
  508TIP3    H123015   1.546   0.447  10.330 -0.0131 -0.1814 -0.1008
  508TIP3    H223016   1.524   0.567  10.240  0.2143 -0.1696 -0.1422
  509TIP3   OH223017   2.094   3.100  12.060  0.3781  0.2985  1.0868
  509TIP3    H123018   2.171   3.099  12.003 -0.3545  1.7292  0.0240
  509TIP3    H223019   2.129   3.078  12.146  1.5848 -1.5196  0.2173
  510TIP3   OH223020   4.927   3.995   5.696  0.5104  0.5982 -0.2193
  510TIP3    H123021   4.872   4.003   5.774  0.6734  1.5082 -0.1906
  510TIP3    H223022   4.976   3.914   5.710  0.0017  0.3657  0.2727
  511TIP3   OH223023   5.191   2.362   0.612 -0.5113 -0.1827 -0.7710
  511TIP3    H123024   5.157   2.450   0.595 -0.0383 -0.1803 -1.7492
  511TIP3    H223025   5.143   2.305   0.552 -0.5011 -0.5414 -0.4501
  512TIP3   OH223026   3.557   1.869  16.658 -0.3172 -0.2740  0.0717
  512TIP3    H123027   3.635   1.815  16.648  1.1933  1.9614 -0.9350
  512TIP3    H223028   3.485   1.813  16.629  1.0027 -2.0849  0.1518
  513TIP3   OH223029   6.550   4.797  16.057 -0.1542 -0.3238  0.0524
  513TIP3    H123030   6.476   4.821  16.113  0.6309  1.9513  0.2287
  513TIP3    H223031   6.621   4.780  16.118  0.5703  1.6938 -0.1323
  514TIP3   OH223032   1.800   3.648  12.638 -0.2276 -0.0307 -0.1914
  514TIP3    H123033   1.771   3.739  12.640  0.4335  0.1786  0.8677
  514TIP3    H223034   1.719   3.597  12.636 -0.6111  0.5624 -0.2369
  515TIP3   OH223035   4.045   2.434   4.798 -0.0971  0.0363  0.1127
  515TIP3    H123036   4.118   2.379   4.827  0.2146  1.0402  1.3029
  515TIP3    H223037   4.025   2.489   4.873 -2.0536 -0.1599 -0.2249
  516TIP3   OH223038   6.663   0.210  12.918  0.1217 -0.5430  0.5508
  516TIP3    H123039   6.596   0.171  12.974 -0.1841  0.7246  1.0951
  516TIP3    H223040   6.640   0.303  12.914  0.0960 -0.5872 -1.7508
  517TIP3   OH223041   5.511   3.159  15.845  0.0748 -0.0283 -0.0221
  517TIP3    H123042   5.433   3.113  15.875  0.6285 -1.0837 -0.1284
  517TIP3    H223043   5.510   3.148  15.750 -0.7239  1.7487 -0.2507
  518TIP3   OH223044   6.283   0.211   5.465  0.3293  0.2527  0.3688
  518TIP3    H123045   6.203   0.233   5.514 -0.7426 -0.9005 -0.7680
  518TIP3    H223046   6.262   0.235   5.375  1.4308  0.3005  0.1201
  519TIP3   OH223047   5.859   1.255  15.726  0.4779 -0.0252  0.1111
  519TIP3    H123048   5.938   1.261  15.779  0.5732  1.6116 -0.1429
  519TIP3    H223049   5.874   1.181  15.668  1.5269 -0.1683  0.5525
  520TIP3   OH223050   1.486   5.285   0.464  0.2109 -0.2066 -0.7176
  520TIP3    H123051   1.416   5.221   0.457  1.5111 -1.8316  0.2478
  520TIP3    H223052   1.501   5.295   0.558 -0.0637  1.6812 -0.8321
  521TIP3   OH223053   2.186   3.571  10.672  0.4687  0.0205 -0.0494
  521TIP3    H123054   2.192   3.508  10.601  0.2682 -0.0720  0.0128
  521TIP3    H223055   2.264   3.625  10.664  1.9711 -1.8015  1.3868
  522TIP3   OH223056   3.860   2.147   2.805 -0.3235 -0.5425  0.2068
  522TIP3    H123057   3.895   2.102   2.882 -0.0526 -1.3656 -0.3793
  522TIP3    H223058   3.932   2.200   2.772 -0.6700  0.4197  0.9514
  523TIP3   OH223059   0.852   4.672  14.033 -0.8002  0.7920 -0.5960
  523TIP3    H123060   0.869   4.700  13.943  1.4127  2.6382  0.3060
  523TIP3    H223061   0.831   4.579  14.026  1.4655  0.3499 -2.8361
  524TIP3   OH223062   3.517   3.210   4.960  0.2361  0.2101  0.5854
  524TIP3    H123063   3.499   3.118   4.977  0.0430 -0.2069 -1.5672
  524TIP3    H223064   3.612   3.218   4.974  0.1743 -0.1949  1.2649
  525TIP3   OH223065   2.434   4.189   0.055  0.0787 -0.2772 -0.2404
  525TIP3    H123066   2.410   4.097   0.054 -0.4278 -0.1630  0.5652
  525TIP3    H223067   2.354   4.235   0.079  0.0591  0.4803 -1.6233
  526TIP3   OH223068   5.117   6.113  12.788  0.0047  0.1415 -0.5888
  526TIP3    H123069   5.065   6.159  12.854  0.6870 -0.5284  0.4495
  526TIP3    H223070   5.068   6.033  12.770  0.8445 -0.6960  0.7079
  527TIP3   OH223071   4.365   4.028  11.778  0.3213 -0.2759  0.0010
  527TIP3    H123072   4.399   3.938  11.783 -2.3302 -1.3316  1.0251
  527TIP3    H223073   4.359   4.056  11.870 -0.4754  0.2838 -0.2155
  528TIP3   OH223074   1.346   1.711  15.547 -0.0023 -0.2737  0.5357
  528TIP3    H123075   1.335   1.616  15.546  0.1977 -0.3257  1.5232
  528TIP3    H223076   1.433   1.724  15.585  0.6567  0.2735 -1.0967
  529TIP3   OH223077   6.104   5.826  13.961 -0.0668  0.2818 -0.2251
  529TIP3    H123078   6.136   5.847  14.049  1.4293 -0.7303 -0.4883
  529TIP3    H223079   6.181   5.833  13.905 -0.6859 -0.5034 -1.2053
  530TIP3   OH223080   4.913   3.220  12.929  0.5221 -0.4923  0.1948
  530TIP3    H123081   4.984   3.274  12.895 -1.4124  1.7854 -0.5487
  530TIP3    H223082   4.887   3.265  13.010 -1.9680  0.5768 -1.0958
  531TIP3   OH223083   0.011   0.860  12.211 -0.0077  0.6248  0.2097
  531TIP3    H123084  -0.060   0.891  12.267 -0.3966 -2.1797  1.4488
  531TIP3    H223085  -0.012   0.893  12.124 -1.2124  2.2552  1.0747
  532TIP3   OH223086   2.380   6.582  12.857 -0.2837 -0.6187  0.6468
  532TIP3    H123087   2.324   6.660  12.858  0.8998  0.2790  2.3186
  532TIP3    H223088   2.355   6.536  12.777 -1.6936  0.9803  0.0938
  533TIP3   OH223089   0.291   4.624   5.745 -0.2307  0.0811 -0.0993
  533TIP3    H123090   0.226   4.554   5.752 -0.1067 -0.1555 -1.0602
  533TIP3    H223091   0.240   4.705   5.749 -0.9264 -0.0946 -2.8764
  534TIP3   OH223092   4.436   2.842   3.994  0.0878  0.1711  0.0795
  534TIP3    H123093   4.384   2.891   4.058 -0.1415 -0.1100  0.1154
  534TIP3    H223094   4.468   2.908   3.933  2.3860  0.7999  1.8560
  535TIP3   OH223095   0.563   6.192   0.395 -0.1603  0.1850 -0.1892
  535TIP3    H123096   0.479   6.236   0.388 -0.2453  0.2836  1.2000
  535TIP3    H223097   0.609   6.240   0.464 -0.0355 -1.5348  0.9710
  536TIP3   OH223098   4.043   2.563   4.570  0.4282 -0.3896 -0.6896
  536TIP3    H123099   4.001   2.507   4.505 -0.8598 -1.5713  1.0669
  536TIP3    H223100   4.045   2.511   4.650 -1.3997  2.2116  1.2394
  537TIP3   OH223101   4.320   2.130  15.468 -0.6816  0.0065 -0.1581
  537TIP3    H123102   4.301   2.118  15.561 -0.3587  1.0309  0.0455
  537TIP3    H223103   4.373   2.054  15.445 -2.3088 -1.2418  0.0242
  538TIP3   OH223104   1.880   1.523   3.056  0.2094  0.3251 -0.5827
  538TIP3    H123105   1.893   1.581   3.131 -0.1062  0.0609 -0.3197
  538TIP3    H223106   1.855   1.439   3.095 -0.7842  0.4109 -0.9916
  539TIP3   OH223107   2.399   4.394   5.597 -0.2130 -0.0322  0.2108
  539TIP3    H123108   2.437   4.334   5.534  1.2157  0.5888  0.4472
  539TIP3    H223109   2.370   4.469   5.545  1.2115  0.6005  0.2924
  540TIP3   OH223110   0.822   6.266  14.504 -0.6583 -0.0867 -0.2691
  540TIP3    H123111   0.737   6.227  14.524 -0.5204 -0.1066  0.3030
  540TIP3    H223112   0.877   6.192  14.476 -0.1400 -0.4835  1.6484
  541TIP3   OH223113   4.076   3.467  16.504 -0.0802 -0.0079  0.1295
  541TIP3    H123114   4.105   3.436  16.590 -0.1958 -0.1791  0.1081
  541TIP3    H223115   4.151   3.513  16.468  0.6092 -1.4804 -0.4330
  542TIP3   OH223116   1.249   2.359  14.097  0.7433  0.4882  0.2811
  542TIP3    H123117   1.275   2.351  14.189 -0.1060 -0.8931  0.4437
  542TIP3    H223118   1.157   2.333  14.097  0.9633 -0.3666 -1.0782
  543TIP3   OH223119   4.934   2.680   6.391  0.3081 -0.5110 -0.2611
  543TIP3    H123120   4.875   2.702   6.463  0.6513 -3.1949  0.9500
  543TIP3    H223121   4.956   2.765   6.352 -0.5956  0.9760  2.2162
  544TIP3   OH223122   6.120   6.825   6.167  0.3983 -0.2438  0.5206
  544TIP3    H123123   6.123   6.901   6.225  0.5926  0.6465 -0.6321
  544TIP3    H223124   6.173   6.759   6.212  2.5944  1.2306  0.2724
  545TIP3   OH223125   5.087   3.128  11.368 -0.6222  0.2123 -0.6435
  545TIP3    H123126   5.011   3.075  11.342 -1.1898  0.4149  0.5127
  545TIP3    H223127   5.090   3.199  11.303 -1.3279  0.1070 -0.8029
  546TIP3   OH223128   2.189   1.180  16.734 -0.4255 -0.2196  0.4505
  546TIP3    H123129   2.141   1.097  16.727  0.0477 -0.5142  0.7024
  546TIP3    H223130   2.132   1.243  16.690  0.5443 -1.2317 -2.4788
  547TIP3   OH223131   6.207   1.689  12.585  0.1887  0.1076  0.0575
  547TIP3    H123132   6.245   1.661  12.502  0.6923  1.1368 -0.0797
  547TIP3    H223133   6.137   1.750  12.561 -0.2346 -0.2467  0.3683
  548TIP3   OH223134   1.372   4.645   5.681  0.1410 -0.2439 -0.3442
  548TIP3    H123135   1.437   4.578   5.702  1.9840  0.9886 -1.8639
  548TIP3    H223136   1.305   4.598   5.631  1.1229 -1.0699 -0.9077
  549TIP3   OH223137   2.404   6.573  16.829  0.7281  0.8666 -0.1149
  549TIP3    H123138   2.439   6.625  16.902  0.6546 -1.4212  1.6654
  549TIP3    H223139   2.433   6.484  16.847 -5.9343 -1.5290  1.7951
  550TIP3   OH223140   5.892   6.579   6.028 -0.3257 -0.3635  0.1452
  550TIP3    H123141   5.841   6.598   6.108 -1.3614 -0.0130 -0.5707
  550TIP3    H223142   5.949   6.507   6.053 -1.9799 -1.5511  0.6982
  551TIP3   OH223143   2.343   4.745   4.462  0.1648  0.6190 -0.4402
  551TIP3    H123144   2.368   4.655   4.443 -1.5557  0.2810 -1.2621
  551TIP3    H223145   2.327   4.746   4.557  1.1210  0.3182 -0.2680
  552TIP3   OH223146   0.276   2.393  16.061 -0.6706  0.2903  0.0221
  552TIP3    H123147   0.205   2.412  16.000  0.6279  2.1908 -0.9915
  552TIP3    H223148   0.251   2.441  16.141 -0.8387  0.4198 -0.1055
  553TIP3   OH223149   5.087   5.220   1.882 -0.0105 -0.0966  0.0871
  553TIP3    H123150   5.008   5.228   1.935  1.4307  1.2680  2.1677
  553TIP3    H223151   5.088   5.129   1.853 -3.5421  0.3733 -2.1004
  554TIP3   OH223152   1.180   3.001  11.428  0.4110  0.2660 -0.0334
  554TIP3    H123153   1.105   3.051  11.398  0.1335 -0.2835 -0.2666
  554TIP3    H223154   1.143   2.924  11.470  0.7300  1.6268  2.9576
  555TIP3   OH223155   6.470   6.300  11.106  0.5105 -0.4586 -0.4104
  555TIP3    H123156   6.402   6.344  11.156  1.0751 -0.0903  0.0363
  555TIP3    H223157   6.446   6.207  11.109 -1.2214 -0.1384 -2.1782
  556TIP3   OH223158   3.861   1.758  14.813 -0.7913  0.2514  0.4656
  556TIP3    H123159   3.923   1.826  14.838  0.0341  0.0380 -0.9366
  556TIP3    H223160   3.784   1.775  14.867  0.5053  0.4321  2.3657
  557TIP3   OH223161   1.563   2.070  16.742  0.2351  0.2760 -0.1963
  557TIP3    H123162   1.536   2.097  16.830  1.1807  0.2554  0.1105
  557TIP3    H223163   1.527   1.982  16.733  1.9941 -0.6449  1.0766
  558TIP3   OH223164   3.286   4.930  16.216  0.2867 -0.3782 -0.4576
  558TIP3    H123165   3.316   5.002  16.272 -0.0244  0.5018 -1.3991
  558TIP3    H223166   3.203   4.902  16.255 -0.2760  0.6847 -0.8425
  559TIP3   OH223167   0.317   3.392   1.394 -0.4585  0.2683 -0.1747
  559TIP3    H123168   0.233   3.349   1.376 -0.8172  0.5493  0.7957
  559TIP3    H223169   0.317   3.408   1.488  0.7571  0.1438 -0.1355
  560TIP3   OH223170   3.970   0.670  16.722 -0.3704  0.1235  0.4999
  560TIP3    H123171   3.975   0.712  16.808  0.8796 -1.4325  1.2187
  560TIP3    H223172   3.971   0.576  16.740  3.1378 -0.3414 -1.2672
  561TIP3   OH223173   6.194   5.077  16.562  0.5164 -0.3217  0.1811
  561TIP3    H123174   6.289   5.077  16.578  0.3442  1.4247  1.4323
  561TIP3    H223175   6.156   5.111  16.643 -1.3456 -2.5188  0.3446
  562TIP3   OH223176   2.423   5.074   4.873 -0.4848 -0.0020  0.5002
  562TIP3    H123177   2.380   4.989   4.883 -1.0019  0.2812  0.7389
  562TIP3    H223178   2.457   5.074   4.783  0.0118 -0.6779  0.6815
  563TIP3   OH223179   0.073   5.975  13.416 -0.0061  0.5942  0.2017
  563TIP3    H123180   0.066   5.881  13.400 -0.6427  0.8781 -1.4017
  563TIP3    H223181   0.095   5.982  13.509  1.0973 -1.1576  0.1130
  564TIP3   OH223182   6.256   6.430  11.943 -0.2878  0.2106  0.0503
  564TIP3    H123183   6.253   6.525  11.928  0.0324  0.4824  1.5171
  564TIP3    H223184   6.164   6.403  11.940 -0.3572  0.5003 -0.6984
  565TIP3   OH223185   2.666   1.133   1.935  0.1247  0.2208  0.2132
  565TIP3    H123186   2.607   1.071   1.978 -0.9212  0.5259 -0.7331
  565TIP3    H223187   2.660   1.212   1.988  2.7536 -0.8999  2.4252
  566TIP3   OH223188   0.603   0.095  13.716  0.0284  0.2993  0.1288
  566TIP3    H123189   0.560   0.159  13.659 -0.7604 -0.6345 -0.3400
  566TIP3    H223190   0.585   0.127  13.805 -0.3258  0.7369 -0.0960
  567TIP3   OH223191   5.440   3.993  17.069 -0.2746  0.2803 -0.0096
  567TIP3    H123192   5.354   4.034  17.060 -1.1078 -1.0602  1.3978
  567TIP3    H223193   5.427   3.923  17.133  1.9949  0.3833  0.6455
  568TIP3   OH223194   1.260   1.717  16.709 -0.6486  0.1298  0.2569
  568TIP3    H123195   1.204   1.648  16.674 -0.8347  0.4007  0.0185
  568TIP3    H223196   1.202   1.768  16.766 -0.1934 -0.7094  1.5195
  569TIP3   OH223197   3.414   4.578  16.682 -0.1085 -0.0602  0.6270
  569TIP3    H123198   3.482   4.643  16.661 -0.4871  0.1983  0.1533
  569TIP3    H223199   3.462   4.496  16.694  0.2331 -0.0303 -0.3906
  570TIP3   OH223200   0.928   6.279  15.002 -0.5081  0.0520  0.3439
  570TIP3    H123201   0.883   6.340  14.943 -2.3325 -0.8577  0.7409
  570TIP3    H223202   0.918   6.193  14.961 -0.1783 -0.3391  1.0582
  571TIP3   OH223203   3.338   3.963   2.517  0.2470 -0.2356  0.6240
  571TIP3    H123204   3.420   3.989   2.559 -0.0219 -1.1290  1.7393
  571TIP3    H223205   3.318   4.035   2.457  1.8511 -0.0158  0.3133
  572TIP3   OH223206   5.083   4.381   2.121 -0.6017 -0.1692 -0.3583
  572TIP3    H123207   5.033   4.382   2.202 -0.6531 -1.5750 -0.3644
  572TIP3    H223208   5.035   4.323   2.062  0.9038 -1.4295 -0.4240
  573TIP3   OH223209   0.835   4.954   0.856  0.2828 -0.4978 -0.0526
  573TIP3    H123210   0.814   5.008   0.779 -1.3463  0.1793  0.8279
  573TIP3    H223211   0.911   4.903   0.828  1.9550  2.2456 -0.9399
  574TIP3   OH223212   0.328   6.203   0.230  0.0614  0.1519 -0.1543
  574TIP3    H123213   0.245   6.251   0.233  0.6611  1.2589 -0.8626
  574TIP3    H223214   0.302   6.112   0.212 -1.0384  0.3180  0.4717
  575TIP3   OH223215   3.720   0.774   0.489 -0.2952 -0.4829 -0.7035
  575TIP3    H123216   3.625   0.783   0.478 -0.4225  0.7619  0.9325
  575TIP3    H223217   3.757   0.833   0.424 -0.5525 -2.0270 -2.3165
  576TIP3   OH223218   1.672   3.879  12.659 -0.1948 -0.5079 -0.0399
  576TIP3    H123219   1.709   3.934  12.728  0.4199  0.1548 -0.8636
  576TIP3    H223220   1.677   3.934  12.580  1.4529 -2.0964 -1.1349
  577TIP3   OH223221   1.451   0.241   5.257 -0.4136 -0.4806  0.5274
  577TIP3    H123222   1.448   0.205   5.168  0.1384 -0.4908  0.5042
  577TIP3    H223223   1.532   0.292   5.258 -0.1304 -0.9295  1.1966
  578TIP3   OH223224   5.081   1.350  10.977  0.5511  0.2127 -0.5712
  578TIP3    H123225   5.114   1.351  10.887  0.2264  1.1733 -0.6847
  578TIP3    H223226   5.148   1.302  11.026  0.7137 -0.3505 -1.3231
  579TIP3   OH223227   1.585   4.568   6.311 -0.3053  0.2549 -0.2609
  579TIP3    H123228   1.524   4.540   6.242 -0.8069 -0.0890  0.3143
  579TIP3    H223229   1.536   4.634   6.361 -0.5111 -0.5852  0.6763
  580TIP3   OH223230   6.738   3.963   1.517 -0.2489  0.0547  0.1823
  580TIP3    H123231   6.810   3.979   1.578 -0.1254  1.5370 -0.3208
  580TIP3    H223232   6.671   3.920   1.571  0.3705  0.1393  1.0430
  581TIP3   OH223233   3.628   3.548   1.998 -0.1893 -0.1101 -0.3992
  581TIP3    H123234   3.612   3.492   1.922 -0.8527 -1.1759  0.4999
  581TIP3    H223235   3.612   3.637   1.966 -0.8796 -0.5768 -1.3985
  582TIP3   OH223236   0.594   4.168  13.143 -0.0669  0.0862  0.0485
  582TIP3    H123237   0.511   4.202  13.177  0.2236  1.2084 -0.3275
  582TIP3    H223238   0.620   4.103  13.208  0.5664  2.2948  2.1823
  583TIP3   OH223239   1.254   5.885  15.095  0.1287 -0.0993  0.0618
  583TIP3    H123240   1.349   5.889  15.096  0.1637 -0.8432  0.6785
  583TIP3    H223241   1.229   5.895  15.003  0.8381 -0.6662 -0.1969
  584TIP3   OH223242   3.787   1.040  14.143  0.0675 -0.3615 -0.1696
  584TIP3    H123243   3.786   1.136  14.145  1.3285 -0.3307 -0.1164
  584TIP3    H223244   3.696   1.015  14.160 -0.3603  0.8267 -0.5755
  585TIP3   OH223245   3.704   5.842  12.594  0.2853  0.1897  0.1277
  585TIP3    H123246   3.618   5.847  12.637 -0.5040 -1.6206 -1.0985
  585TIP3    H223247   3.738   5.931  12.597 -1.3165  0.8087  1.2852
  586TIP3   OH223248   4.558   0.368  11.280 -0.4223  0.3249  0.4079
  586TIP3    H123249   4.512   0.291  11.313 -0.9701  0.2660 -0.4347
  586TIP3    H223250   4.629   0.382  11.341  0.3701 -1.5304 -0.0112
  587TIP3   OH223251   1.682   3.730   3.327 -0.3096  0.4660 -0.4032
  587TIP3    H123252   1.715   3.669   3.261 -0.9531  0.9623 -1.2038
  587TIP3    H223253   1.760   3.760   3.374  0.1407 -0.0110 -0.8358
  588TIP3   OH223254   5.515   5.331  15.809  0.1130 -0.3977  0.0134
  588TIP3    H123255   5.597   5.285  15.827 -0.0315 -0.7267 -0.1799
  588TIP3    H223256   5.492   5.372  15.893  0.1117 -0.8715  0.2469
  589TIP3   OH223257   6.062   1.881   1.533 -0.8254 -0.1066  0.4324
  589TIP3    H123258   6.075   1.892   1.627 -0.9228 -0.0868  0.4443
  589TIP3    H223259   6.147   1.854   1.500 -0.2445  1.8191  0.2297
  590TIP3   OH223260   3.874   4.016  12.159 -0.0610 -0.6806  0.1973
  590TIP3    H123261   3.792   4.029  12.112 -0.3775  0.1079  0.9389
  590TIP3    H223262   3.918   4.100  12.154  0.0094 -0.6571  1.1005
  591TIP3   OH223263   5.022   0.270  15.541  0.0762 -0.0454  0.1249
  591TIP3    H123264   4.926   0.275  15.541  0.0475 -0.5859 -0.1457
  591TIP3    H223265   5.049   0.338  15.603 -0.5420 -0.9384  1.4248
  592TIP3   OH223266   4.975   5.671  12.511  0.6141  0.1236 -0.6008
  592TIP3    H123267   4.947   5.622  12.433 -0.6237 -0.4619  0.1900
  592TIP3    H223268   5.046   5.618  12.548 -0.3125 -0.7966 -0.0869
  593TIP3   OH223269   1.151   2.171  16.066  0.7656  0.4753 -0.0004
  593TIP3    H123270   1.178   2.253  16.108  1.8582  0.7612 -1.2033
  593TIP3    H223271   1.166   2.186  15.972  0.9797 -1.0900 -0.2453
  594TIP3   OH223272   3.961   3.317  11.948 -0.5845 -0.1867 -0.6107
  594TIP3    H123273   3.914   3.380  11.893  0.5453  1.1000 -0.1936
  594TIP3    H223274   4.009   3.262  11.886 -1.2993 -0.4093 -0.9757
  595TIP3   OH223275   5.949   4.006   4.708 -0.1804  0.1349  0.1848
  595TIP3    H123276   6.020   3.978   4.651  1.6807 -1.1940  2.9447
  595TIP3    H223277   5.879   3.942   4.692  0.3717 -0.3198 -0.4484
  596TIP3   OH223278   2.663   1.006  14.945 -0.3922 -0.3908  0.0159
  596TIP3    H123279   2.637   1.036  15.032 -0.2463 -0.7901  0.1991
  596TIP3    H223280   2.644   1.080  14.888  1.0448  0.4866  0.6289
  597TIP3   OH223281   0.534   5.553  15.427 -0.4157 -0.3068  0.2749
  597TIP3    H123282   0.514   5.609  15.502 -0.9842 -2.1949  1.5837
  597TIP3    H223283   0.581   5.478  15.464 -1.5214 -1.7406 -1.1059
  598TIP3   OH223284   3.637   0.931  15.505 -0.5427  0.2122 -0.9755
  598TIP3    H123285   3.708   0.923  15.569 -0.9001 -0.7845 -0.6848
  598TIP3    H223286   3.561   0.959  15.556 -1.0651 -1.4723 -0.7676
  599TIP3   OH223287   6.072   1.815  11.228 -0.1940 -0.4313 -0.3632
  599TIP3    H123288   6.067   1.843  11.137  0.3413 -0.7286 -0.4872
  599TIP3    H223289   6.081   1.720  11.223  1.6499 -0.3091 -0.0677
  600TIP3   OH223290   6.313   3.919  16.527  0.4313 -0.0572  0.5537
  600TIP3    H123291   6.327   3.990  16.589  0.5678 -0.1308  0.6077
  600TIP3    H223292   6.298   3.962  16.443 -0.4793  0.0704  0.7715
  601TIP3   OH223293   2.085   6.384   3.320 -0.3583 -0.0526 -0.4173
  601TIP3    H123294   2.062   6.291   3.309  2.8783 -0.9427 -0.8390
  601TIP3    H223295   2.144   6.402   3.246 -0.3670  2.1799  0.0557
  602TIP3   OH223296   2.641   2.915  16.247 -0.2298  0.2207 -0.0528
  602TIP3    H123297   2.679   3.002  16.232 -0.4878  0.9139  2.7821
  602TIP3    H223298   2.712   2.865  16.288 -0.9767  0.0996  1.1316
  603TIP3   OH223299   2.881   2.740  11.370 -0.0030 -0.4846 -0.5561
  603TIP3    H123300   2.946   2.695  11.316  0.2584 -0.6214 -0.1303
  603TIP3    H223301   2.933   2.798  11.426 -0.0561 -2.0572  1.2175
  604TIP3   OH223302   0.560   1.232  17.113  0.0173  0.2038  0.0794
  604TIP3    H123303   0.593   1.300  17.054  1.6666 -0.6238 -0.0201
  604TIP3    H223304   0.599   1.253  17.198 -0.0211 -0.2246  0.2064
  605TIP3   OH223305   1.572   3.461   4.609 -0.2664  0.7018  0.4152
  605TIP3    H123306   1.592   3.375   4.645 -0.4786  0.9710  1.1780
  605TIP3    H223307   1.552   3.516   4.685 -1.0892  1.1795 -0.1323
  606TIP3   OH223308   5.400   0.127   3.233 -0.3768  0.1253  1.0568
  606TIP3    H123309   5.472   0.066   3.247  0.1257  0.6779  0.9218
  606TIP3    H223310   5.411   0.193   3.302 -1.1289 -0.1266  1.4274
  607TIP3   OH223311   3.767   2.683  12.090 -0.0840  0.1963 -0.3401
  607TIP3    H123312   3.708   2.654  12.021 -1.2703  1.9577 -0.1393
  607TIP3    H223313   3.763   2.779  12.086 -0.1827  0.3627  2.1443
  608TIP3   OH223314   3.063   5.504   4.619 -0.3712  0.7170  0.2465
  608TIP3    H123315   3.094   5.570   4.557 -2.7498  2.3765  0.7168
  608TIP3    H223316   3.139   5.485   4.674  0.9309  1.4606 -1.2239
  609TIP3   OH223317   3.795   4.939  16.757 -0.3755  0.6556  0.2241
  609TIP3    H123318   3.871   4.880  16.759  0.4144  1.4972 -1.9521
  609TIP3    H223319   3.722   4.882  16.731 -0.0489  0.2443  0.1882
  610TIP3   OH223320   5.383   0.011  11.548 -0.0439  0.6891  0.6135
  610TIP3    H123321   5.434  -0.025  11.476 -2.7464 -2.6236  0.1373
  610TIP3    H223322   5.438  -0.001  11.625  1.2703  0.5691 -0.3183
  611TIP3   OH223323   6.183   0.295   2.394  0.3513  0.0317  0.6459
  611TIP3    H123324   6.154   0.222   2.340 -0.8427  1.0079 -0.0925
  611TIP3    H223325   6.185   0.260   2.483 -1.9500 -0.4588  0.5745
  612TIP3   OH223326   5.984   0.332  16.962  0.1010  0.5969  0.5196
  612TIP3    H123327   6.014   0.243  16.978 -1.7548 -0.1729 -0.0486
  612TIP3    H223328   6.052   0.370  16.907  0.0926 -1.0513 -0.6974
  613TIP3   OH223329   0.959   6.512  16.667 -0.0774  0.0701  0.5385
  613TIP3    H123330   0.958   6.482  16.576  0.9486 -0.1558  0.5902
  613TIP3    H223331   0.870   6.497  16.698  0.1458 -2.1286  0.2879
  614TIP3   OH223332   3.570   3.949   6.548 -0.1504  0.2164 -0.1259
  614TIP3    H123333   3.514   3.923   6.475  0.3965  1.9373 -1.2372
  614TIP3    H223334   3.515   3.939   6.625 -1.0591 -0.7576 -0.8662
  615TIP3   OH223335   0.697   1.839  17.178 -0.1118  0.0375  0.1777
  615TIP3    H123336   0.746   1.796  17.248 -0.3346 -0.3957  0.0686
  615TIP3    H223337   0.661   1.918  17.219  1.1416  0.6747  0.1164
  616TIP3   OH223338   5.045   6.469  16.909  0.2979 -0.1642  0.0937
  616TIP3    H123339   5.074   6.502  16.824  2.4244 -2.0322  0.0014
  616TIP3    H223340   4.972   6.526  16.933  0.8876  1.6544 -2.0584
  617TIP3   OH223341   0.970   4.768  12.465  0.4752 -0.4980  0.5264
  617TIP3    H123342   1.063   4.790  12.464  0.5953 -1.0174  0.3033
  617TIP3    H223343   0.926   4.847  12.434  0.7233  0.2995  2.0856
  618TIP3   OH223344   6.690   0.241   6.536 -0.4477 -0.2844 -0.3148
  618TIP3    H123345   6.600   0.258   6.566 -0.3540 -0.9747  0.3950
  618TIP3    H223346   6.745   0.280   6.604 -0.1979  0.4952 -0.9518
  619TIP3   OH223347   1.902   4.133   1.681  0.0773 -0.2573  0.0146
  619TIP3    H123348   1.886   4.042   1.656  0.4217 -0.5880  0.9724
  619TIP3    H223349   1.958   4.128   1.757 -2.3713  0.6320  2.0293
  620TIP3   OH223350   0.981   2.816  12.396 -0.1878  0.3030  0.3680
  620TIP3    H123351   0.983   2.729  12.437  2.4805  0.5503  0.9716
  620TIP3    H223352   1.039   2.808  12.320 -1.8367  0.9705 -1.0284
  621TIP3   OH223353   2.709   5.651  16.705 -0.0724 -0.1026  0.0525
  621TIP3    H123354   2.669   5.736  16.720 -0.9276 -0.3419 -0.8198
  621TIP3    H223355   2.675   5.622  16.621  1.9206 -0.3441 -0.7241
  622TIP3   OH223356   6.827   3.542  11.990  0.3359  0.1702 -0.5988
  622TIP3    H123357   6.822   3.576  12.079 -0.9936 -0.4130 -0.4259
  622TIP3    H223358   6.894   3.596  11.947  0.7890  0.6381  0.6608
  623TIP3   OH223359   4.847   3.720   1.766  0.6378 -0.1224  0.2805
  623TIP3    H123360   4.802   3.642   1.735  1.4353 -1.0439  1.3707
  623TIP3    H223361   4.913   3.737   1.699  1.5534 -1.3858  0.8270
  624TIP3   OH223362   5.761   0.360   1.344 -0.2600  0.6571  0.5335
  624TIP3    H123363   5.736   0.290   1.283  0.9826 -0.7186  1.5314
  624TIP3    H223364   5.833   0.406   1.300  1.7635 -1.3578  1.5116
  625TIP3   OH223365   1.403   0.360   1.913  0.1427  0.1875  0.4046
  625TIP3    H123366   1.484   0.325   1.950 -1.5183 -1.5878  2.7318
  625TIP3    H223367   1.392   0.312   1.831  1.0506 -0.1321  0.4520
  626TIP3   OH223368   0.578   1.194  15.255  1.2392  0.2682 -0.6222
  626TIP3    H123369   0.655   1.206  15.199  1.2453 -2.5720 -1.3375
  626TIP3    H223370   0.613   1.179  15.342  1.3604  1.3715 -0.4674
  627TIP3   OH223371   0.410   1.244   4.272 -0.9561  0.1501 -0.2198
  627TIP3    H123372   0.367   1.219   4.354  0.6216  1.4522  1.0893
  627TIP3    H223373   0.352   1.309   4.233 -2.0960 -1.0357 -0.5681
  628TIP3   OH223374   5.005   5.629   5.267 -0.1074  0.5643  0.6464
  628TIP3    H123375   5.016   5.683   5.345 -1.5586 -0.1697  1.3778
  628TIP3    H223376   5.054   5.549   5.286  1.5374  1.2959 -0.2005
  629TIP3   OH223377   3.167   3.756   2.495 -0.0584  0.2133  0.2121
  629TIP3    H123378   3.230   3.725   2.560 -1.3088  0.2794  1.5082
  629TIP3    H223379   3.194   3.847   2.478 -1.0897  1.0385  2.5247
  630TIP3   OH223380   2.028   4.348   1.160 -0.0488 -0.1517 -0.0779
  630TIP3    H123381   2.058   4.278   1.102  2.0098  0.1130  0.5527
  630TIP3    H223382   1.987   4.302   1.233 -0.7438 -0.5861 -0.7298
  631TIP3   OH223383   2.613   4.577  14.802 -0.3317 -0.3956  0.6963
  631TIP3    H123384   2.683   4.640  14.785 -1.5170  1.2444  1.6729
  631TIP3    H223385   2.603   4.577  14.897 -0.2116 -2.2788  0.7507
  632TIP3   OH223386   1.660   6.624   3.168 -0.0785  0.3225 -0.7029
  632TIP3    H123387   1.746   6.623   3.126  0.5585 -0.7571  0.5569
  632TIP3    H223388   1.598   6.626   3.096  0.9879 -0.1413 -1.6660
  633TIP3   OH223389   6.039   5.819   0.689  0.0421 -0.0348 -0.5291
  633TIP3    H123390   6.103   5.793   0.755  0.4322 -0.4624 -1.0633
  633TIP3    H223391   5.954   5.815   0.734  0.2494 -0.8051 -0.1870
  634TIP3   OH223392   6.660   3.221  11.902 -0.3254  0.4238 -0.9232
  634TIP3    H123393   6.612   3.269  11.970  0.3097  0.3605 -0.4254
  634TIP3    H223394   6.713   3.158  11.949 -2.2266 -1.8426 -1.6168
  635TIP3   OH223395   3.154   1.202   0.333  0.3649 -0.1299  0.2001
  635TIP3    H123396   3.150   1.289   0.372  0.4620 -0.1227  0.1930
  635TIP3    H223397   3.068   1.164   0.350  0.3272 -0.0368  0.2129
  636TIP3   OH223398   4.781   3.307   0.506 -0.1830  0.3607  0.5229
  636TIP3    H123399   4.788   3.368   0.433  2.0090 -0.4323  0.0178
  636TIP3    H223400   4.871   3.281   0.526 -0.9095 -1.3749  1.8635
  637TIP3   OH223401   5.281   1.859  15.533  0.0285 -0.0896  0.6061
  637TIP3    H123402   5.293   1.882  15.441  0.1580  0.2806  0.7132
  637TIP3    H223403   5.252   1.768  15.532 -0.9748  0.2239  0.1496
  638TIP3   OH223404   3.960   0.592  11.009  0.1488 -0.0188 -0.1973
  638TIP3    H123405   4.053   0.600  10.990  0.0258  0.3268 -0.6557
  638TIP3    H223406   3.925   0.680  10.998  0.0268  0.1750  1.3983
  639TIP3   OH223407   4.230   3.860  16.521 -0.1173 -0.2550  0.0845
  639TIP3    H123408   4.224   3.775  16.477  1.5243 -1.0505  1.2635
  639TIP3    H223409   4.171   3.917  16.472 -2.6643 -2.5026  0.3072
  640TIP3   OH223410   6.771   1.142   2.714 -0.2070 -0.2799 -0.1453
  640TIP3    H123411   6.804   1.066   2.762  1.9919  1.2615  0.9591
  640TIP3    H223412   6.684   1.158   2.750 -0.9450 -2.5007 -0.7567
  641TIP3   OH223413   6.799   4.339   2.712  0.0045 -0.0398 -0.0038
  641TIP3    H123414   6.767   4.428   2.729 -0.9691 -0.6254  1.4581
  641TIP3    H223415   6.894   4.345   2.723 -0.1733  0.5566  1.4622
  642TIP3   OH223416   3.443   3.105   1.191  0.3916 -0.1721  0.2495
  642TIP3    H123417   3.350   3.086   1.198  0.4057 -2.5055 -3.2249
  642TIP3    H223418   3.453   3.150   1.108  2.4999 -1.8125 -0.4852
  643TIP3   OH223419   3.843   3.009   4.741  0.8493  0.1012 -0.1664
  643TIP3    H123420   3.904   2.937   4.754  0.7679  0.1325  0.3752
  643TIP3    H223421   3.897   3.081   4.709  1.2976  0.4959  1.3980
  644TIP3   OH223422   5.306   0.507   1.997  0.1300  0.4503 -0.3936
  644TIP3    H123423   5.400   0.508   2.018  0.1211  2.1294 -0.2953
  644TIP3    H223424   5.303   0.525   1.903 -0.1014  0.7359 -0.3325
  645TIP3   OH223425   1.328   4.615  11.622  0.3729 -0.0776 -0.5289
  645TIP3    H123426   1.355   4.615  11.530  0.2140  2.2845 -0.6216
  645TIP3    H223427   1.237   4.643  11.621  0.6979  1.0811  0.4080
  646TIP3   OH223428   6.026   6.638   2.115  0.4656  0.1961  0.4449
  646TIP3    H123429   6.045   6.602   2.028 -1.3396 -0.3596  0.2349
  646TIP3    H223430   6.112   6.649   2.156  1.3776  0.8210 -1.5322
  647TIP3   OH223431   1.445   2.447   0.945  0.4972  0.2265  0.5302
  647TIP3    H123432   1.485   2.494   1.019 -0.3712 -0.0627  1.2082
  647TIP3    H223433   1.369   2.501   0.922  1.1648  0.6914 -0.6357
  648TIP3   OH223434   4.184   5.528  12.546 -0.3189  0.1196  0.0464
  648TIP3    H123435   4.094   5.512  12.574  0.1196  1.2888  2.3152
  648TIP3    H223436   4.193   5.623  12.546  1.1300  0.0090  0.6395
  649TIP3   OH223437   1.203   0.336  13.940 -0.0286  0.2338 -0.1496
  649TIP3    H123438   1.266   0.264  13.944  0.0809  0.2513 -1.2785
  649TIP3    H223439   1.165   0.330  13.852 -1.5622  0.2563  0.4688
  650TIP3   OH223440   3.881   0.934   2.280 -0.1777 -0.1101  0.0199
  650TIP3    H123441   3.953   0.906   2.223 -0.9998 -0.7032 -0.7699
  650TIP3    H223442   3.820   0.860   2.278  0.2758 -0.6387  2.6000
  651TIP3   OH223443   6.160   5.643  14.326 -0.0056 -0.0952 -0.3453
  651TIP3    H123444   6.067   5.667  14.314 -0.1807 -0.5410  0.1274
  651TIP3    H223445   6.207   5.702  14.266 -0.2370  2.8927  2.1330
  652TIP3   OH223446   5.666   2.150   1.236  0.4333  0.2468  0.5000
  652TIP3    H123447   5.729   2.170   1.305  0.3634  0.4944  0.4940
  652TIP3    H223448   5.607   2.086   1.275  0.5709  0.1648  0.5726
  653TIP3   OH223449   0.780   5.069  15.781 -0.6507  0.7703 -0.3842
  653TIP3    H123450   0.846   5.075  15.850  0.6983 -0.9822 -1.4506
  653TIP3    H223451   0.716   5.006  15.814 -1.1358  1.4917  0.0972
  654TIP3   OH223452   0.214   6.280   4.142 -0.2556  0.3285  0.0933
  654TIP3    H123453   0.257   6.329   4.213 -0.2298  1.1884 -0.5005
  654TIP3    H223454   0.127   6.319   4.134 -0.4542 -0.1216  0.0014
  655TIP3   OH223455   0.741   5.080   4.401 -0.4073 -0.4568  0.3964
  655TIP3    H123456   0.828   5.044   4.385 -0.3084 -0.1028  0.1074
  655TIP3    H223457   0.725   5.064   4.494  0.4505  0.4922  0.7263
  656TIP3   OH223458   6.587   3.062  16.791  0.1692 -0.6032 -0.3366
  656TIP3    H123459   6.546   3.119  16.856 -0.5874 -2.6379  1.0797
  656TIP3    H223460   6.515   3.038  16.732 -0.3742 -2.7209  1.0812
  657TIP3   OH223461   2.487   5.720   2.421  0.1151  0.6255 -0.1371
  657TIP3    H123462   2.489   5.804   2.466 -0.6978  0.7268 -0.2668
  657TIP3    H223463   2.495   5.742   2.328  0.1489  0.5459 -0.1533
  658TIP3   OH223464   3.314   0.841   2.381 -0.7275 -0.0359 -0.0771
  658TIP3    H123465   3.282   0.911   2.323  1.1193  0.7550 -0.2032
  658TIP3    H223466   3.286   0.760   2.339 -0.0997  0.5464 -1.6893
  659TIP3   OH223467   1.238   4.367  11.498 -0.1356 -0.0922  0.4828
  659TIP3    H123468   1.268   4.327  11.579 -1.8980 -1.9509  0.3077
  659TIP3    H223469   1.309   4.352  11.436  1.1774  1.2304  1.5781
  660TIP3   OH223470   5.342   5.741   3.953  0.1455 -0.1985  0.0982
  660TIP3    H123471   5.346   5.647   3.970 -0.2942 -0.0067  1.3377
  660TIP3    H223472   5.266   5.751   3.895  0.9870 -0.7358 -1.1496
  661TIP3   OH223473   3.710   0.467  12.786  0.4632  0.7076 -0.0073
  661TIP3    H123474   3.758   0.547  12.806 -0.4187  1.1161  0.5408
  661TIP3    H223475   3.777   0.401  12.771  1.2004  0.8347  2.4096
  662TIP3   OH223476   4.390   0.799  15.083  0.4803 -0.5906  0.1989
  662TIP3    H123477   4.375   0.757  14.998  1.9614  3.0611 -2.1052
  662TIP3    H223478   4.467   0.754  15.118  0.5207 -1.4317 -0.9230
  663TIP3   OH223479   5.554   3.465   1.216  0.2397 -0.4007  0.3848
  663TIP3    H123480   5.467   3.444   1.181  0.0836 -0.9987  1.0996
  663TIP3    H223481   5.543   3.462   1.311  0.8515  0.3598  0.4923
  664TIP3   OH223482   4.303   4.837   6.102  0.0978 -0.0619 -0.6065
  664TIP3    H123483   4.237   4.875   6.160  0.1196 -0.8471 -0.0478
  664TIP3    H223484   4.291   4.742   6.110  0.0175 -0.1898 -1.9977
  665TIP3   OH223485   3.714   1.675  14.603  0.1564  0.8136  0.5028
  665TIP3    H123486   3.790   1.703  14.655  0.0259  0.4680  0.8860
  665TIP3    H223487   3.658   1.753  14.601  0.7127  1.2095 -0.1577
  666TIP3   OH223488   0.434   6.568   5.606 -0.5038  0.2837  0.0634
  666TIP3    H123489   0.471   6.550   5.692  1.8108 -1.6141 -1.1945
  666TIP3    H223490   0.501   6.620   5.561 -0.8560 -0.2744 -1.1574
  667TIP3   OH223491   5.333   0.292   2.283  0.1585  0.5376 -0.0255
  667TIP3    H123492   5.414   0.340   2.302 -0.2149  0.9872  0.4828
  667TIP3    H223493   5.362   0.205   2.255  0.7849  0.3315  1.2105
  668TIP3   OH223494   3.916   0.500   3.376 -0.1948  0.0711  0.1827
  668TIP3    H123495   3.979   0.566   3.404  1.2077 -0.4844 -1.4551
  668TIP3    H223496   3.909   0.512   3.281  0.5647 -2.4138 -0.2844
  669TIP3   OH223497   5.142   3.084   5.092 -0.1105  0.2176  0.3636
  669TIP3    H123498   5.076   3.015   5.100 -1.0535  1.0894  0.3242
  669TIP3    H223499   5.098   3.163   5.123  0.1863  1.2690 -1.6967
  670TIP3   OH223500   6.413   3.662   1.574 -0.0090  0.4564  0.2849
  670TIP3    H123501   6.380   3.752   1.568 -0.2354  0.2883 -1.5403
  670TIP3    H223502   6.477   3.665   1.645 -0.9428  1.7486  1.1156
  671TIP3   OH223503   5.870   2.993   5.889  0.1591 -0.3770 -0.0967
  671TIP3    H123504   5.931   3.044   5.836  1.7863 -0.1680  1.8519
  671TIP3    H223505   5.906   2.905   5.890  1.5102  0.1006  2.4329
  672TIP3   OH223506   2.753   6.668  16.071  0.2074  0.0651  0.1068
  672TIP3    H123507   2.714   6.697  15.989 -1.5093 -0.8167  0.5611
  672TIP3    H223508   2.808   6.741  16.099  0.1909  0.6872 -1.4141
  673TIP3   OH223509   4.913   6.685  14.752 -0.5329 -0.0418  0.3199
  673TIP3    H123510   4.959   6.764  14.781  0.7989 -0.4478 -0.5668
  673TIP3    H223511   4.841   6.674  14.814  1.0961  0.1412  2.3475
  674TIP3   OH223512   5.927   5.166  13.839  0.0810  0.3249 -0.7979
  674TIP3    H123513   5.875   5.246  13.833  1.1606  1.1181  0.1358
  674TIP3    H223514   5.879   5.110  13.900 -0.7905  0.1434 -1.6215
  675TIP3   OH223515   1.082   2.665  16.433 -0.4281  0.1783 -0.1143
  675TIP3    H123516   0.993   2.639  16.409 -0.9600  1.3356  0.5159
  675TIP3    H223517   1.079   2.761  16.435  0.6159  0.2093  0.6986
  676TIP3   OH223518   0.389   1.796  16.538 -0.1091 -0.8287 -0.6505
  676TIP3    H123519   0.313   1.826  16.488 -0.9274  0.9791  1.4958
  676TIP3    H223520   0.459   1.858  16.514 -0.0384 -0.9521 -0.7620
  677TIP3   OH223521   3.440   1.627  13.816 -0.5570 -0.1656  0.0203
  677TIP3    H123522   3.423   1.692  13.748 -0.9122 -0.7951 -0.4988
  677TIP3    H223523   3.420   1.543  13.775 -0.0785 -0.6098  0.6777
  678TIP3   OH223524   6.303   4.475   4.224  0.1830 -0.5525  0.0309
  678TIP3    H123525   6.327   4.502   4.313  0.6955  0.7564 -0.4814
  678TIP3    H223526   6.359   4.528   4.167 -1.4203 -0.0454 -1.1240
  679TIP3   OH223527   2.290   5.985  12.199 -0.0849  0.2469  0.0760
  679TIP3    H123528   2.367   5.990  12.142  0.7227 -2.1877  0.8417
  679TIP3    H223529   2.313   6.036  12.276 -0.5745  2.2485 -1.0248
  680TIP3   OH223530   4.088   5.595  16.984 -0.0328 -0.3628  0.3010
  680TIP3    H123531   4.172   5.635  17.005 -0.1169 -0.4223  0.7709
  680TIP3    H223532   4.050   5.573  17.069  0.4924 -2.4279  0.0707
  681TIP3   OH223533   5.606   1.256   2.730 -0.4208 -0.0213  0.2427
  681TIP3    H123534   5.632   1.348   2.727 -0.3608 -0.0302 -2.5221
  681TIP3    H223535   5.684   1.208   2.702 -1.2785 -0.6227 -1.2398
  682TIP3   OH223536   6.281   2.151   4.529  0.4387 -0.1699  0.1471
  682TIP3    H123537   6.228   2.176   4.605 -2.4709 -1.1119 -1.4177
  682TIP3    H223538   6.260   2.059   4.515  0.5443  0.0913 -2.0466
  683TIP3   OH223539   5.665   5.729  14.894 -0.0757  0.3323 -0.2413
  683TIP3    H123540   5.694   5.762  14.980  1.4345  1.0913 -0.9974
  683TIP3    H223541   5.732   5.665  14.870 -0.6060 -0.0286 -0.7642
  684TIP3   OH223542   6.654   3.216   0.972 -0.1543  0.3353  0.0992
  684TIP3    H123543   6.743   3.248   0.988  0.0026  0.2187 -0.5401
  684TIP3    H223544   6.600   3.295   0.972  0.0022  0.4424  0.1207
  685TIP3   OH223545   1.821   2.416  15.992  0.2986  0.2132  0.0665
  685TIP3    H123546   1.831   2.337  16.046  1.7363  1.1164  1.1728
  685TIP3    H223547   1.909   2.453  15.986 -0.4798  2.2783  0.4343
  686TIP3   OH223548   2.852   3.415  11.704 -0.4554  0.8664  0.0751
  686TIP3    H123549   2.780   3.394  11.645 -1.1571  2.1409  0.4576
  686TIP3    H223550   2.890   3.495  11.669  0.3094  0.6214  0.3110
  687TIP3   OH223551   1.586   5.325   2.696  0.3215 -0.1101  0.9112
  687TIP3    H123552   1.660   5.334   2.756 -0.8062 -1.4365  2.5873
  687TIP3    H223553   1.536   5.251   2.730 -0.8117 -0.4318 -1.2452
  688TIP3   OH223554   6.198   3.930  13.783  0.1142  0.1324  0.6201
  688TIP3    H123555   6.114   3.975  13.796 -0.3873 -0.4874 -0.3139
  688TIP3    H223556   6.195   3.903  13.691  0.7746 -1.0460  0.9389
  689TIP3   OH223557   5.509   1.398  12.397 -0.2539  0.0000  0.2818
  689TIP3    H123558   5.558   1.467  12.442  0.8513  0.8327 -2.0243
  689TIP3    H223559   5.429   1.441  12.367 -1.2102 -0.6717  1.7171
  690TIP3   OH223560   6.611   1.960   1.436  0.0107 -1.0789  0.3988
  690TIP3    H123561   6.582   1.875   1.470 -1.0105 -0.2871  1.6198
  690TIP3    H223562   6.580   2.023   1.501  1.2554  0.1873 -0.1822
  691TIP3   OH223563   2.940   4.153  12.457  0.5943  0.0727  0.0525
  691TIP3    H123564   2.888   4.087  12.503 -0.6562 -0.1328 -1.5359
  691TIP3    H223565   2.997   4.102  12.400  0.2662  0.3300 -0.5154
  692TIP3   OH223566   1.406   6.126  10.696 -0.0154 -0.0271 -0.0046
  692TIP3    H123567   1.437   6.205  10.740 -1.6412 -0.4199  2.0169
  692TIP3    H223568   1.413   6.057  10.762 -0.3927 -1.1785 -1.1159
  693TIP3   OH223569   1.971   5.763   2.173 -0.3455  0.2631 -0.1784
  693TIP3    H123570   1.987   5.818   2.250 -0.1133  0.8831 -0.6603
  693TIP3    H223571   1.978   5.823   2.099  0.8866 -0.6023 -0.7926
  694TIP3   OH223572   2.438   3.184  12.118  0.5057  0.0792  0.1536
  694TIP3    H123573   2.353   3.163  12.078  0.7204 -0.7388  0.1014
  694TIP3    H223574   2.417   3.245  12.188 -0.4799 -1.9976  1.7970
  695TIP3   OH223575   2.419   0.748  14.674 -0.4330  0.3697  0.7225
  695TIP3    H123576   2.438   0.655  14.667  0.4029  0.5886 -0.0191
  695TIP3    H223577   2.360   0.767  14.601 -0.8389  0.3792  1.0419
  696TIP3   OH223578   3.592   4.953   5.254 -0.2252 -0.4254 -0.1042
  696TIP3    H123579   3.563   4.893   5.184  3.8399  0.0780 -2.5470
  696TIP3    H223580   3.643   4.898   5.313  1.4513  0.1158 -0.9945
  697TIP3   OH223581   2.526   4.114   3.647  0.3608  0.0282 -0.0425
  697TIP3    H123582   2.617   4.103   3.620  0.4631 -0.8778  0.6142
  697TIP3    H223583   2.524   4.199   3.692  0.7161  0.3788 -0.6759
  698TIP3   OH223584   2.074   1.879  16.558 -0.2838  0.4808 -0.0934
  698TIP3    H123585   2.166   1.853  16.561 -0.1272  0.7592 -1.6177
  698TIP3    H223586   2.054   1.909  16.646  0.5347 -1.3773  0.7873
  699TIP3   OH223587   5.184   1.697  10.432 -0.2943 -0.1289 -0.0719
  699TIP3    H123588   5.273   1.679  10.404 -0.7244 -1.4586 -0.6837
  699TIP3    H223589   5.187   1.690  10.528  0.3975  0.5501 -0.0428
  700TIP3   OH223590   2.005   6.501  15.362  0.1125 -0.6633 -0.0178
  700TIP3    H123591   2.024   6.540  15.276  0.5031 -0.4823  0.1521
  700TIP3    H223592   2.016   6.572  15.424  1.4010 -1.1658  0.3622
  701TIP3   OH223593   4.262   0.966   4.705  0.1184 -0.3353  0.2533
  701TIP3    H123594   4.214   1.021   4.767 -0.5596 -1.8632  1.1199
  701TIP3    H223595   4.301   1.029   4.644 -0.2643  1.1333  1.4505
  702TIP3   OH223596   2.320   3.645  13.343 -0.7159  0.3510  0.5680
  702TIP3    H123597   2.282   3.608  13.263 -1.3136  2.0017  0.0554
  702TIP3    H223598   2.350   3.568  13.393 -0.5387 -0.7219 -1.1169
  703TIP3   OH223599   1.539   4.195  12.497  0.1236  0.2984  0.3130
  703TIP3    H123600   1.538   4.284  12.461  4.4173  0.6827  0.5617
  703TIP3    H223601   1.572   4.207  12.587 -1.9633 -1.3959  1.4001
  704TIP3   OH223602   2.765   1.315  11.913  0.1239  0.6377 -0.3012
  704TIP3    H123603   2.788   1.309  12.006  1.7958  0.8586 -0.6679
  704TIP3    H223604   2.846   1.339  11.870 -0.5905  0.3785 -1.8585
  705TIP3   OH223605   5.271   0.711  13.969 -0.4643 -0.1832  0.0664
  705TIP3    H123606   5.227   0.704  14.054 -0.4881  0.5354  0.1185
  705TIP3    H223607   5.300   0.802  13.965  0.6304 -0.5383 -0.1653
  706TIP3   OH223608   6.301   1.882  14.022  0.0064  0.2513  0.1317
  706TIP3    H123609   6.230   1.944  14.037  1.2795  1.3076  2.2630
  706TIP3    H223610   6.380   1.936  14.016  1.3914 -1.0449  3.6008
  707TIP3   OH223611   5.237   2.639  16.541  0.7089  0.2068 -0.3387
  707TIP3    H123612   5.242   2.543  16.545  2.9894  0.2031 -1.5122
  707TIP3    H223613   5.146   2.657  16.516  0.5521 -1.7296 -1.3777
  708TIP3   OH223614   6.768   5.129  15.528  0.2265 -0.2029  0.1599
  708TIP3    H123615   6.678   5.162  15.528  0.2612 -0.0648  1.4217
  708TIP3    H223616   6.772   5.068  15.455 -0.2997  1.3536 -1.2233
  709TIP3   OH223617   2.680   2.783   3.011  0.0302  0.1255  0.7452
  709TIP3    H123618   2.685   2.696   2.973 -0.0985 -0.2374  1.5439
  709TIP3    H223619   2.587   2.805   3.009  0.1112  0.4407  0.1292
  710TIP3   OH223620   0.675   1.149   4.380 -0.5624  0.1396  0.8065
  710TIP3    H123621   0.585   1.156   4.348 -0.4105 -0.9366  0.0971
  710TIP3    H223622   0.667   1.154   4.476 -0.9246  4.5445  0.7687
  711TIP3   OH223623   6.060   5.172   5.717  0.3890  0.0201  0.4511
  711TIP3    H123624   6.118   5.224   5.662 -0.0589 -0.1158 -0.1638
  711TIP3    H223625   6.079   5.081   5.692  1.0158 -0.1014  1.3627
  712TIP3   OH223626   5.509   0.741  14.950 -0.2195  0.5066  0.0775
  712TIP3    H123627   5.535   0.762  14.861  0.1915  0.2032  0.1244
  712TIP3    H223628   5.443   0.807  14.972 -1.4493 -0.3256 -0.9696
  713TIP3   OH223629   0.297   1.882   1.843 -0.2670  0.5396  0.0542
  713TIP3    H123630   0.323   1.914   1.930  0.0370  2.2411 -0.6156
  713TIP3    H223631   0.379   1.875   1.795 -0.6542  2.6840 -1.0388
  714TIP3   OH223632   3.836   1.985  14.526  0.4810  0.5532  0.1166
  714TIP3    H123633   3.789   1.960  14.605  0.5106  0.7428  0.1954
  714TIP3    H223634   3.767   2.013  14.466  0.6006  2.8940  0.9707
  715TIP3   OH223635   0.417   1.267  16.200  0.2220  0.3025  0.1233
  715TIP3    H123636   0.477   1.210  16.248  1.2431  0.7123 -0.6522
  715TIP3    H223637   0.380   1.211  16.132  0.1850  0.2068  0.2221
  716TIP3   OH223638   4.686   4.680   1.631  0.0465  0.0939  0.4401
  716TIP3    H123639   4.674   4.585   1.629  2.2698 -0.2279 -0.2113
  716TIP3    H223640   4.620   4.710   1.694 -1.8293 -1.6506 -0.5444
  717TIP3   OH223641   5.751   4.334   3.359  0.2425 -0.1255 -0.1925
  717TIP3    H123642   5.758   4.429   3.368 -0.8757 -0.1024  0.5919
  717TIP3    H223643   5.738   4.301   3.448  0.6640 -1.0343 -0.4430
  718TIP3   OH223644   1.887   0.338   6.486 -0.2626  0.1391 -0.7774
  718TIP3    H123645   1.884   0.251   6.525  0.0557  0.7431  0.6680
  718TIP3    H223646   1.800   0.375   6.505  0.6275  1.2689  1.4750
  719TIP3   OH223647   3.646   3.850   4.922 -0.4211  0.1242 -0.6152
  719TIP3    H123648   3.614   3.917   4.981 -0.2356  1.4712 -1.9953
  719TIP3    H223649   3.629   3.767   4.968  0.7746  1.1464  1.8023
  720TIP3   OH223650   0.827   2.542   3.747 -0.0372  0.3728  0.0488
  720TIP3    H123651   0.754   2.492   3.784 -1.3605  2.0920 -0.1222
  720TIP3    H223652   0.806   2.551   3.654  0.5097  0.6927 -0.0471
  721TIP3   OH223653   4.314   3.949  15.777 -0.3858  0.4752 -0.1348
  721TIP3    H123654   4.286   3.881  15.838 -2.7447 -0.4484 -2.1055
  721TIP3    H223655   4.409   3.941  15.774 -0.2861 -0.1985  2.4700
  722TIP3   OH223656   3.716   2.646  15.432  0.6308  0.4042 -0.4993
  722TIP3    H123657   3.628   2.646  15.470  0.1810 -0.0342 -1.4911
  722TIP3    H223658   3.708   2.701  15.354  1.5101  1.2205 -0.0397
  723TIP3   OH223659   5.075   3.095  12.743  0.0739 -0.5589 -0.0633
  723TIP3    H123660   5.010   3.128  12.804  0.6663 -0.4862  0.5398
  723TIP3    H223661   5.159   3.129  12.775  0.4564 -0.9495 -0.6127
  724TIP3   OH223662   0.418   3.627   3.677  0.3413 -0.0156  0.0026
  724TIP3    H123663   0.492   3.650   3.734  1.4983 -1.5884 -0.7668
  724TIP3    H223664   0.416   3.531   3.678 -1.6892 -0.0198 -0.0480
  725TIP3   OH223665   5.368   3.747   0.280 -0.3947 -0.0744  0.1646
  725TIP3    H123666   5.406   3.750   0.368 -2.1095 -1.3794  1.0226
  725TIP3    H223667   5.367   3.654   0.258  0.0506  0.2432 -1.2755
  726TIP3   OH223668   6.755   0.248  16.993 -0.0965 -0.6676  0.2465
  726TIP3    H123669   6.686   0.292  17.042 -0.9056 -0.9608 -0.6082
  726TIP3    H223670   6.726   0.251  16.902  0.7646 -1.2711 -0.0614
  727TIP3   OH223671   3.105   1.254   0.002 -0.1656  0.0190  0.1774
  727TIP3    H123672   3.169   1.189  -0.026 -0.2014 -0.3944  1.0142
  727TIP3    H223673   3.096   1.239   0.096  1.0703  2.3450  0.7279
  728TIP3   OH223674   3.984   0.266  14.275 -0.4183  0.1716 -0.3954
  728TIP3    H123675   3.968   0.353  14.239 -0.2407  0.5815  0.4902
  728TIP3    H223676   4.056   0.231  14.223 -1.3015  0.0473 -1.5728
  729TIP3   OH223677   5.415   5.563  13.090  0.9376  0.5568  0.2606
  729TIP3    H123678   5.464   5.639  13.058 -1.5178  1.9241 -0.5050
  729TIP3    H223679   5.406   5.506  13.014 -0.2933  1.2588 -0.1492
  730TIP3   OH223680   3.763   6.717  16.617  0.4657  0.0475 -0.0960
  730TIP3    H123681   3.676   6.749  16.595  0.6076  0.2108 -0.4254
  730TIP3    H223682   3.750   6.662  16.694  0.0805  0.1171 -0.1120
  731TIP3   OH223683   2.979   6.210   5.559  0.1815 -0.1072  0.5265
  731TIP3    H123684   3.018   6.125   5.536  0.0346 -0.6309  2.0388
  731TIP3    H223685   3.047   6.274   5.537 -0.6956 -0.2454 -3.1954
  732TIP3   OH223686   1.843   0.989  14.565  0.5339  0.1269  0.5964
  732TIP3    H123687   1.769   1.024  14.615 -0.0822  1.8177 -1.3831
  732TIP3    H223688   1.803   0.928  14.504  1.0448 -0.4431  0.8240
  733TIP3   OH223689   3.649   4.277  12.726  0.0382  0.2415 -0.2439
  733TIP3    H123690   3.630   4.291  12.819 -1.2823  1.5906 -0.6721
  733TIP3    H223691   3.714   4.344  12.704 -1.7515  1.8571 -0.8937
  734TIP3   OH223692   0.805   2.981  14.196  0.1760 -0.4491  0.4326
  734TIP3    H123693   0.771   3.009  14.110  1.7663 -1.1581 -0.4703
  734TIP3    H223694   0.900   2.992  14.188  0.2482  1.4732  2.8567
  735TIP3   OH223695   5.511   2.740  11.981 -0.2871 -0.4253 -0.0485
  735TIP3    H123696   5.483   2.817  11.931  1.0748 -0.3058 -0.6713
  735TIP3    H223697   5.488   2.760  12.072 -0.5615  0.4243 -0.3007
  736TIP3   OH223698   1.879   0.955   4.902  0.5780 -0.1488 -0.2882
  736TIP3    H123699   1.966   0.914   4.895  0.6929  0.0626 -0.0934
  736TIP3    H223700   1.818   0.882   4.890  0.7714 -0.6443  1.4518
  737TIP3   OH223701   1.437   2.499   5.482  0.5955  0.2679 -0.6312
  737TIP3    H123702   1.429   2.448   5.562 -0.9608  1.8730  0.3366
  737TIP3    H223703   1.509   2.560   5.499  1.8853 -0.9667 -1.4531
  738TIP3   OH223704   3.099   5.175   3.899  0.1747 -0.2366 -0.6034
  738TIP3    H123705   3.012   5.200   3.930  0.9149  0.6083  0.9288
  738TIP3    H223706   3.090   5.083   3.876 -0.4698 -1.0510  2.3811
  739TIP3   OH223707   4.542   0.697   2.898  0.3176  0.0779  0.5633
  739TIP3    H123708   4.466   0.726   2.947 -1.9784 -1.7999 -1.6154
  739TIP3    H223709   4.560   0.768   2.837 -2.0523 -0.8130 -1.3151
  740TIP3   OH223710   0.967   0.391   2.903 -0.1420 -0.3688 -0.1029
  740TIP3    H123711   0.917   0.368   2.825  2.0707 -1.2887 -1.3257
  740TIP3    H223712   1.027   0.317   2.916  0.5603  0.4362  1.6165
  741TIP3   OH223713   2.810   0.407  12.101 -0.1543  0.1499 -0.1280
  741TIP3    H123714   2.742   0.407  12.034 -1.9143 -0.6439  1.5728
  741TIP3    H223715   2.847   0.319  12.098  0.3039  0.3512 -0.5483
  742TIP3   OH223716   5.962   6.441  12.428  0.0209  0.3904  0.0637
  742TIP3    H123717   6.009   6.511  12.474  1.6908  0.3318 -1.4501
  742TIP3    H223718   6.007   6.434  12.344 -1.8497 -0.6780 -0.8913
  743TIP3   OH223719   2.856   4.744  12.334 -0.0900 -0.5811 -0.5586
  743TIP3    H123720   2.793   4.676  12.357  2.0846 -2.0621  1.4661
  743TIP3    H223721   2.927   4.698  12.289  0.6426  0.6482 -0.7323
  744TIP3   OH223722   4.373   3.775  14.437 -0.1812 -0.1065 -0.0938
  744TIP3    H123723   4.381   3.739  14.349 -0.3419 -0.2049 -0.0688
  744TIP3    H223724   4.294   3.734  14.473  0.6710 -1.1579  0.6203
  745TIP3   OH223725   6.213   4.579   2.198 -0.1873 -0.0268 -0.6441
  745TIP3    H123726   6.255   4.663   2.213 -0.5871  0.3164 -1.3671
  745TIP3    H223727   6.152   4.569   2.270 -0.2851  0.4053 -0.6623
  746TIP3   OH223728   0.032   5.838   0.892  0.2059  0.5872  0.0078
  746TIP3    H123729   0.050   5.745   0.903  0.1261  0.7777  2.1632
  746TIP3    H223730   0.061   5.858   0.803  1.6347 -1.1701  0.0220
  747TIP3   OH223731   0.484   3.007  16.003  0.1091 -0.0376  0.1613
  747TIP3    H123732   0.395   2.974  15.993  0.0086 -0.0572  1.0143
  747TIP3    H223733   0.489   3.082  15.943  0.1597 -1.2258 -1.3716
  748TIP3   OH223734   4.649   4.252  12.045  0.0679 -0.5890 -0.6266
  748TIP3    H123735   4.561   4.290  12.052 -0.0822 -1.2047  1.9949
  748TIP3    H223736   4.641   4.185  11.977 -1.1313  0.2427 -1.3427
  749TIP3   OH223737   5.742   0.254  14.684  0.3202 -0.1669  0.1037
  749TIP3    H123738   5.771   0.234  14.773  0.9617 -1.5782 -0.3928
  749TIP3    H223739   5.817   0.231  14.629 -1.0585 -2.1710 -1.0557
  750TIP3   OH223740   5.168   3.022   2.931 -0.6344 -0.0753 -0.1798
  750TIP3    H123741   5.212   2.969   2.865  4.1646  0.9295  1.7958
  750TIP3    H223742   5.163   2.965   3.008  0.4799  0.8925  0.6429
  751TIP3   OH223743   1.422   4.787  16.318  0.5212 -0.4242 -0.1351
  751TIP3    H123744   1.411   4.835  16.236  0.5416 -0.4344 -0.1437
  751TIP3    H223745   1.517   4.774  16.325  0.6810  1.0257  0.7271
  752TIP3   OH223746   0.298   4.679  13.762 -0.0121  0.0862  0.7404
  752TIP3    H123747   0.364   4.702  13.696 -1.6694  1.4036 -0.5810
  752TIP3    H223748   0.281   4.761  13.808 -1.2209 -0.0283  0.5398
  753TIP3   OH223749   6.481   2.281   0.193 -0.4029  0.1764  0.4241
  753TIP3    H123750   6.406   2.329   0.229 -0.8329  1.0547 -1.4897
  753TIP3    H223751   6.443   2.203   0.153 -0.4068  0.8807 -1.0058
  754TIP3   OH223752   5.430   2.883  10.919  0.0744 -0.6071 -0.7273
  754TIP3    H123753   5.397   2.807  10.872  1.2913 -1.7227  0.1574
  754TIP3    H223754   5.406   2.958  10.864  2.5043 -1.8835 -3.8326
  755TIP3   OH223755   0.104   5.103  12.524 -0.1182 -0.3180  0.5499
  755TIP3    H123756   0.120   5.013  12.498  1.5149  0.0584  0.1363
  755TIP3    H223757   0.118   5.154  12.444 -2.0999  0.2322  0.5020
  756TIP3   OH223758   6.293   3.269  14.525 -0.2356 -0.3194  0.3089
  756TIP3    H123759   6.353   3.343  14.517 -0.8552 -0.0375 -4.0015
  756TIP3    H223760   6.347   3.198  14.559  1.4760  0.9911  0.4484
  757TIP3   OH223761   1.166   0.955  15.293  0.5571 -0.4123 -0.2838
  757TIP3    H123762   1.145   0.863  15.304 -3.8604  0.4372  0.4680
  757TIP3    H223763   1.165   0.969  15.198  0.6844 -1.0262 -0.3762
  758TIP3   OH223764   6.353   6.304  14.186  0.5895 -0.2128 -0.3862
  758TIP3    H123765   6.333   6.359  14.262  0.3376 -1.8485  0.7834
  758TIP3    H223766   6.440   6.332  14.159  0.1548  1.3015 -0.3401
  759TIP3   OH223767   6.343   2.041   0.013 -0.2754 -0.0135 -0.6952
  759TIP3    H123768   6.357   1.997   0.097  1.1349 -0.4278 -1.1177
  759TIP3    H223769   6.416   2.013  -0.041 -1.1441  0.2661 -2.0710
  760TIP3   OH223770   1.316   4.682  13.470  0.1628  0.0497  0.3715
  760TIP3    H123771   1.274   4.751  13.521  0.6706  2.3938 -2.1316
  760TIP3    H223772   1.322   4.608  13.530 -0.7649  2.0301  3.1178
  761TIP3   OH223773   3.644   1.220  13.906 -0.2541 -0.0359 -0.1864
  761TIP3    H123774   3.644   1.315  13.923 -0.8507 -0.0277 -0.2253
  761TIP3    H223775   3.560   1.190  13.939  0.0630 -0.6110  0.1121
  762TIP3   OH223776   6.724   5.575   3.062  0.0190 -0.7185 -0.1124
  762TIP3    H123777   6.683   5.660   3.074 -0.0982 -0.9164  1.0657
  762TIP3    H223778   6.818   5.593   3.061 -0.0265 -0.5024 -0.5991
  763TIP3   OH223779   6.795   5.117  11.689 -0.2966 -0.5172 -0.2574
  763TIP3    H123780   6.886   5.089  11.695  0.1342  0.7100 -0.8256
  763TIP3    H223781   6.799   5.206  11.655 -1.7346 -0.6530 -0.8717
  764TIP3   OH223782   5.260   3.668   3.654 -0.4489 -0.0065  0.6701
  764TIP3    H123783   5.300   3.751   3.679 -0.3003  0.7047 -1.6574
  764TIP3    H223784   5.175   3.692   3.618 -0.1822 -0.7768 -0.5300
  765TIP3   OH223785   1.816   5.782  11.366  0.4684 -0.0396 -0.6658
  765TIP3    H123786   1.895   5.730  11.384  1.1916  1.2713  0.0814
  765TIP3    H223787   1.849   5.867  11.338 -0.6929  0.2998 -1.0616
  766TIP3   OH223788   5.092   6.105  16.461  0.3010  0.2770 -0.3937
  766TIP3    H123789   5.143   6.145  16.531  0.2957 -0.2132 -0.1077
  766TIP3    H223790   5.001   6.112  16.490  0.2136  0.9459 -0.8010
  767TIP3   OH223791   1.815   4.690  16.602  0.1833 -0.3205 -0.1640
  767TIP3    H123792   1.898   4.725  16.569 -0.5779  0.6751 -1.1116
  767TIP3    H223793   1.769   4.766  16.637 -0.6137 -0.7421 -0.2649
  768TIP3   OH223794   3.626   0.412  13.662  0.4699  0.4526 -0.4346
  768TIP3    H123795   3.695   0.473  13.638 -0.4941  1.4422 -0.7382
  768TIP3    H223796   3.582   0.454  13.736  0.0543 -0.0582 -0.3877
  769TIP3   OH223797   4.945   3.405  16.647 -0.5860  0.2591  0.1846
  769TIP3    H123798   4.989   3.480  16.607  1.4597 -0.0282  1.7316
  769TIP3    H223799   4.854   3.434  16.660  0.1904  2.5918  0.9554
  770TIP3   OH223800   6.679   1.435  11.767  0.6396 -0.1065  0.3198
  770TIP3    H123801   6.585   1.431  11.785  0.6139  0.7334  0.4016
  770TIP3    H223802   6.690   1.387  11.685  0.0877  0.0925  0.1249
  771TIP3   OH223803   0.939   1.641   5.720 -0.2068 -0.3141 -0.5035
  771TIP3    H123804   1.000   1.620   5.791  1.6908  1.2293 -1.5575
  771TIP3    H223805   0.921   1.735   5.732 -0.2344 -0.1474 -1.7734
  772TIP3   OH223806   4.384   0.173  13.990 -0.5201 -0.1628 -0.1142
  772TIP3    H123807   4.414   0.243  13.932 -2.7602  0.9231 -0.0920
  772TIP3    H223808   4.373   0.097  13.933  0.1046  0.0483 -0.5209
  773TIP3   OH223809   6.834   0.461   0.118 -0.0685 -1.1903  0.2709
  773TIP3    H123810   6.781   0.510   0.055  0.2906  0.0541  0.8890
  773TIP3    H223811   6.918   0.508   0.120  0.0364 -1.3907  1.4282
  774TIP3   OH223812   1.388   4.940  12.549 -0.1151  0.3578  0.1256
  774TIP3    H123813   1.446   4.947  12.624  1.1787 -0.0201 -0.8147
  774TIP3    H223814   1.348   4.853  12.557  0.8369 -0.1205 -0.1815
  775TIP3   OH223815   3.838   3.339  16.589  0.6201  0.3444  0.4334
  775TIP3    H123816   3.913   3.350  16.532  0.6767 -0.2743  0.3759
  775TIP3    H223817   3.790   3.264  16.552 -0.0430  0.7491  0.4463
  776TIP3   OH223818   0.497   0.434   5.879  0.4046 -0.6252 -0.7795
  776TIP3    H123819   0.564   0.455   5.944  0.2912 -0.4051 -0.7358
  776TIP3    H223820   0.480   0.340   5.893  1.1630 -0.8347 -1.2179
  777TIP3   OH223821   2.835   2.428   6.286 -0.3005  0.1285  0.2217
  777TIP3    H123822   2.845   2.522   6.273 -0.4627  0.2461  0.9222
  777TIP3    H223823   2.919   2.399   6.321  0.4767 -0.3577 -1.9242
  778TIP3   OH223824   3.696   3.642  16.561 -0.4191 -0.4935  0.8815
  778TIP3    H123825   3.605   3.614  16.556  0.1350 -2.2001 -0.9434
  778TIP3    H223826   3.721   3.660  16.471  0.4539  2.1895  1.5645
  779TIP3   OH223827   6.262   0.758   1.676 -0.1428  0.5984 -0.5106
  779TIP3    H123828   6.287   0.750   1.769 -0.6702  1.9447 -0.2376
  779TIP3    H223829   6.251   0.852   1.662  0.5530  0.4701 -2.1176
  780TIP3   OH223830   4.133   5.665  15.756 -0.1826 -0.4481  0.6816
  780TIP3    H123831   4.062   5.702  15.808 -0.9900 -0.5209 -0.3402
  780TIP3    H223832   4.156   5.735  15.694 -0.0494 -0.7816  0.3538
  781TIP3   OH223833   5.872   0.744   2.163  0.6604  0.5194 -0.1862
  781TIP3    H123834   5.829   0.668   2.123 -0.7888  1.5294 -0.6431
  781TIP3    H223835   5.900   0.797   2.089  1.5570  0.4988  0.1311
  782TIP3   OH223836   5.725   5.042  14.540  0.6735 -0.4388  0.1083
  782TIP3    H123837   5.736   4.948  14.528 -0.6533 -0.9096  2.0575
  782TIP3    H223838   5.805   5.070  14.585  0.1850 -1.0704  1.4143
  783TIP3   OH223839   4.961   0.750   4.975  0.1360 -0.3677 -0.4306
  783TIP3    H123840   4.971   0.776   4.883 -0.8110 -1.9261 -1.0051
  783TIP3    H223841   5.033   0.688   4.991  0.3439 -0.0445 -0.0778
  784TIP3   OH223842   2.346   4.704   1.756  0.7590  0.0149 -0.3376
  784TIP3    H123843   2.434   4.739   1.772  0.9577 -0.3769 -0.5734
  784TIP3    H223844   2.359   4.633   1.694  0.6501 -1.9479  1.7325
  785TIP3   OH223845   3.152   1.593  16.031 -0.1870  0.0930 -0.0015
  785TIP3    H123846   3.121   1.510  16.067  0.0842 -0.2601 -0.5696
  785TIP3    H223847   3.107   1.660  16.083  2.1128 -0.3298  2.7938
  786TIP3   OH223848   1.118   2.995   1.911  0.6008  0.1365  0.3673
  786TIP3    H123849   1.120   2.908   1.952  1.5710 -0.7357 -1.4263
  786TIP3    H223850   1.058   2.986   1.838  2.0759  0.4291 -0.9278
  787TIP3   OH223851   6.032   4.574  13.224 -0.2006 -0.1845  0.0845
  787TIP3    H123852   6.016   4.622  13.143  1.7774 -0.3227 -0.4297
  787TIP3    H223853   6.122   4.598  13.249 -1.0349  0.5582  2.7435
  788TIP3   OH223854   2.048   0.039   0.714 -0.2585 -0.1849 -0.0439
  788TIP3    H123855   2.000   0.001   0.788  0.1562  0.2462  0.4499
  788TIP3    H223856   2.080  -0.037   0.665 -2.9296 -0.5690 -1.4185
  789TIP3   OH223857   5.956   0.806   0.677  0.0936  0.1673  0.4392
  789TIP3    H123858   6.029   0.863   0.703  0.1727  0.5706 -0.6007
  789TIP3    H223859   5.885   0.867   0.655 -0.1596 -0.1780  0.2960
  790TIP3   OH223860   5.926   4.381  15.076  0.2872  0.0751  0.2745
  790TIP3    H123861   5.921   4.404  15.169  1.2205  1.2561  0.0595
  790TIP3    H223862   5.876   4.451  15.032  1.5169  0.6544 -0.2464
  791TIP3   OH223863   1.554   3.287  14.929 -0.2076  0.2018 -0.4669
  791TIP3    H123864   1.542   3.381  14.944 -1.4706  0.1448 -0.9585
  791TIP3    H223865   1.549   3.247  15.016  2.2641  0.7360 -0.0160
  792TIP3   OH223866   5.928   5.456  16.711 -0.1400 -0.1677 -0.3172
  792TIP3    H123867   5.834   5.469  16.712 -0.1537  0.1586 -2.1046
  792TIP3    H223868   5.952   5.440  16.802 -1.5375  2.3460  0.5590
  793TIP3   OH223869   1.447   2.617  12.607  0.3541 -0.3748 -0.5701
  793TIP3    H123870   1.397   2.673  12.548  0.7197 -0.6910 -1.1887
  793TIP3    H223871   1.532   2.661  12.615  0.5338 -0.6774 -0.8075
  794TIP3   OH223872   0.456   3.952   6.272  0.0757 -0.3010 -1.1676
  794TIP3    H123873   0.487   3.901   6.347 -2.2370 -1.4136 -0.8746
  794TIP3    H223874   0.393   4.014   6.310 -0.7921 -0.5781 -2.0976
  795TIP3   OH223875   2.043   2.861   3.407  0.8740  0.2831  0.1006
  795TIP3    H123876   1.981   2.813   3.352  0.9829  1.5047 -1.1397
  795TIP3    H223877   2.029   2.826   3.495 -2.5451  1.4311  0.1482
  796TIP3   OH223878   3.977   3.049  14.230  0.5970 -0.0313  0.2555
  796TIP3    H123879   4.000   3.112  14.162  3.6305 -0.6103  0.6037
  796TIP3    H223880   3.930   3.100  14.296 -0.4934  0.9728 -1.2291
  797TIP3   OH223881   5.012   3.999  15.479 -0.5270 -0.1684 -0.4509
  797TIP3    H123882   5.090   3.998  15.423 -1.2860 -0.8214 -1.5380
  797TIP3    H223883   5.037   4.054  15.554  1.2445 -1.0351 -0.3583
  798TIP3   OH223884   0.927   0.985   1.384 -0.1611  0.8086 -0.0146
  798TIP3    H123885   0.908   1.062   1.331  0.1719 -0.2135 -1.6728
  798TIP3    H223886   0.873   0.996   1.463 -0.3574  2.5583 -0.3598
  799TIP3   OH223887   4.339   5.748  14.128  0.0430  0.5495 -0.6021
  799TIP3    H123888   4.416   5.692  14.129 -0.6323 -0.4339 -1.4732
  799TIP3    H223889   4.275   5.701  14.181 -0.8937 -0.0971 -2.2285
  800TIP3   OH223890   1.618   2.171   2.816 -0.1384 -0.4127  0.0546
  800TIP3    H123891   1.641   2.182   2.908  0.0367  0.9073 -0.1235
  800TIP3    H223892   1.555   2.098   2.815 -0.9351  0.2230  1.3435
  801TIP3   OH223893   4.055   2.379   3.384  0.0212 -0.3844  0.8543
  801TIP3    H123894   4.051   2.473   3.372 -1.0783 -0.5111  0.0142
  801TIP3    H223895   4.141   2.363   3.424  0.1758  0.9651  1.1078
  802TIP3   OH223896   5.485   0.229   1.978  0.0809  0.0213 -0.7370
  802TIP3    H123897   5.555   0.171   2.008 -0.3300 -0.5650 -0.8907
  802TIP3    H223898   5.509   0.316   2.011  1.2254 -0.0481 -1.3507
  803TIP3   OH223899   3.051   1.834  16.162  0.0754  0.3795  0.4587
  803TIP3    H123900   3.127   1.840  16.221 -0.1600 -0.1231  0.8246
  803TIP3    H223901   3.026   1.925  16.146  2.8111  0.7803 -2.4048
  804TIP3   OH223902   6.351   5.529  13.188 -0.2170  0.3848 -0.4640
  804TIP3    H123903   6.432   5.577  13.176 -0.5695  1.1924  0.2805
  804TIP3    H223904   6.295   5.588  13.240 -1.6532  0.2789 -1.8142
  805TIP3   OH223905   0.518   3.272   5.563  0.5271 -0.1055 -0.4762
  805TIP3    H123906   0.597   3.326   5.562 -0.1061  0.8557 -0.5901
  805TIP3    H223907   0.504   3.248   5.471 -0.1449  1.0217 -0.6915
  806TIP3   OH223908   0.073   4.242  12.521 -0.1280 -0.1564  0.0515
  806TIP3    H123909   0.149   4.221  12.575  0.6529  0.0860 -0.9338
  806TIP3    H223910   0.073   4.337  12.515 -1.1141 -0.0885  0.8829
  807TIP3   OH223911   5.174   2.072   4.517 -0.0690 -0.6617  0.7122
  807TIP3    H123912   5.153   2.003   4.454  0.1834 -0.3514  0.2746
  807TIP3    H223913   5.269   2.081   4.511 -0.3564  2.4424 -2.2378
  808TIP3   OH223914   4.353   3.253  16.057  0.3661  0.0107 -0.2213
  808TIP3    H123915   4.432   3.256  16.111  0.6838 -0.3432 -0.6587
  808TIP3    H223916   4.284   3.222  16.116  0.0572  2.2971  0.7301
  809TIP3   OH223917   2.721   5.725   0.499 -0.1939  0.2037 -0.1990
  809TIP3    H123918   2.685   5.657   0.556  0.8157  1.4175  2.0170
  809TIP3    H223919   2.815   5.704   0.494  0.0058  1.0242 -0.0412
  810TIP3   OH223920   0.211   5.947   2.752  0.0780 -0.1136 -0.4545
  810TIP3    H123921   0.238   6.003   2.679 -1.1124  0.1620 -0.7152
  810TIP3    H223922   0.242   5.992   2.830  0.6057  0.0327 -0.7407
  811TIP3   OH223923   1.041   6.234   4.851  0.6850 -0.2903  0.4127
  811TIP3    H123924   1.117   6.262   4.800 -0.0282  1.4837  0.2390
  811TIP3    H223925   0.986   6.312   4.856 -1.9373 -1.9343 -0.8917
  812TIP3   OH223926   0.556   3.590   2.776 -0.0456 -0.3202 -0.0829
  812TIP3    H123927   0.617   3.649   2.732  1.9187 -1.5578  0.8391
  812TIP3    H223928   0.492   3.648   2.819  1.5835  1.1371  0.4676
  813TIP3   OH223929   0.761   4.494  16.270  0.1165  0.0724 -0.3284
  813TIP3    H123930   0.752   4.586  16.293  1.7864  0.3348 -0.6543
  813TIP3    H223931   0.850   4.471  16.296 -1.1431 -2.3019  2.6782
  814TIP3   OH223932   5.020   6.790   6.313 -0.2319  0.3804  1.0477
  814TIP3    H123933   5.097   6.779   6.257 -1.3341  0.9286 -0.6665
  814TIP3    H223934   5.052   6.839   6.388  0.9596  1.3193 -0.0154
  815TIP3   OH223935   6.327   6.438  15.180 -0.1366  0.5608 -1.0765
  815TIP3    H123936   6.398   6.411  15.238 -0.7784  1.8650  0.4042
  815TIP3    H223937   6.287   6.356  15.151 -2.0383 -0.3903  3.2383
  816TIP3   OH223938   2.827   3.404  13.090  0.1192 -0.0828 -0.7520
  816TIP3    H123939   2.835   3.482  13.145  1.2417  0.0031 -1.0221
  816TIP3    H223940   2.792   3.337  13.149  4.6102 -1.0607  1.2099
  817TIP3   OH223941   2.985   3.627   3.883  0.0444  0.2772 -1.0821
  817TIP3    H123942   2.906   3.643   3.832 -0.2521 -1.3190 -1.1793
  817TIP3    H223943   3.051   3.603   3.818 -0.1795 -1.1945 -0.7934
  818TIP3   OH223944   5.062   0.745  15.428 -0.2718 -0.2619  0.3005
  818TIP3    H123945   5.104   0.829  15.446 -0.6127 -0.1137  0.4295
  818TIP3    H223946   5.083   0.727  15.337  0.0932 -0.2070  0.3725
  819TIP3   OH223947   0.235   0.047  12.185  0.0376  0.1491  0.0608
  819TIP3    H123948   0.231  -0.049  12.191 -1.8118  0.2364  0.6798
  819TIP3    H223949   0.222   0.066  12.092  0.5201 -0.1882 -0.0807
  820TIP3   OH223950   3.963   3.664  12.877  0.0031 -0.3511  0.2462
  820TIP3    H123951   4.024   3.598  12.844 -0.7952 -0.8167 -0.3328
  820TIP3    H223952   3.911   3.688  12.800  0.1115  0.7697  0.5096
  821TIP3   OH223953   2.613   1.861   5.822  0.0696 -0.0833 -0.4553
  821TIP3    H123954   2.602   1.901   5.736 -1.3541  2.1214  0.6297
  821TIP3    H223955   2.694   1.899   5.856 -0.7166  1.1756  0.1361
  822TIP3   OH223956   0.615   6.810   1.592  0.1268 -0.0742  0.3188
  822TIP3    H123957   0.571   6.805   1.506 -1.0044 -1.0008  0.9233
  822TIP3    H223958   0.598   6.900   1.622  1.2262  0.5272 -0.7555
  823TIP3   OH223959   3.064   0.004   5.147  0.2851 -0.0440 -0.1714
  823TIP3    H123960   3.060   0.053   5.065  0.2694  2.7056  1.3684
  823TIP3    H223961   3.128  -0.065   5.129 -0.6515 -0.3514 -2.8466
  824TIP3   OH223962   4.739   2.150   3.615 -0.0584 -0.0417 -0.5040
  824TIP3    H123963   4.793   2.228   3.598  0.2409 -0.1700 -0.1509
  824TIP3    H223964   4.713   2.158   3.707 -1.1713  0.3414 -0.8260
  825TIP3   OH223965   0.961   6.180  13.365  0.7841  0.0555  0.1050
  825TIP3    H123966   1.017   6.241  13.317  0.7524 -0.8668 -1.1617
  825TIP3    H223967   0.888   6.234  13.396  1.6817  1.0056  0.6285
  826TIP3   OH223968   0.399   4.957   3.032 -0.3228  0.2105 -0.2670
  826TIP3    H123969   0.391   5.043   2.992 -0.7416 -0.4989 -1.7786
  826TIP3    H223970   0.493   4.940   3.034 -0.2994  0.2152 -1.0724
  827TIP3   OH223971   1.530   5.685   4.476  0.1086 -0.4452 -0.4611
  827TIP3    H123972   1.438   5.664   4.460 -0.2171 -0.7769  1.5679
  827TIP3    H223973   1.574   5.664   4.394 -1.6348 -0.1574 -1.5125
  828TIP3   OH223974   6.358   6.687  15.077  0.2134 -0.0605 -0.4142
  828TIP3    H123975   6.422   6.752  15.108 -1.0313  1.3762 -0.7376
  828TIP3    H223976   6.375   6.610  15.131  0.4229  1.2032  1.4278
  829TIP3   OH223977   6.785   0.185  11.732  0.0434 -0.2170 -0.4160
  829TIP3    H123978   6.862   0.140  11.699  0.9674  0.5170  0.6682
  829TIP3    H223979   6.715   0.120  11.725  0.6992 -0.8221 -1.6090
  830TIP3   OH223980   2.053   2.560  16.019  0.1248  0.1395  0.4539
  830TIP3    H123981   2.124   2.501  15.993 -1.0901 -0.0218 -2.9150
  830TIP3    H223982   2.081   2.647  15.990 -0.0094  0.5186  1.4017
  831TIP3   OH223983   3.068   3.704   4.993  1.0184  0.5515  0.0988
  831TIP3    H123984   3.061   3.612   5.022 -0.2267  0.3848 -0.6828
  831TIP3    H223985   3.078   3.753   5.075 -2.2396  0.0675  0.9582
  832TIP3   OH223986   6.801   3.508   1.258  0.2988  0.2237 -0.7788
  832TIP3    H123987   6.801   3.419   1.292  0.5458  0.7097  0.5468
  832TIP3    H223988   6.716   3.544   1.285  0.5555  0.6596 -0.5339
  833TIP3   OH223989   2.676   2.813   0.318  0.4943 -0.2067 -0.1510
  833TIP3    H123990   2.628   2.886   0.278  0.1080  0.2542  1.1022
  833TIP3    H223991   2.768   2.840   0.314  0.3288  0.4969  0.5590
  834TIP3   OH223992   4.162   2.192  11.451  0.2154  0.5137 -0.2596
  834TIP3    H123993   4.169   2.132  11.526  0.1345 -0.2423 -0.8435
  834TIP3    H223994   4.190   2.139  11.376  0.5476  1.3413 -0.7246
  835TIP3   OH223995   2.584   2.379  15.816 -0.4005 -0.1830  0.2198
  835TIP3    H123996   2.490   2.376  15.834 -0.2980 -0.0314  0.7788
  835TIP3    H223997   2.618   2.445  15.877  0.3851 -1.6383  1.4111
  836TIP3   OH223998   0.142   3.639  14.229 -0.1018 -0.6777  0.2012
  836TIP3    H123999   0.080   3.575  14.192  0.6029 -1.2810  0.0321
  836TIP3    H224000   0.221   3.628  14.177 -0.1662  0.7959 -0.2368
  837TIP3   OH224001   4.924   3.176   2.891 -0.2247  0.1368 -0.1977
  837TIP3    H124002   4.918   3.157   2.797  1.0467  1.7711 -0.6654
  837TIP3    H224003   5.010   3.145   2.917  0.1355  1.2433  0.0012
  838TIP3   OH224004   3.591   4.881   4.161  0.0851 -0.3186 -0.9179
  838TIP3    H124005   3.610   4.963   4.207 -1.8782 -0.4816  0.3009
  838TIP3    H224006   3.670   4.863   4.111  1.3750  1.2051  0.4447
  839TIP3   OH224007   6.664   1.585   0.098  0.1300 -0.7628  0.3204
  839TIP3    H124008   6.756   1.565   0.081  0.7194  2.0309 -0.1546
  839TIP3    H224009   6.625   1.594   0.011  0.4588  2.2265  0.4041
  840TIP3   OH224010   6.721   4.125   0.178  0.0587  0.2657 -0.2182
  840TIP3    H124011   6.761   4.041   0.155 -0.9984 -0.4674  0.4910
  840TIP3    H224012   6.766   4.189   0.123 -0.6622 -1.0527 -2.4713
  841TIP3   OH224013   0.183   1.753  11.914 -0.5299  0.3549 -0.7427
  841TIP3    H124014   0.210   1.666  11.886  3.3516  0.9010  0.7280
  841TIP3    H224015   0.129   1.737  11.992 -0.8003 -0.7330 -1.1283
  842TIP3   OH224016   0.088   6.738   6.220 -0.4287  0.4189 -0.1913
  842TIP3    H124017   0.075   6.829   6.245 -3.4919 -0.4219  1.8579
  842TIP3    H224018   0.121   6.696   6.300  0.0817 -0.4729 -0.8460
  843TIP3   OH224019   2.326   0.889   0.795 -0.1783 -0.1563 -0.3564
  843TIP3    H124020   2.332   0.808   0.845  1.3169 -0.3135 -0.7389
  843TIP3    H224021   2.322   0.861   0.703 -1.5534  0.1679 -0.4156
  844TIP3   OH224022   6.141   4.496   3.284  0.0501 -0.3884  0.3891
  844TIP3    H124023   6.175   4.520   3.198 -1.7838 -1.8173 -0.8339
  844TIP3    H224024   6.135   4.579   3.331  0.8416  0.4771 -0.9534
  845TIP3   OH224025   1.871   3.060  17.102  0.5780 -0.5808  0.5900
  845TIP3    H124026   1.963   3.031  17.105  0.8641  0.2482  0.1707
  845TIP3    H224027   1.868   3.136  17.160  0.3950  0.0149 -0.1904
  846TIP3   OH224028   2.549   0.930  15.902 -0.2887  0.4497 -0.0517
  846TIP3    H124029   2.499   0.862  15.858 -2.0412  1.1290  0.7524
  846TIP3    H224030   2.576   0.990  15.832  1.5372 -1.1689 -0.8011
  847TIP3   OH224031   2.667   0.369  12.720 -0.2905 -0.6317  0.2481
  847TIP3    H124032   2.593   0.309  12.713 -0.7524 -0.0285 -0.1753
  847TIP3    H224033   2.720   0.333  12.791  0.1055 -2.2211 -0.7966
  848TIP3   OH224034   2.969   3.958   2.021  0.3903  0.4222 -0.4230
  848TIP3    H124035   3.007   3.992   2.103  0.1312 -0.8810  0.2565
  848TIP3    H224036   3.035   3.897   1.988  0.0365  0.1510 -0.6299
  849TIP3   OH224037   5.869   5.252  15.466  0.5054  0.0042 -0.2415
  849TIP3    H124038   5.858   5.302  15.547 -0.7456 -0.6650  0.0318
  849TIP3    H224039   5.803   5.287  15.407 -0.5863 -1.4448  0.0467
  850TIP3   OH224040   1.993   1.313  13.115 -0.2710 -0.3394  0.0004
  850TIP3    H124041   2.020   1.368  13.042  0.1324  0.6897  0.8888
  850TIP3    H224042   1.987   1.374  13.189 -1.1298 -1.2644  0.7170
  851TIP3   OH224043   3.792   2.486   0.257  0.4206 -0.1108 -0.6897
  851TIP3    H124044   3.840   2.506   0.177  1.0786  1.2246  0.0187
  851TIP3    H224045   3.860   2.475   0.324 -0.2136  1.6630  0.2983
  852TIP3   OH224046   4.803   6.300  12.358 -0.3097  0.2125 -0.9208
  852TIP3    H124047   4.784   6.391  12.335 -1.3687  0.1064 -0.5276
  852TIP3    H224048   4.844   6.305  12.444  0.4389  0.3638 -1.2751
  853TIP3   OH224049   3.693   0.163   5.496  0.5687 -0.0439 -0.2421
  853TIP3    H124050   3.751   0.154   5.572 -0.9926 -1.3508  0.8830
  853TIP3    H224051   3.752   0.170   5.422  2.2653 -2.8979  0.6548
  854TIP3   OH224052   4.026   5.224   5.824 -0.5400 -0.2192  0.0880
  854TIP3    H124053   4.100   5.279   5.797 -0.2141 -0.7660 -0.1357
  854TIP3    H224054   4.062   5.164   5.889 -0.8351 -0.3493  0.1361
  855TIP3   OH224055   6.588   4.058  11.844 -0.4479  0.0235 -0.6924
  855TIP3    H124056   6.568   4.085  11.754  0.2005  1.0984 -0.5306
  855TIP3    H224057   6.511   4.083  11.894  0.2382  1.8588 -0.5045
  856TIP3   OH224058   5.483   0.945   1.651  0.3995  0.3571  0.5770
  856TIP3    H124059   5.502   0.894   1.572 -1.2161  1.0951 -0.3457
  856TIP3    H224060   5.511   0.889   1.723  0.6975 -0.9041 -0.4838
  857TIP3   OH224061   0.474   1.164  14.982  0.0343  0.0765 -0.6579
  857TIP3    H124062   0.381   1.183  14.972 -0.0374 -0.5978 -1.3582
  857TIP3    H224063   0.492   1.182  15.074 -0.9946 -0.6530 -0.2934
  858TIP3   OH224064   6.059   4.984  12.163 -0.5015  0.3135 -0.6548
  858TIP3    H124065   5.983   4.933  12.133 -1.6347  1.4791  0.1520
  858TIP3    H224066   6.087   4.941  12.244  0.3907 -0.7448 -1.4913
  859TIP3   OH224067   0.196   1.933  15.961 -0.1709 -0.1382  0.5704
  859TIP3    H124068   0.185   1.982  16.043 -1.0836 -0.8792  0.9221
  859TIP3    H224069   0.248   1.857  15.986  0.0340 -0.0707  0.3422
  860TIP3   OH224070   2.436   3.083   3.609  1.1604  0.3223 -0.1968
  860TIP3    H124071   2.416   3.144   3.538 -2.5653 -0.4206 -0.0166
  860TIP3    H224072   2.526   3.055   3.592  1.6587  2.8587 -2.5058
  861TIP3   OH224073   0.802   4.693  15.774  0.4629 -0.5331  0.1029
  861TIP3    H124074   0.825   4.656  15.860  1.5207  0.3474  0.2218
  861TIP3    H224075   0.741   4.764  15.794  2.0536  0.8231  0.3185
  862TIP3   OH224076   3.331   1.258   4.303 -0.6071 -0.6639  0.3464
  862TIP3    H124077   3.321   1.164   4.316 -1.6845 -0.7082 -0.6754
  862TIP3    H224078   3.333   1.270   4.208 -0.5627  0.3530  0.4615
  863TIP3   OH224079   6.099   0.733  11.639  0.4733 -0.3397  0.6034
  863TIP3    H124080   6.091   0.752  11.733  0.3389 -2.4432  1.0760
  863TIP3    H224081   6.145   0.808  11.603 -1.1672  1.4294  1.9910
  864TIP3   OH224082   4.079   1.799   0.416 -0.2213 -0.4741  0.3441
  864TIP3    H124083   4.157   1.744   0.406 -1.6338 -2.3037 -1.4804
  864TIP3    H224084   4.081   1.857   0.340 -0.7237 -0.6473  0.1973
  865TIP3   OH224085   3.034   3.234   2.799 -0.4786 -0.5454  0.1350
  865TIP3    H124086   3.121   3.231   2.840  0.2286  0.8916 -1.1425
  865TIP3    H224087   3.053   3.253   2.707 -2.2214  1.8083  0.1893
  866TIP3   OH224088   4.112   5.679   3.549 -0.0599 -0.1511 -0.0448
  866TIP3    H124089   4.152   5.615   3.608 -1.7052 -1.1633  0.0509
  866TIP3    H224090   4.037   5.713   3.597  0.1009  0.9982 -0.5655
  867TIP3   OH224091   5.187   0.089   6.746  0.2556  0.6953  0.4378
  867TIP3    H124092   5.146   0.097   6.659  0.2274  0.4250  0.4258
  867TIP3    H224093   5.213  -0.003   6.752  0.0112  0.6483  0.8237
  868TIP3   OH224094   3.784   3.181  13.249  0.0124  0.2450 -0.5852
  868TIP3    H124095   3.735   3.148  13.174 -0.8002 -0.2053  0.1278
  868TIP3    H224096   3.867   3.133  13.245 -0.1996 -0.0984 -0.9536
  869TIP3   OH224097   6.759   3.448   1.597 -0.2719 -0.8167 -0.1153
  869TIP3    H124098   6.727   3.525   1.644  0.8117 -0.8234  0.6729
  869TIP3    H224099   6.795   3.391   1.666  1.1113 -0.9477 -0.9126
  870TIP3   OH224100   1.670   2.662  14.430 -0.0054 -0.0068 -0.0272
  870TIP3    H124101   1.620   2.688  14.353 -0.3056 -0.1481  0.1178
  870TIP3    H224102   1.730   2.734  14.445  0.0123  0.0495 -0.3582
  871TIP3   OH224103   0.498   1.897  10.658  0.2386  0.4040  0.3185
  871TIP3    H124104   0.426   1.932  10.711  0.5220  2.2530 -0.4422
  871TIP3    H224105   0.500   1.954  10.581  0.6074 -1.4644 -1.1201
  872TIP3   OH224106   3.286   0.923  15.858 -0.1010 -0.1139  0.2522
  872TIP3    H124107   3.310   0.972  15.780 -0.3419  1.3946  1.0759
  872TIP3    H224108   3.369   0.907  15.904 -0.0632 -0.1245  0.1799
  873TIP3   OH224109   4.126   1.806  10.196  0.4852  0.2137 -0.0141
  873TIP3    H124110   4.120   1.717  10.231  0.4142  0.5962  0.9828
  873TIP3    H224111   4.220   1.821  10.184  0.4320 -0.5013 -1.5865
  874TIP3   OH224112   6.486   3.273   2.900 -0.3183  0.6383 -0.1251
  874TIP3    H124113   6.489   3.200   2.837 -0.8304  1.6327 -1.3370
  874TIP3    H224114   6.557   3.253   2.962 -0.0220 -0.5527 -0.8064
  875TIP3   OH224115   5.045   1.007   2.859 -0.3919  0.0785  0.0708
  875TIP3    H124116   5.127   0.977   2.820 -0.3532 -1.6458  1.3836
  875TIP3    H224117   5.062   1.098   2.885  1.5629 -0.6286  1.4812
  876TIP3   OH224118   2.712   2.523  12.705  0.0244  0.0793  0.3691
  876TIP3    H124119   2.695   2.496  12.615  2.1370 -0.5325  0.0958
  876TIP3    H224120   2.629   2.512  12.750 -0.8816 -0.3074 -1.3324
  877TIP3   OH224121   5.524   1.387   2.198 -0.0638  0.0371  0.4223
  877TIP3    H124122   5.466   1.407   2.271 -0.6752 -0.5692  0.1138
  877TIP3    H224123   5.548   1.473   2.162  2.3378  0.5331  2.8858
  878TIP3   OH224124   2.756   4.857   3.393  0.0798 -0.8241  0.0888
  878TIP3    H124125   2.709   4.793   3.446 -1.2059 -0.4125 -0.5053
  878TIP3    H224126   2.687   4.910   3.353  1.0817  0.2727 -0.2484
  879TIP3   OH224127   1.550   0.883   1.600  0.4555  0.3514 -0.7228
  879TIP3    H124128   1.574   0.869   1.508 -0.2649  0.7542 -0.9848
  879TIP3    H224129   1.588   0.968   1.621  1.6675 -0.2840 -0.2629
  880TIP3   OH224130   5.939   1.868   3.604 -0.2371 -0.8788 -0.3694
  880TIP3    H124131   5.934   1.933   3.675  1.0789 -1.3157  0.1467
  880TIP3    H224132   5.854   1.876   3.560 -0.8662 -0.1693  0.8766
  881TIP3   OH224133   0.072   5.723  15.993 -0.4597 -0.6424 -0.7803
  881TIP3    H124134   0.159   5.690  16.014 -1.7232 -3.6301  0.3850
  881TIP3    H224135   0.069   5.811  16.032  1.2666 -1.3844  1.1881
  882TIP3   OH224136   4.615   2.378  10.230  0.0812  0.7333 -0.7105
  882TIP3    H124137   4.592   2.338  10.314  0.0072  0.3615 -0.9081
  882TIP3    H224138   4.685   2.323  10.195 -1.0215 -0.1100 -1.6732
  883TIP3   OH224139   0.259   1.233   3.506 -0.2437  0.0078  0.3513
  883TIP3    H124140   0.314   1.160   3.534 -1.2580 -0.0276  2.4613
  883TIP3    H224141   0.319   1.308   3.502  0.0872 -0.0811  2.3688
  884TIP3   OH224142   6.518   3.313  11.503 -0.1305 -0.1310 -0.2967
  884TIP3    H124143   6.431   3.280  11.526 -0.5147  1.5338  0.8830
  884TIP3    H224144   6.527   3.394  11.555  1.6821  0.3129 -1.2187
  885TIP3   OH224145   3.979   4.443   0.688  0.0097  0.9152  0.5030
  885TIP3    H124146   4.003   4.383   0.618  1.6048 -0.1874  1.8944
  885TIP3    H224147   4.031   4.522   0.672  0.3949  0.6521  0.4598
  886TIP3   OH224148   1.599   6.732   4.914 -0.1540 -0.0997  0.0881
  886TIP3    H124149   1.637   6.706   4.830  0.9725  0.0936  0.5178
  886TIP3    H224150   1.591   6.650   4.963 -0.1745 -0.1212  0.0497
  887TIP3   OH224151   5.321   0.407  12.290 -0.0078 -0.6141  0.2743
  887TIP3    H124152   5.304   0.501  12.298 -0.8948 -0.3862 -2.8642
  887TIP3    H224153   5.412   0.397  12.319 -0.0846  1.0702  1.2348
  888TIP3   OH224154   4.100   1.341  11.933  0.3776 -0.0513 -0.0252
  888TIP3    H124155   4.165   1.271  11.928 -0.1487 -0.4814 -2.0870
  888TIP3    H224156   4.066   1.336  12.022  1.6154 -1.2539  0.4174
  889TIP3   OH224157   4.037   0.460   1.156 -0.1392 -0.3993 -0.5598
  889TIP3    H124158   4.057   0.546   1.119 -0.2676 -0.1264 -0.0024
  889TIP3    H224159   4.015   0.405   1.081 -1.4005  0.4201 -0.8035
  890TIP3   OH224160   3.990   4.540  11.266  0.1529 -0.9137  1.0991
  890TIP3    H124161   3.932   4.463  11.263 -1.0072 -0.0420  0.0723
  890TIP3    H224162   4.061   4.518  11.205 -0.7604 -0.7382 -0.0541
  891TIP3   OH224163   4.733   5.272   4.179 -0.3736 -0.4358  0.2915
  891TIP3    H124164   4.660   5.212   4.165 -2.1377  1.4839  0.7594
  891TIP3    H224165   4.707   5.353   4.135  2.6296 -0.4117 -1.6987
  892TIP3   OH224166   1.953   3.374  15.042 -0.2238  0.0405  0.3176
  892TIP3    H124167   1.903   3.300  15.074 -1.5037  1.3191  1.4310
  892TIP3    H224168   1.973   3.426  15.120  0.5981  0.8928 -0.4267
  893TIP3   OH224169   5.273   2.177  13.422 -0.7955 -0.4295  0.1248
  893TIP3    H124170   5.261   2.264  13.385 -0.7931 -0.4316  0.1193
  893TIP3    H224171   5.185   2.146  13.442 -0.7817 -0.3231  0.3618
  894TIP3   OH224172   1.512   4.385   5.164  0.3525  0.4756 -0.2571
  894TIP3    H124173   1.520   4.413   5.255  1.7384 -0.3429 -0.1052
  894TIP3    H224174   1.450   4.312   5.167  1.6595 -0.6305  0.2866
  895TIP3   OH224175   3.021   3.247  11.463  0.3980 -0.2271 -0.1126
  895TIP3    H124176   3.102   3.281  11.425  1.5449 -0.7754  1.7487
  895TIP3    H224177   2.978   3.325  11.500 -0.9179  0.3804 -2.6674
  896TIP3   OH224178   6.584   4.128   5.683 -0.3343  0.4690  0.3660
  896TIP3    H124179   6.490   4.133   5.665  0.0176  0.5806 -1.6542
  896TIP3    H224180   6.612   4.219   5.694 -0.2883  0.5057 -0.0493
  897TIP3   OH224181   0.027   6.013   2.998  0.3124 -0.3944  0.1098
  897TIP3    H124182   0.101   6.075   2.994  0.3409 -0.0197  3.4028
  897TIP3    H224183  -0.034   6.044   2.932  1.8814  0.9691 -0.7907
  898TIP3   OH224184   6.059   4.897   5.574 -0.3947  0.3175 -0.0241
  898TIP3    H124185   6.124   4.887   5.643 -0.5494  0.0701  0.0851
  898TIP3    H224186   6.048   4.809   5.539 -1.1751  0.2369  0.4089
  899TIP3   OH224187   0.998   2.568   5.920  0.0296  0.6879 -0.0600
  899TIP3    H124188   0.952   2.484   5.920  2.4313 -0.7169  0.5777
  899TIP3    H224189   0.967   2.611   6.000 -1.4189  0.5819 -0.5212
  900TIP3   OH224190   1.744   2.686   1.848  0.1969 -0.2605  0.2384
  900TIP3    H124191   1.697   2.619   1.799 -0.4244  0.0388  0.4157
  900TIP3    H224192   1.830   2.689   1.807  0.5075 -1.7132  0.7298
  901TIP3   OH224193   1.092   3.734   4.679 -0.2950 -0.0068  0.0711
  901TIP3    H124194   1.079   3.798   4.749  0.1215 -1.4241  1.5267
  901TIP3    H224195   1.123   3.656   4.725 -1.1476 -1.3714 -1.5906
  902TIP3   OH224196   0.051   0.398  15.146 -0.3535  0.0263 -0.1090
  902TIP3    H124197   0.114   0.337  15.109 -0.3449 -0.7159  1.0821
  902TIP3    H224198   0.073   0.483  15.107 -0.5402 -0.7425 -2.0169
  903TIP3   OH224199   1.384   3.138  16.157  0.0585  0.4346 -0.3021
  903TIP3    H124200   1.358   3.110  16.069 -0.3567  0.5700 -0.2228
  903TIP3    H224201   1.463   3.087  16.176 -0.7739 -0.8128 -0.0909
  904TIP3   OH224202   6.543   2.151  11.170 -0.0452  0.0995 -0.6177
  904TIP3    H124203   6.564   2.116  11.084 -0.6445 -0.7607 -0.4182
  904TIP3    H224204   6.610   2.116  11.228  0.3696  0.6940 -0.7288
  905TIP3   OH224205   3.645   1.643  13.511  0.1074  0.8061 -0.1869
  905TIP3    H124206   3.620   1.705  13.579  0.5474  0.1168  0.6159
  905TIP3    H224207   3.566   1.590  13.498  0.5616 -0.2440  1.1110
  906TIP3   OH224208   6.633   5.039   0.904  0.1479  0.3237 -0.2923
  906TIP3    H124209   6.566   5.107   0.914 -1.0893 -0.8561 -0.2371
  906TIP3    H224210   6.598   4.981   0.837 -1.1290 -2.8229  2.7716
  907TIP3   OH224211   4.196   4.181  13.021  0.3467  0.2681 -0.3356
  907TIP3    H124212   4.177   4.136  13.103 -1.6735 -0.4752 -1.1495
  907TIP3    H224213   4.110   4.208  12.987  1.1667  1.0680 -1.9180
  908TIP3   OH224214   0.938   5.950   1.490 -0.3839  0.2976 -0.1418
  908TIP3    H124215   0.951   5.984   1.578  1.4551 -0.4788 -0.0849
  908TIP3    H224216   0.843   5.955   1.476 -0.5719  1.6308  1.3681
  909TIP3   OH224217   6.377   1.648  14.185 -0.0076  0.7626  0.1018
  909TIP3    H124218   6.441   1.601  14.131  1.1622 -0.2558  2.2314
  909TIP3    H224219   6.343   1.717  14.128 -0.5392 -1.5560 -2.6471
  910TIP3   OH224220   1.865   0.027   3.722  0.4450 -0.8697  0.0282
  910TIP3    H124221   1.836   0.102   3.671  2.2154  1.2106  1.8559
  910TIP3    H224222   1.784  -0.018   3.747 -0.6122 -0.1245 -1.8524
  911TIP3   OH224223   5.807   4.451   6.225 -0.1122  0.3035  0.3257
  911TIP3    H124224   5.799   4.444   6.320  1.2978  0.8082  0.5076
  911TIP3    H224225   5.805   4.361   6.193 -2.3853  0.1994  0.6311
  912TIP3   OH224226   0.022   5.248  16.406 -0.4503 -0.1096  0.0163
  912TIP3    H124227   0.117   5.243  16.392 -0.5106 -0.4848 -0.2799
  912TIP3    H224228   0.006   5.189  16.480 -0.0135  2.5363  2.3793
  913TIP3   OH224229   6.414   4.998   0.048  0.5054 -0.5149 -0.6600
  913TIP3    H124230   6.348   4.933   0.070  0.2479 -1.2330 -3.1758
  913TIP3    H224231   6.365   5.079   0.033  0.6652 -0.0654  1.0556
  914TIP3   OH224232   2.408   0.068   5.655 -0.6706 -0.0856 -0.1825
  914TIP3    H124233   2.388   0.134   5.589 -0.3325  0.2198  0.0144
  914TIP3    H224234   2.463   0.004   5.609 -2.2948 -1.0879 -0.8078
  915TIP3   OH224235   6.534   6.025  14.253  0.4193 -0.3732  0.3110
  915TIP3    H124236   6.614   5.977  14.276  1.4948  1.4407  0.5787
  915TIP3    H224237   6.566   6.099  14.202 -0.9747  0.9633  1.3053
  916TIP3   OH224238   1.199   6.165   2.416  0.3577  0.4502 -0.1247
  916TIP3    H124239   1.157   6.206   2.341 -2.1060 -1.5961 -0.0461
  916TIP3    H224240   1.228   6.079   2.384  1.3153  0.4313  0.7322
  917TIP3   OH224241   5.077   6.285  12.175  0.3310  0.2048 -0.4111
  917TIP3    H124242   5.127   6.213  12.213 -0.1727  0.5531  0.9530
  917TIP3    H224243   5.065   6.347  12.247 -1.2071  0.5872 -0.9589
  918TIP3   OH224244   5.699   1.238  12.504  0.0508 -0.3198 -0.9230
  918TIP3    H124245   5.648   1.302  12.453 -2.6779 -0.5804  1.2015
  918TIP3    H224246   5.738   1.290  12.575 -1.1674 -0.7467  0.1052
  919TIP3   OH224247   1.432   0.086  12.231  0.7275 -0.0420  0.3342
  919TIP3    H124248   1.433   0.121  12.142  0.4392 -0.7170  0.0576
  919TIP3    H224249   1.471  -0.002  12.222  0.9380 -0.0087  0.9162
  920TIP3   OH224250   4.501   2.411  15.338 -0.1669  0.2032  0.3730
  920TIP3    H124251   4.474   2.320  15.349 -1.6097  0.5817  0.2411
  920TIP3    H224252   4.566   2.408  15.268 -0.9589 -0.6185 -0.3582
  921TIP3   OH224253   0.078   0.383   4.609 -0.3082  0.2382 -0.3122
  921TIP3    H124254   0.086   0.288   4.599 -1.2118  0.0924  0.2576
  921TIP3    H224255   0.140   0.406   4.678 -0.3356  0.0121 -0.2123
  922TIP3   OH224256   3.056   4.802   4.765  0.1490  0.1733  0.0447
  922TIP3    H124257   3.109   4.783   4.687  0.0612  1.9225 -0.4938
  922TIP3    H224258   2.966   4.803   4.733 -0.0764 -1.1131  0.6103
  923TIP3   OH224259   0.174   6.386   1.373 -0.3868  0.2839 -0.0372
  923TIP3    H124260   0.097   6.434   1.343  0.4268  1.8174  0.2355
  923TIP3    H224261   0.224   6.450   1.424  0.3305 -1.1018  1.0702
  924TIP3   OH224262   6.630   0.363   2.315  0.0973 -0.1328  0.4617
  924TIP3    H124263   6.616   0.326   2.228  1.7613  0.8717 -0.2934
  924TIP3    H224264   6.577   0.444   2.315  0.1865 -0.0748  0.3480
  925TIP3   OH224265   4.308   3.481   1.333 -0.5550 -0.4740  0.1818
  925TIP3    H124266   4.280   3.564   1.296 -0.1602  0.0117  0.9376
  925TIP3    H224267   4.334   3.428   1.258  1.1594  0.8177 -0.1825
  926TIP3   OH224268   0.630   2.719   0.419  0.0141 -0.1747 -0.2517
  926TIP3    H124269   0.640   2.814   0.418 -1.6003  0.0301 -0.4481
  926TIP3    H224270   0.536   2.705   0.408  0.2566 -1.8079 -0.5289
  927TIP3   OH224271   3.583   2.254   2.668  0.3730  0.5499 -0.3015
  927TIP3    H124272   3.639   2.217   2.737 -1.3676  0.5504  1.1833
  927TIP3    H224273   3.534   2.179   2.634 -1.7794  1.0714  1.4000
  928TIP3   OH224274   1.442   2.967   1.480 -0.1342  0.6681 -0.3598
  928TIP3    H124275   1.350   2.945   1.488 -0.1227  0.4953 -0.6752
  928TIP3    H224276   1.457   2.975   1.386 -0.4236  3.2667 -0.2566
  929TIP3   OH224277   4.536   2.671  13.633  0.2871  0.5389 -0.1387
  929TIP3    H124278   4.594   2.665  13.709 -0.1928 -1.3109  0.1249
  929TIP3    H224279   4.573   2.742  13.581  0.1231  2.4766  2.2083
  930TIP3   OH224280   0.003   4.708   6.191  0.0652  0.1546 -0.3342
  930TIP3    H124281   0.059   4.694   6.267  0.7708  0.1835 -0.8392
  930TIP3    H224282  -0.083   4.676   6.219  0.6865 -1.3893 -0.0846
  931TIP3   OH224283   2.469   5.366  12.959  0.6436 -0.0598 -0.2085
  931TIP3    H124284   2.560   5.393  12.971  0.9304 -0.7565 -0.7265
  931TIP3    H224285   2.448   5.316  13.037 -0.2154  2.3880  1.2493
  932TIP3   OH224286   4.987   3.237  15.348 -0.1952  0.3652  0.3993
  932TIP3    H124287   5.074   3.202  15.326 -0.1750  0.9325 -0.5055
  932TIP3    H224288   4.994   3.331  15.328 -0.6621  0.6354  1.4595
  933TIP3   OH224289   2.883   4.015   3.291 -0.2498 -0.1306  0.0260
  933TIP3    H124290   2.797   4.014   3.251  0.3791 -2.1344 -1.4599
  933TIP3    H224291   2.871   4.058   3.375 -2.8407 -1.0072  0.1703
  934TIP3   OH224292   1.156   4.875  11.859 -0.0998 -0.1913  0.3398
  934TIP3    H124293   1.151   4.876  11.954  0.5912  0.3097  0.3708
  934TIP3    H224294   1.248   4.860  11.839 -0.1745  0.1000 -0.2521
  935TIP3   OH224295   3.204   3.158   6.470 -0.1341 -0.5323 -0.1670
  935TIP3    H124296   3.174   3.109   6.546 -2.2103 -0.9735 -1.1870
  935TIP3    H224297   3.160   3.243   6.477  0.4056 -0.2273 -0.3974
  936TIP3   OH224298   4.479   5.554  13.233 -0.0266  0.1669  0.3153
  936TIP3    H124299   4.521   5.477  13.195  1.7747  1.1081  0.3232
  936TIP3    H224300   4.429   5.592  13.161  0.5870  0.0266 -0.1886
  937TIP3   OH224301   5.014   0.762  13.863 -0.2455  0.1080  0.4307
  937TIP3    H124302   5.096   0.714  13.872 -1.0755 -1.9178 -1.7251
  937TIP3    H224303   4.978   0.765  13.951  1.6648  0.1987  1.2500
  938TIP3   OH224304   3.377   6.569  15.849  0.1801 -0.6418  0.1835
  938TIP3    H124305   3.321   6.588  15.924 -1.2189 -0.3875 -0.8873
  938TIP3    H224306   3.406   6.655  15.818 -1.4124 -0.5465 -1.1435
  939TIP3   OH224307   5.674   6.172  15.882 -0.4140 -0.1990 -0.3512
  939TIP3    H124308   5.664   6.115  15.958 -1.5396  0.0342 -0.3169
  939TIP3    H224309   5.769   6.189  15.877 -0.3890  0.4294  1.4857
  940TIP3   OH224310   6.213   0.754  12.876 -0.1420 -0.3969 -0.2359
  940TIP3    H124311   6.219   0.703  12.957 -0.7228 -1.5698 -0.9108
  940TIP3    H224312   6.236   0.843  12.902 -1.2853 -0.5497  1.4259
  941TIP3   OH224313   5.516   5.844  16.056  0.5555 -0.3697  0.4258
  941TIP3    H124314   5.504   5.795  15.974 -1.8632 -0.4438  0.7529
  941TIP3    H224315   5.476   5.789  16.123 -0.7040  1.2498  1.0696
  942TIP3   OH224316   4.290   4.506  14.155  0.3159  0.0686 -0.2316
  942TIP3    H124317   4.369   4.464  14.188 -1.6023 -3.2802  0.5634
  942TIP3    H224318   4.224   4.436  14.155 -2.6421  2.6515 -0.8880
  943TIP3   OH224319   5.212   6.400  15.285  0.3736 -0.0168  0.1660
  943TIP3    H124320   5.211   6.377  15.192  1.0949  1.7212 -0.3171
  943TIP3    H224321   5.304   6.412  15.306  0.1865 -0.0269  1.0170
  944TIP3   OH224322   5.299   2.789   3.575 -0.0430 -0.0572 -0.1856
  944TIP3    H124323   5.386   2.751   3.591  0.0759  0.6936  1.0776
  944TIP3    H224324   5.275   2.758   3.488  1.0173 -1.1817 -0.1064
  945TIP3   OH224325   4.143   3.949  14.380 -0.2723 -0.3488 -0.4243
  945TIP3    H124326   4.234   3.940  14.410 -0.3370  0.7405  0.1197
  945TIP3    H224327   4.135   3.883  14.311  0.1585 -2.2968  1.2760
  946TIP3   OH224328   0.616   2.381  13.189  0.1022  0.0040 -0.1961
  946TIP3    H124329   0.666   2.301  13.174 -1.0522 -0.4596 -1.9752
  946TIP3    H224330   0.525   2.354  13.183 -0.4013  0.9475  2.2798
  947TIP3   OH224331   0.779   6.298  16.082  0.6563  0.3638  0.0282
  947TIP3    H124332   0.860   6.275  16.035 -0.2053  0.2257 -1.4517
  947TIP3    H224333   0.751   6.216  16.123  0.5316  0.0755 -0.6252
  948TIP3   OH224334   5.900   6.076   4.127  0.0161 -0.0498 -0.1182
  948TIP3    H124335   5.992   6.050   4.127  0.1725  0.4371 -1.2995
  948TIP3    H224336   5.902   6.172   4.129 -0.3659  0.0734 -2.5139
  949TIP3   OH224337   4.440   4.825   5.348  0.4489  0.4474 -0.2672
  949TIP3    H124338   4.413   4.906   5.304 -1.5954  0.0002  0.0717
  949TIP3    H224339   4.360   4.793   5.390  1.2158 -1.7135 -0.3449
  950TIP3   OH224340   0.011   0.169  15.720 -0.3033 -0.2086  0.0883
  950TIP3    H124341   0.099   0.141  15.695 -0.2492  0.3559 -0.3647
  950TIP3    H224342  -0.045   0.094  15.699 -0.0050 -0.3805 -0.0917
  951TIP3   OH224343   0.817   1.831   0.229  0.3588 -0.0939 -0.0613
  951TIP3    H124344   0.892   1.890   0.227  0.8376 -0.7137 -0.5352
  951TIP3    H224345   0.850   1.751   0.270  0.1542 -0.6250 -0.9001
  952TIP3   OH224346   1.092   1.542  12.305 -0.4244  0.0294 -0.4051
  952TIP3    H124347   0.999   1.556  12.285 -0.3888  0.1348 -0.5003
  952TIP3    H224348   1.096   1.452  12.338 -0.3707 -0.4417 -1.6270
  953TIP3   OH224349   5.447   2.378   1.931 -0.0035  0.3212  0.0584
  953TIP3    H124350   5.474   2.384   1.840 -1.4126  0.2683 -0.3851
  953TIP3    H224351   5.444   2.284   1.949 -0.1324  0.3205  0.0320
  954TIP3   OH224352   4.681   1.748   2.449 -0.7533 -0.2966  0.4723
  954TIP3    H124353   4.643   1.819   2.397 -0.3097 -0.2347  0.2289
  954TIP3    H224354   4.628   1.746   2.529 -1.1574 -0.0992  0.2153
  955TIP3   OH224355   1.972   3.488   3.575  0.2836 -0.1409  0.1300
  955TIP3    H124356   1.973   3.494   3.479 -0.0727  0.5337  0.1587
  955TIP3    H224357   2.025   3.411   3.595 -0.1867 -0.6762 -0.6386
  956TIP3   OH224358   0.410   5.384   1.638  0.1137 -0.2037 -0.4645
  956TIP3    H124359   0.474   5.456   1.639  3.0358 -2.5512 -1.9158
  956TIP3    H224360   0.373   5.387   1.550 -1.2112  0.5806  0.0820
  957TIP3   OH224361   4.619   1.990  12.971 -0.6246  0.6942 -0.7908
  957TIP3    H124362   4.645   2.079  12.946 -1.0307  1.0517  0.0130
  957TIP3    H224363   4.553   2.003  13.039  0.9983 -0.2226  1.0696
  958TIP3   OH224364   4.291   6.810   5.565 -0.6317 -0.0684  0.1350
  958TIP3    H124365   4.384   6.830   5.581 -0.3466 -0.1993 -1.2901
  958TIP3    H224366   4.280   6.720   5.596 -0.1209 -0.2777 -0.2760
  959TIP3   OH224367   3.095   1.875   1.323 -0.0219  0.3104 -0.0973
  959TIP3    H124368   3.041   1.803   1.356  0.2196 -0.5551 -1.5087
  959TIP3    H224369   3.051   1.954   1.355 -1.2755 -0.4114  0.0461
  960TIP3   OH224370   5.741   3.763   6.678 -0.4009  0.4562  0.5814
  960TIP3    H124371   5.809   3.827   6.698  0.6630 -0.8892  1.4394
  960TIP3    H224372   5.742   3.703   6.752 -1.4137 -0.5260 -0.1710
  961TIP3   OH224373   6.778   1.876   4.049  0.3337  0.3589 -0.3876
  961TIP3    H124374   6.843   1.947   4.051  0.5237  0.1798  1.8065
  961TIP3    H224375   6.783   1.836   4.135 -3.6552  1.2161  0.4743
  962TIP3   OH224376   5.691   1.681  11.067 -0.1098  0.0229 -0.0332
  962TIP3    H124377   5.709   1.775  11.070 -0.8284  0.2265 -1.3220
  962TIP3    H224378   5.755   1.646  11.005 -0.2367 -0.2381 -0.0183
  963TIP3   OH224379   5.752   4.098   2.914  0.1693  0.0645  0.0706
  963TIP3    H124380   5.781   4.046   2.989  0.6711 -0.1042 -0.2327
  963TIP3    H224381   5.694   4.164   2.951 -1.5061 -1.4695  0.3345
  964TIP3   OH224382   1.308   4.618   4.992 -0.1777  0.3995  0.3776
  964TIP3    H124383   1.258   4.693   4.961  0.1415 -0.1190 -1.5741
  964TIP3    H224384   1.393   4.654   5.017  0.0943  0.6870 -0.8677
  965TIP3   OH224385   2.612   0.638   2.225 -0.3824  0.0356  0.3601
  965TIP3    H124386   2.526   0.614   2.260 -0.6177 -0.1602 -0.3281
  965TIP3    H224387   2.674   0.583   2.273 -0.7362 -0.5113  0.2094
  966TIP3   OH224388   1.749   2.613   1.048  0.3336 -0.1246  0.2647
  966TIP3    H124389   1.692   2.690   1.051  0.5329  0.1208 -1.3380
  966TIP3    H224390   1.786   2.614   0.960  3.1933 -0.0504  1.3707
  967TIP3   OH224391   3.385   0.470   5.743 -0.3737  0.1628 -0.1550
  967TIP3    H124392   3.434   0.423   5.810  0.6041  0.5046 -0.6192
  967TIP3    H224393   3.414   0.434   5.660 -0.5189  0.7294 -0.4618
  968TIP3   OH224394   6.031   0.705   4.805  0.4808 -0.0715  0.4627
  968TIP3    H124395   6.013   0.657   4.886  1.2885 -1.9242 -0.3887
  968TIP3    H224396   5.994   0.651   4.736 -0.2831  1.5246 -0.4453
  969TIP3   OH224397   0.394   4.516  11.692  0.3470  0.5479  0.2408
  969TIP3    H124398   0.357   4.548  11.610  0.3501 -2.1328 -0.9212
  969TIP3    H224399   0.488   4.508  11.675  0.3227 -0.2064  0.3996
  970TIP3   OH224400   4.979   2.565  11.160  0.3188 -0.2962  0.4596
  970TIP3    H124401   5.000   2.477  11.127  3.2810  0.4753  0.0059
  970TIP3    H224402   4.970   2.619  11.082 -0.2322  0.0537  0.7620
  971TIP3   OH224403   0.109   4.202  13.298 -0.3402 -0.0136 -0.6413
  971TIP3    H124404   0.115   4.192  13.393  1.0566 -2.3093 -0.9120
  971TIP3    H224405   0.047   4.134  13.271 -0.5722  0.4914 -1.4032
  972TIP3   OH224406   3.771   1.299  16.622 -0.3606 -0.2543 -0.1883
  972TIP3    H124407   3.839   1.328  16.561 -0.2710 -1.0023 -0.4527
  972TIP3    H224408   3.701   1.364  16.613  0.5538  0.8809  0.5374
  973TIP3   OH224409   1.850   6.566   2.390  0.6897  0.1347  0.0458
  973TIP3    H124410   1.776   6.506   2.377  1.1019 -0.2721 -0.4706
  973TIP3    H224411   1.809   6.648   2.419  0.0218 -0.0403 -0.3596
  974TIP3   OH224412   0.444   0.427  11.011  0.3022  0.1680  0.0842
  974TIP3    H124413   0.500   0.350  11.018 -0.5124 -0.3342  1.7729
  974TIP3    H224414   0.467   0.481  11.087  0.4737  1.3452 -0.7661
  975TIP3   OH224415   6.090   4.686   3.028 -0.4350 -0.3411 -0.0613
  975TIP3    H124416   6.070   4.594   3.010 -0.4699 -0.5916  1.1820
  975TIP3    H224417   6.123   4.720   2.945 -2.4267 -0.9056 -1.1555
  976TIP3   OH224418   6.808   4.984   1.136 -0.1700  0.3597  0.2820
  976TIP3    H124419   6.871   5.055   1.127  0.4070 -0.2800 -1.0166
  976TIP3    H224420   6.730   5.014   1.090 -0.1275  0.3853  0.2269
  977TIP3   OH224421   1.807   3.910   5.164  0.3608  0.5938  0.3501
  977TIP3    H124422   1.821   3.925   5.071  1.6438  0.9925  0.5927
  977TIP3    H224423   1.732   3.851   5.167  2.2084 -2.0426 -1.0924
  978TIP3   OH224424   1.606   4.161  11.869  0.9565  0.4940 -0.2008
  978TIP3    H124425   1.583   4.068  11.870  0.1029  0.6881 -0.7221
  978TIP3    H224426   1.699   4.163  11.891  0.3236 -0.2441  2.9345
  979TIP3   OH224427   3.214   0.097  10.888  0.3538 -0.0995 -0.1363
  979TIP3    H124428   3.237   0.140  10.806 -1.6357 -0.1942 -0.7863
  979TIP3    H224429   3.218   0.004  10.869 -0.8238 -0.1178 -0.3672
  980TIP3   OH224430   3.671   5.821   5.667  0.2012 -0.4488 -0.4205
  980TIP3    H124431   3.640   5.737   5.701 -1.5148 -1.1892 -3.4766
  980TIP3    H224432   3.634   5.886   5.727  0.3688 -1.7730  1.1883
  981TIP3   OH224433   0.353   4.873   0.111 -0.4633 -0.1906  0.2344
  981TIP3    H124434   0.403   4.868   0.030 -0.7396  0.6652  0.0059
  981TIP3    H224435   0.317   4.785   0.123 -1.2333 -0.0735 -1.0961
  982TIP3   OH224436   3.948   0.152  16.940  0.1846 -0.8265 -0.2722
  982TIP3    H124437   3.954   0.244  16.965 -0.3899 -1.0049  0.5944
  982TIP3    H224438   3.879   0.150  16.874 -0.5469 -0.7660  0.4744
  983TIP3   OH224439   5.341   5.640   5.017  0.0715 -0.2509 -0.2821
  983TIP3    H124440   5.272   5.586   4.980 -1.1521  0.5677  0.7419
  983TIP3    H224441   5.375   5.589   5.091  0.3031 -0.4742 -0.5387
  984TIP3   OH224442   1.679   1.404  17.160 -0.4754  0.6383  0.2176
  984TIP3    H124443   1.638   1.330  17.114 -1.3561  1.3998 -0.2499
  984TIP3    H224444   1.746   1.435  17.099 -0.7824  0.8485 -0.0153
  985TIP3   OH224445   0.353   5.264  11.636  0.3453  0.2099  0.3290
  985TIP3    H124446   0.414   5.287  11.567 -1.4059  0.5776 -1.1792
  985TIP3    H224447   0.300   5.342  11.649 -0.4432 -0.3906  0.8913
  986TIP3   OH224448   0.837   6.590   2.102  0.4258  0.0009 -0.1661
  986TIP3    H124449   0.795   6.545   2.176  1.5411  0.8076  1.0192
  986TIP3    H224450   0.790   6.672   2.094 -1.6022 -1.2439 -2.3234
  987TIP3   OH224451   3.796   5.948  16.553  0.3451  0.5140 -0.6002
  987TIP3    H124452   3.706   5.936  16.523  0.1430  0.2570  0.1088
  987TIP3    H224453   3.839   5.992  16.479 -0.5239  1.2686 -0.6871
  988TIP3   OH224454   0.568   2.866  12.876  0.4196  0.4317 -0.0263
  988TIP3    H124455   0.655   2.839  12.907  1.4353  2.4956 -0.8592
  988TIP3    H224456   0.540   2.795  12.819  1.2681 -0.5504  0.7212
  989TIP3   OH224457   6.599   5.706   5.194 -0.2896 -0.0757 -0.6501
  989TIP3    H124458   6.530   5.712   5.261  1.3599  0.9309  1.0538
  989TIP3    H224459   6.651   5.630   5.220 -0.0837 -0.1486 -1.2585
  990TIP3   OH224460   5.766   6.810   6.233  0.4987 -0.0025 -0.1482
  990TIP3    H124461   5.776   6.906   6.231  0.8814 -0.0247  0.4557
  990TIP3    H224462   5.785   6.786   6.324  0.8655 -0.7055 -0.4043
  991TIP3   OH224463   3.267   3.896   3.720  0.4212 -0.2482 -0.3576
  991TIP3    H124464   3.261   3.968   3.658  1.8785 -0.9258 -1.3443
  991TIP3    H224465   3.347   3.849   3.695  0.1981 -1.4616  1.0531
  992TIP3   OH224466   3.965   3.028  12.484 -0.1323 -0.2290 -0.1232
  992TIP3    H124467   4.017   3.083  12.425  2.2078 -0.4581  1.5883
  992TIP3    H224468   3.926   3.090  12.546  1.4805 -0.3270  1.0426
  993TIP3   OH224469   0.444   6.513  11.933 -0.1243 -0.4086 -0.2257
  993TIP3    H124470   0.372   6.572  11.911  1.1030  0.4762 -2.1732
  993TIP3    H224471   0.522   6.568  11.930  0.7532 -1.5353  0.8528
  994TIP3   OH224472   3.531   0.546  13.894  0.2606 -0.4845 -0.1487
  994TIP3    H124473   3.615   0.509  13.919  1.4803  1.2639 -1.3987
  994TIP3    H224474   3.483   0.556  13.976  2.4652  1.2230  1.0570
  995TIP3   OH224475   5.406   2.054  11.706 -0.1426 -0.1650 -0.0205
  995TIP3    H124476   5.338   2.049  11.639 -0.1172  1.6021 -0.2312
  995TIP3    H224477   5.427   2.147  11.712  2.7111 -0.6789 -0.4178
  996TIP3   OH224478   0.093   6.639   1.282  0.2494 -0.1811  1.0665
  996TIP3    H124479   0.048   6.673   1.205 -1.0227 -0.8959  1.4684
  996TIP3    H224480   0.154   6.709   1.306  2.4724 -0.8834 -1.9737
  997TIP3   OH224481   0.870   0.109   4.027 -0.1575 -0.7035  0.3207
  997TIP3    H124482   0.802   0.082   4.088 -0.2309  0.2030  0.6567
  997TIP3    H224483   0.880   0.034   3.968 -0.5100 -1.3579  1.0659
  998TIP3   OH224484   5.562   2.157   0.047 -0.0320  0.1928  0.0084
  998TIP3    H124485   5.654   2.160   0.075 -0.5130  0.9756  1.5992
  998TIP3    H224486   5.533   2.069   0.071  0.3822 -0.2075 -0.8764
  999TIP3   OH224487   1.433   0.635   5.412 -0.5004  0.4849 -0.2040
  999TIP3    H124488   1.357   0.579   5.428 -0.0682 -0.4674 -1.3578
  999TIP3    H224489   1.473   0.647   5.499 -0.9207 -0.5327  0.1412
 1000TIP3   OH224490   1.816   3.610   0.319 -0.2303 -0.8504  0.4329
 1000TIP3    H124491   1.729   3.618   0.281 -0.3942  0.1431  0.9737
 1000TIP3    H224492   1.859   3.693   0.298  0.9433 -1.7074 -0.6741
 1001TIP3   OH224493   2.971   3.738  13.389  0.2067 -0.2238 -0.0861
 1001TIP3    H124494   3.015   3.817  13.421 -0.2872 -0.5141  1.3895
 1001TIP3    H224495   2.890   3.771  13.349  0.1900  0.0529  0.1671
 1002TIP3   OH224496   1.924   5.581  12.530  0.2698  0.3460 -0.6211
 1002TIP3    H124497   1.958   5.568  12.441 -1.6132 -0.8360 -1.2316
 1002TIP3    H224498   1.880   5.666  12.526 -0.2808  0.0518 -1.0059
 1003TIP3   OH224499   0.922   4.634  15.075  0.1454 -0.1768 -0.2247
 1003TIP3    H124500   0.964   4.707  15.029 -0.9463  0.1048 -0.8192
 1003TIP3    H224501   0.964   4.556  15.040  1.5330  0.1517  0.6235
 1004TIP3   OH224502   2.222   6.274  12.632  0.3654 -0.5655  0.1019
 1004TIP3    H124503   2.312   6.306  12.638  0.1771  0.1116 -0.5340
 1004TIP3    H224504   2.183   6.325  12.561 -0.3916 -1.1643  0.0732
 1005TIP3   OH224505   0.363   5.170  10.613  1.2667 -0.4546  0.8057
 1005TIP3    H124506   0.376   5.080  10.583 -0.7314 -0.9626  1.3290
 1005TIP3    H224507   0.438   5.187  10.670  1.4847 -1.9176  1.0015
 1006TIP3   OH224508   3.891   1.681   1.640  0.2185 -0.6935  0.1333
 1006TIP3    H124509   3.905   1.764   1.684  0.0064  0.1239 -1.2843
 1006TIP3    H224510   3.891   1.702   1.547 -4.1517 -1.5075 -0.2940
 1007TIP3   OH224511   4.242   6.720   4.174  0.3135 -0.5202 -0.3972
 1007TIP3    H124512   4.204   6.668   4.103 -0.4399  1.3373 -1.3931
 1007TIP3    H224513   4.332   6.738   4.145  0.4173 -0.8186 -0.2724
 1008TIP3   OH224514   1.350   3.669  15.686 -0.8528 -0.6762  0.2336
 1008TIP3    H124515   1.398   3.686  15.605 -1.5810 -1.9081 -0.4872
 1008TIP3    H224516   1.307   3.752  15.707 -0.2216 -0.2011 -0.3392
 1009TIP3   OH224517   1.091   0.169   2.229 -0.2503 -0.4229 -0.2882
 1009TIP3    H124518   1.000   0.181   2.257 -1.1534 -1.6735 -2.4577
 1009TIP3    H224519   1.097   0.214   2.145  0.9198 -1.0266 -0.5556
 1010TIP3   OH224520   2.633   2.019  12.947  0.0450  0.0054  0.6476
 1010TIP3    H124521   2.688   1.970  13.009  1.2768  1.2923  0.6346
 1010TIP3    H224522   2.544   1.993  12.969  0.6296 -2.8001  0.1279
 1011TIP3   OH224523   5.813   4.068  15.787  0.1393  0.0682  0.6129
 1011TIP3    H124524   5.757   4.014  15.732 -0.3742  1.0629  0.1363
 1011TIP3    H224525   5.901   4.035  15.770 -0.1740 -0.7342  0.4767
 1012TIP3   OH224526   5.001   2.910   1.112 -0.0279  0.0817 -0.1703
 1012TIP3    H124527   5.014   3.005   1.105  1.7968 -0.1930 -1.3023
 1012TIP3    H224528   4.928   2.900   1.173  1.0641  2.1401  1.6050
 1013TIP3   OH224529   1.446   0.669   1.902  0.3685 -0.6349  0.0955
 1013TIP3    H124530   1.472   0.589   1.856  0.6703 -0.3806 -0.1723
 1013TIP3    H224531   1.368   0.642   1.952 -0.4263 -0.7273 -1.1443
 1014TIP3   OH224532   2.776   1.832   2.501 -0.6980 -0.3757  0.0851
 1014TIP3    H124533   2.759   1.840   2.595  0.2581  0.3177  0.2130
 1014TIP3    H224534   2.820   1.748   2.492 -1.2536 -0.6814  0.1814
 1015TIP3   OH224535   4.957   1.214   3.299 -0.0740  0.0351  0.4357
 1015TIP3    H124536   4.931   1.258   3.380 -1.4390 -0.0392  0.0481
 1015TIP3    H224537   4.877   1.204   3.249  0.6168 -0.6597 -0.5859
 1016TIP3   OH224538   6.266   3.227  15.808  0.0830 -0.4471  0.1093
 1016TIP3    H124539   6.360   3.228  15.826 -0.1221  0.0776  1.2944
 1016TIP3    H224540   6.244   3.319  15.793 -0.3388 -0.4906  0.4457
 1017TIP3   OH224541   4.131   3.484   0.844 -0.2629  0.4452  0.0495
 1017TIP3    H124542   4.180   3.519   0.769 -1.4902  1.2411 -0.4250
 1017TIP3    H224543   4.074   3.417   0.805 -0.1952  0.1615  0.4404
 1018TIP3   OH224544   0.762   2.724  16.834  0.2958  0.1034 -0.1155
 1018TIP3    H124545   0.852   2.716  16.801  0.1475  0.3081 -0.5692
 1018TIP3    H224546   0.732   2.809  16.802 -0.2693 -0.2309 -0.4849
 1019TIP3   OH224547   1.367   4.654  14.566 -0.2506 -0.2263  0.1466
 1019TIP3    H124548   1.346   4.660  14.472 -0.3127 -0.5562  0.1385
 1019TIP3    H224549   1.462   4.653  14.569 -0.2416  0.3216  0.1221
 1020TIP3   OH224550   5.454   0.085   5.797 -0.3132  0.4995  0.2353
 1020TIP3    H124551   5.476   0.165   5.749  1.3611  0.1041  0.2686
 1020TIP3    H224552   5.524   0.076   5.861 -0.6292 -0.8532  0.4209
 1021TIP3   OH224553   4.683   4.544  13.865 -0.1518 -0.2396 -0.6643
 1021TIP3    H124554   4.618   4.493  13.817  2.2243 -2.5973 -1.5931
 1021TIP3    H224555   4.697   4.622  13.811 -0.9578 -0.5413 -1.3254
 1022TIP3   OH224556   2.317   2.568   0.280 -0.3749 -0.4922 -0.0881
 1022TIP3    H124557   2.399   2.567   0.231  0.4456 -0.3277  1.2217
 1022TIP3    H224558   2.260   2.508   0.232  0.0704  0.3346 -1.7198
 1023TIP3   OH224559   6.519   3.459  12.094  0.0189 -0.9446 -0.9535
 1023TIP3    H124560   6.570   3.493  12.168  0.4804  0.6228 -1.9249
 1023TIP3    H224561   6.553   3.507  12.018 -1.5106 -1.3605 -1.9444
 1024TIP3   OH224562   1.610   4.852   3.126  0.4170  0.0557  0.2693
 1024TIP3    H124563   1.634   4.941   3.153 -0.3078  0.5430 -0.6436
 1024TIP3    H224564   1.612   4.801   3.207  1.0386  0.8544  0.7726
 1025TIP3   OH224565   1.606   6.055  11.483 -0.8848  0.7073  0.2429
 1025TIP3    H124566   1.655   5.985  11.440  0.3378  2.0795 -0.6962
 1025TIP3    H224567   1.562   6.101  11.411 -0.4764  1.7849  0.6539
 1026TIP3   OH224568   1.876   5.763  14.204 -0.0515 -0.2934  0.0027
 1026TIP3    H124569   1.844   5.798  14.287  0.9709  1.5357 -0.3083
 1026TIP3    H224570   1.796   5.738  14.157 -1.0261  2.4511 -0.0381
 1027TIP3   OH224571   4.023   4.482   2.311 -0.2158 -0.0556  0.0852
 1027TIP3    H124572   4.104   4.527   2.332  0.4460  0.4110 -2.9199
 1027TIP3    H224573   4.046   4.389   2.313 -0.2782 -0.0570  1.5279
 1028TIP3   OH224574   5.988   6.197   3.512 -0.5888  0.6627  0.2649
 1028TIP3    H124575   6.074   6.164   3.540 -0.4724 -0.0287 -0.8662
 1028TIP3    H224576   5.952   6.238   3.590  0.6308  0.6594  0.8538
 1029TIP3   OH224577   1.571   4.800   0.102 -0.2536 -0.3217  0.0803
 1029TIP3    H124578   1.488   4.757   0.082 -0.4688  0.1812 -0.1244
 1029TIP3    H224579   1.553   4.851   0.182 -0.4464  0.6270 -0.5583
 1030TIP3   OH224580   2.128   5.011   5.023  0.0375  0.5617  0.5666
 1030TIP3    H124581   2.106   4.988   5.114  0.6067 -2.5116  0.0316
 1030TIP3    H224582   2.169   4.933   4.988  0.3212  1.8521 -2.2415
 1031TIP3   OH224583   1.093   3.331  14.235 -0.3560 -0.7039 -0.0869
 1031TIP3    H124584   1.094   3.313  14.329  0.8096  1.7346  0.4288
 1031TIP3    H224585   1.171   3.286  14.201 -2.5978 -4.6195 -0.6637
 1032TIP3   OH224586   5.393   2.569   2.135  0.3104  0.3755  0.1876
 1032TIP3    H124587   5.442   2.649   2.114 -0.6613  1.0100  0.2382
 1032TIP3    H224588   5.411   2.509   2.063 -0.2528  1.2583 -0.7077
 1033TIP3   OH224589   1.602   6.668   5.291  1.0068  0.3275 -0.0045
 1033TIP3    H124590   1.639   6.690   5.377  0.9251  0.1598  0.0757
 1033TIP3    H224591   1.615   6.746   5.238 -1.6508  1.6063  1.0380
 1034TIP3   OH224592   3.338   0.213  16.041  0.1088  0.5301 -0.2220
 1034TIP3    H124593   3.274   0.284  16.050  2.2947  2.9703 -2.4006
 1034TIP3    H224594   3.345   0.199  15.947  2.1863 -0.1756 -0.0123
 1035TIP3   OH224595   6.597   5.039   2.234  0.4537 -0.3273 -0.1692
 1035TIP3    H124596   6.511   5.080   2.228  0.3784 -0.3077  0.7986
 1035TIP3    H224597   6.641   5.087   2.305  1.3820 -0.1338 -0.8495
 1036TIP3   OH224598   3.030   0.494  11.004 -0.5598  0.1028  0.2820
 1036TIP3    H124599   3.100   0.516  10.943  1.3227 -0.2468  2.2257
 1036TIP3    H224600   2.959   0.462  10.947  0.3765  1.5486 -1.8271
 1037TIP3   OH224601   4.755   4.667   4.235  0.6351  0.7025 -0.0276
 1037TIP3    H124602   4.814   4.739   4.255  1.1051  0.6897 -1.2461
 1037TIP3    H224603   4.791   4.628   4.155 -0.6561  0.2882 -0.4426
 1038TIP3   OH224604   3.233   4.676   4.631 -0.1093 -0.1246  0.2993
 1038TIP3    H124605   3.254   4.674   4.537 -2.4134 -0.5181 -0.2733
 1038TIP3    H224606   3.216   4.584   4.653  0.2099 -0.0036  1.0717
 1039TIP3   OH224607   5.945   2.606  17.146 -0.4204 -0.1175  0.6870
 1039TIP3    H124608   5.931   2.665  17.220 -1.7941 -0.6270  0.8620
 1039TIP3    H224609   6.022   2.554  17.171  0.3378  1.0560  0.8565
 1040TIP3   OH224610   0.151   6.508   3.491  0.6812 -0.0833 -0.1841
 1040TIP3    H124611   0.190   6.424   3.512  0.0476 -0.5423 -0.8041
 1040TIP3    H224612   0.074   6.487   3.438  1.0649  0.9167 -1.1872
 1041TIP3   OH224613   1.856   6.151  13.163 -0.7129  0.5253  0.4914
 1041TIP3    H124614   1.919   6.154  13.235  0.3251  1.0347 -0.4108
 1041TIP3    H224615   1.838   6.058  13.150  0.5072  0.3164  0.2254
 1042TIP3   OH224616   0.525   0.679   3.773  0.2066 -0.3594  0.2550
 1042TIP3    H124617   0.581   0.717   3.841 -0.7876  2.8324 -0.5487
 1042TIP3    H224618   0.437   0.678   3.810 -0.0532 -0.3616 -0.3405
 1043TIP3   OH224619   5.665   0.445   5.383  0.2453  0.1535  0.2435
 1043TIP3    H124620   5.673   0.476   5.293 -0.2944  0.7331  0.3913
 1043TIP3    H224621   5.685   0.521   5.437 -0.9684  0.2319  0.6065
 1044TIP3   OH224622   0.907   1.744  15.881  0.3804 -0.3148 -0.3915
 1044TIP3    H124623   0.904   1.745  15.977  0.0124  0.7088 -0.3973
 1044TIP3    H224624   0.891   1.835  15.856 -0.7356 -0.7701 -1.4498
 1045TIP3   OH224625   1.880   4.198  14.077  0.1991  0.0589 -0.1496
 1045TIP3    H124626   1.813   4.266  14.069  0.4762  0.5281  1.3053
 1045TIP3    H224627   1.833   4.122  14.112  0.2758  0.1595  0.1784
 1046TIP3   OH224628   1.044   6.473   2.549 -0.3541 -0.4656 -0.3257
 1046TIP3    H124629   0.994   6.408   2.500  1.1784 -1.3082 -0.8236
 1046TIP3    H224630   1.095   6.519   2.483 -0.0649  0.0214  0.2294
 1047TIP3   OH224631   3.801   5.331  11.851  0.2305  0.0181  0.3581
 1047TIP3    H124632   3.809   5.426  11.837  0.9316 -0.1491 -0.4521
 1047TIP3    H224633   3.746   5.301  11.779  0.4731 -0.2679  0.2916
 1048TIP3   OH224634   4.260   5.725  16.150  0.1811  0.1539 -0.1190
 1048TIP3    H124635   4.337   5.678  16.183  0.2281 -0.0001 -0.4427
 1048TIP3    H224636   4.266   5.717  16.055 -0.2672  0.0876 -0.1471
 1049TIP3   OH224637   5.072   0.239  14.038 -0.0352 -0.3025  0.5672
 1049TIP3    H124638   5.052   0.265  13.948 -1.7108  1.9999  1.5094
 1049TIP3    H224639   5.156   0.194  14.032 -0.1919 -0.3910 -2.1608
 1050TIP3   OH224640   3.023   0.328  17.115 -0.1371  0.5586 -0.6660
 1050TIP3    H124641   2.991   0.277  17.189 -0.2342  1.2542 -0.2181
 1050TIP3    H224642   2.957   0.396  17.103 -0.2482  0.3007 -1.5600
 1051TIP3   OH224643   4.077   0.656  12.725 -0.3856  0.1088 -0.2159
 1051TIP3    H124644   4.020   0.691  12.793 -2.0878 -2.0641 -0.4271
 1051TIP3    H224645   4.019   0.639  12.650  1.2101  1.2384 -1.7955
 1052TIP3   OH224646   4.380   6.674   0.590 -0.0704 -0.3766  0.5224
 1052TIP3    H124647   4.381   6.582   0.564 -1.2381  0.0946 -1.3657
 1052TIP3    H224648   4.360   6.721   0.510  0.6915  1.5614  1.4193
 1053TIP3   OH224649   0.121   5.831   5.840  0.2038  0.1012 -0.2952
 1053TIP3    H124650   0.073   5.868   5.915  0.8742 -0.3473  0.3689
 1053TIP3    H224651   0.160   5.907   5.798  2.1123  0.1723  1.4388
 1054TIP3   OH224652   4.118   3.276   4.315  0.3133 -0.1341 -0.4496
 1054TIP3    H124653   4.138   3.368   4.333  1.9732 -0.7462  1.1740
 1054TIP3    H224654   4.140   3.231   4.397 -2.7535 -1.7023 -0.3760
 1055TIP3   OH224655   1.999   3.323   3.330 -0.5437  0.7380  0.6530
 1055TIP3    H124656   1.980   3.294   3.240  0.0936 -0.7082  0.9627
 1055TIP3    H224657   1.967   3.252   3.385  0.6749  0.8030  1.4704
 1056TIP3   OH224658   6.284   1.562   0.642  0.0969 -0.1609  0.0274
 1056TIP3    H124659   6.310   1.614   0.566 -0.4329  1.2320  0.7775
 1056TIP3    H224660   6.196   1.532   0.621 -1.1541  2.4291  1.1220
 1057TIP3   OH224661   4.349   5.464  12.750 -1.1208  0.4086 -0.2880
 1057TIP3    H124662   4.424   5.523  12.757 -1.1752  0.6914 -1.6874
 1057TIP3    H224663   4.313   5.483  12.663 -1.7530 -0.9624 -0.3405
 1058TIP3   OH224664   1.923   2.637  15.075 -0.0202 -0.0851 -0.3893
 1058TIP3    H124665   1.855   2.575  15.100 -1.5125  2.0046  1.0818
 1058TIP3    H224666   1.993   2.623  15.138  0.7427 -1.8248 -1.5371
 1059TIP3   OH224667   1.270   4.115   3.999 -0.9059 -0.1936  0.2608
 1059TIP3    H124668   1.234   4.203   3.988  0.9725  0.5439 -0.3910
 1059TIP3    H224669   1.240   4.087   4.085  0.5649  2.1875  1.6623
 1060TIP3   OH224670   2.938   2.493  11.217 -0.1540 -0.0501  0.1869
 1060TIP3    H124671   2.967   2.402  11.224  0.1742  0.0742  0.4424
 1060TIP3    H224672   2.848   2.487  11.185 -0.5375 -0.5165  1.3063
 1061TIP3   OH224673   2.001   5.349   0.453 -0.1835  0.0411  0.6452
 1061TIP3    H124674   1.980   5.429   0.501 -1.7799 -0.3842  0.7333
 1061TIP3    H224675   2.023   5.285   0.520  0.9087  0.3425  0.5860
 1062TIP3   OH224676   0.127   0.202   1.452 -0.2591 -0.7233 -0.0433
 1062TIP3    H124677   0.159   0.228   1.539  0.1619  0.2922 -0.4802
 1062TIP3    H224678   0.081   0.280   1.420  2.3836  0.1597 -2.0731
 1063TIP3   OH224679   0.305   6.236   0.844 -0.4742 -0.5376  0.1825
 1063TIP3    H124680   0.213   6.257   0.862 -0.5348 -0.3236 -0.3632
 1063TIP3    H224681   0.352   6.318   0.861 -0.2231 -0.9459  1.5651
 1064TIP3   OH224682   1.857   1.452   4.702  0.3737 -0.3663  0.6892
 1064TIP3    H124683   1.789   1.431   4.638 -0.9423 -0.4971  2.0665
 1064TIP3    H224684   1.809   1.481   4.779  1.9372  3.0431  0.5758
 1065TIP3   OH224685   6.268   0.208   5.184 -0.4764  0.0287  0.2928
 1065TIP3    H124686   6.335   0.211   5.115  0.2907  0.5918  1.0381
 1065TIP3    H224687   6.241   0.116   5.186  0.5246 -0.2814  0.2005
 1066TIP3   OH224688   5.586   2.481  12.662 -0.6205  0.3584  0.2912
 1066TIP3    H124689   5.612   2.555  12.607  1.0851 -1.9810 -2.3079
 1066TIP3    H224690   5.651   2.479  12.733  1.2236 -0.3653 -1.3406
 1067TIP3   OH224691   3.482   3.716  11.905 -0.3802  0.3665  0.2098
 1067TIP3    H124692   3.567   3.744  11.872  0.5539  1.1511  3.0555
 1067TIP3    H224693   3.497   3.626  11.936 -1.2696 -0.3944 -1.4022
 1068TIP3   OH224694   1.327   0.049   3.809 -0.1140  0.0096  0.0912
 1068TIP3    H124695   1.329   0.099   3.891 -1.8505  2.3547 -1.1498
 1068TIP3    H224696   1.353   0.113   3.742  1.0566 -1.7862 -1.2575
 1069TIP3   OH224697   1.960   5.846  13.817 -0.7083  0.6624  0.0052
 1069TIP3    H124698   2.051   5.867  13.795 -0.0338  0.3835  2.2632
 1069TIP3    H224699   1.919   5.931  13.835 -0.1474  0.6350  1.5100
 1070TIP3   OH224700   4.735   5.487  12.595 -0.0120 -0.4171 -0.2326
 1070TIP3    H124701   4.827   5.469  12.572  0.1405 -1.3851  1.0026
 1070TIP3    H224702   4.707   5.554  12.533  1.4960 -0.1998 -0.7185
 1071TIP3   OH224703   1.256   5.482   5.339  0.2141  0.1526 -1.2305
 1071TIP3    H124704   1.282   5.390   5.334 -0.3481 -0.2306  1.4399
 1071TIP3    H224705   1.300   5.515   5.417  0.5061  2.2263 -2.2083
 1072TIP3   OH224706   0.032   5.572   0.909 -0.0475 -0.7573 -0.0883
 1072TIP3    H124707  -0.045   5.516   0.923  0.9054 -1.4182  3.3216
 1072TIP3    H224708   0.101   5.512   0.882 -0.0398 -0.5778 -0.4749
 1073TIP3   OH224709   5.937   4.628   0.855 -0.1827 -0.2162 -0.0285
 1073TIP3    H124710   5.880   4.612   0.781 -1.0901  0.6200  0.4734
 1073TIP3    H224711   6.022   4.593   0.827 -0.8561 -1.2604 -0.8714
 1074TIP3   OH224712   4.141   0.026   2.337 -0.0117 -0.3818  0.1115
 1074TIP3    H124713   4.210   0.050   2.276  0.1244 -0.4584  0.2353
 1074TIP3    H224714   4.124  -0.067   2.319 -0.5393 -0.2028 -0.3699
 1075TIP3   OH224715   0.898   4.590   4.445 -0.4520 -0.1236  0.4186
 1075TIP3    H124716   0.976   4.573   4.498  0.3495  0.5661 -0.4879
 1075TIP3    H224717   0.906   4.682   4.419 -0.4906 -0.5897 -1.3807
 1076TIP3   OH224718   6.372   0.122   0.535  0.0692 -0.2866 -0.1292
 1076TIP3    H124719   6.334   0.155   0.616  1.0487 -0.3842  0.3794
 1076TIP3    H224720   6.301   0.130   0.471 -1.1195 -1.3727  0.9996
 1077TIP3   OH224721   2.548   6.046   0.105 -0.2320 -0.4926 -0.2148
 1077TIP3    H124722   2.585   6.134   0.095  0.5367 -0.3659  2.8003
 1077TIP3    H224723   2.597   6.007   0.177 -1.7024 -2.7878 -0.3470
 1078TIP3   OH224724   6.633   5.518  10.597 -0.5747  0.2767 -0.1972
 1078TIP3    H124725   6.643   5.547  10.507 -1.0923  0.8190 -0.0880
 1078TIP3    H224726   6.579   5.585  10.638 -0.5765 -0.1070  0.4441
 1079TIP3   OH224727   1.058   1.974  11.841  0.0470 -0.3799  0.1202
 1079TIP3    H124728   0.988   1.966  11.777  2.2717 -0.6278 -2.4970
 1079TIP3    H224729   1.037   1.910  11.909 -1.8533 -0.9619 -0.9482
 1080TIP3   OH224730   3.427   1.085  16.858 -0.2467  0.0887  0.4969
 1080TIP3    H124731   3.404   1.090  16.765  1.8861  1.0235 -0.0351
 1080TIP3    H224732   3.352   1.041  16.899 -3.0090  2.9747 -1.0031
 1081TIP3   OH224733   2.323   4.073  11.683 -0.4643  0.2480  0.6825
 1081TIP3    H124734   2.344   4.165  11.700 -0.1170  0.0080  1.6265
 1081TIP3    H224735   2.228   4.071  11.679 -0.4357  0.8428 -0.5477
 1082TIP3   OH224736   1.293   0.989   0.476 -0.0670  0.4360  0.3231
 1082TIP3    H124737   1.228   0.997   0.406 -1.0878  1.9385  1.3703
 1082TIP3    H224738   1.252   1.030   0.552  1.2038 -0.6830  1.6902
 1083TIP3   OH224739   4.196   1.165  15.025  0.0558 -0.7238 -0.2687
 1083TIP3    H124740   4.125   1.194  14.966  0.2924 -0.8858 -0.6392
 1083TIP3    H224741   4.238   1.093  14.977  0.3359 -0.7700  0.0458
 1084TIP3   OH224742   4.978   2.002  16.569  0.0909  1.2276  0.3915
 1084TIP3    H124743   5.000   2.087  16.533  0.1293  0.7042 -0.8812
 1084TIP3    H224744   4.886   1.989  16.548  0.3938  0.4422 -0.5781
 1085TIP3   OH224745   1.668   4.829  13.362 -0.2797 -0.6758  0.1706
 1085TIP3    H124746   1.637   4.903  13.309 -2.1578  0.2802  2.3886
 1085TIP3    H224747   1.610   4.757  13.339 -2.6550  0.3689  2.3738
 1086TIP3   OH224748   2.811   4.132   1.284 -0.8017  0.5413 -0.2838
 1086TIP3    H124749   2.783   4.222   1.298 -1.9381  0.3002 -0.9269
 1086TIP3    H224750   2.732   4.079   1.299  0.0485 -0.4356  0.9793
 1087TIP3   OH224751   1.805   2.598  11.383 -0.6183  0.4348 -0.0245
 1087TIP3    H124752   1.882   2.611  11.438 -0.0343 -0.4033 -0.6219
 1087TIP3    H224753   1.823   2.649  11.304 -1.6256  1.9558  0.6593
 1088TIP3   OH224754   3.440   0.854  11.481 -0.1517 -0.2370 -0.8114
 1088TIP3    H124755   3.532   0.875  11.494  0.1647 -0.7306 -2.1602
 1088TIP3    H224756   3.393   0.921  11.531  0.9112  0.9754 -1.3930
 1089TIP3   OH224757   1.393   0.916   5.604 -0.6273 -0.0332  0.3031
 1089TIP3    H124758   1.477   0.873   5.587 -0.2147 -0.1454  2.3063
 1089TIP3    H224759   1.335   0.881   5.537 -0.3534 -3.9068  1.7776
 1090TIP3   OH224760   6.408   3.343  14.195  0.0774  0.5493  0.3041
 1090TIP3    H124761   6.320   3.312  14.175  1.1778 -1.4978 -1.9096
 1090TIP3    H224762   6.396   3.433  14.226 -2.7192  0.4819 -0.3677
 1091TIP3   OH224763   4.154   4.923  17.150  0.1081  0.1139 -0.2176
 1091TIP3    H124764   4.066   4.961  17.159  0.0731  0.0531 -0.2921
 1091TIP3    H224765   4.212   4.987  17.191  0.1206  0.5651 -0.9183
 1092TIP3   OH224766   2.922   3.853  11.511  0.9358 -0.3757 -0.1159
 1092TIP3    H124767   2.969   3.861  11.428  2.4013 -1.3467  0.5746
 1092TIP3    H224768   2.974   3.791  11.562 -1.5533 -2.1899  0.3987
 1093TIP3   OH224769   3.971   3.620  11.990 -0.4273 -0.7443 -0.2687
 1093TIP3    H124770   4.002   3.570  11.914 -0.4725 -2.1237  0.5897
 1093TIP3    H224771   4.049   3.632  12.044 -0.2312  0.9302 -0.8773
 1094TIP3   OH224772   5.167   1.816   4.378 -0.0313  0.6942 -0.5762
 1094TIP3    H124773   5.150   1.758   4.304 -0.5834  0.7716 -0.5141
 1094TIP3    H224774   5.258   1.798   4.402  0.2708  0.9312 -1.5024
 1095TIP3   OH224775   3.361   6.626   3.649 -0.0006 -0.5287  0.0747
 1095TIP3    H124776   3.394   6.546   3.610  0.3512 -0.3510  0.0052
 1095TIP3    H224777   3.438   6.670   3.684 -0.0108  0.4098 -1.0326
 1096TIP3   OH224778   3.700   3.500  11.472 -0.0993 -0.2746 -0.5069
 1096TIP3    H124779   3.652   3.452  11.406 -0.6194  1.4683 -1.4701
 1096TIP3    H224780   3.712   3.587  11.434  0.8558  0.3428  1.1058
 1097TIP3   OH224781   2.198   3.559  13.094 -0.3033 -0.7049 -0.3316
 1097TIP3    H124782   2.108   3.576  13.067  0.1388  0.7803 -1.0199
 1097TIP3    H224783   2.242   3.530  13.013 -0.2107 -1.7239  0.0656
 1098TIP3   OH224784   3.908   6.443   4.158 -0.1861 -0.1480  0.4737
 1098TIP3    H124785   3.860   6.498   4.220 -2.2437 -0.6148 -0.6126
 1098TIP3    H224786   3.884   6.354   4.181 -1.4867 -0.3096 -1.3066
 1099TIP3   OH224787   1.510   0.630   1.095 -0.4684  0.0995  0.0706
 1099TIP3    H124788   1.467   0.652   1.178  0.6578 -0.2546  0.7695
 1099TIP3    H224789   1.442   0.586   1.044 -0.9861 -0.2948  1.0718
 1100TIP3   OH224790   1.688   6.655   3.733  0.3626 -0.2646  0.4579
 1100TIP3    H124791   1.603   6.627   3.699  1.3703 -0.4184 -2.1873
 1100TIP3    H224792   1.728   6.575   3.768  0.7677 -1.0017 -1.5203
 1101TIP3   OH224793   2.347   5.595  10.548  0.1679  0.4561  0.0980
 1101TIP3    H124794   2.253   5.595  10.566  0.3339  1.4285  1.0803
 1101TIP3    H224795   2.368   5.504  10.529 -0.7999  0.0629  0.8565
 1102TIP3   OH224796   4.203   1.313  12.484 -0.3220 -0.3426 -0.1315
 1102TIP3    H124797   4.237   1.340  12.399  0.1546 -1.0274 -0.1682
 1102TIP3    H224798   4.133   1.376  12.503  0.0179  0.2280 -0.7106
 1103TIP3   OH224799   4.660   2.817   0.437  0.1205  0.0227  0.6156
 1103TIP3    H124800   4.657   2.904   0.477 -0.4803  0.2242  0.1526
 1103TIP3    H224801   4.656   2.834   0.343 -1.1550 -0.5373  0.5464
 1104TIP3   OH224802   5.108   1.614  13.607 -0.3341 -0.1099  0.0678
 1104TIP3    H124803   5.086   1.623  13.700  1.2621  0.2263  0.4599
 1104TIP3    H224804   5.079   1.695  13.567 -1.7492 -0.5824  0.0980
 1105TIP3   OH224805   2.578   5.413  16.775 -0.2254  0.4207 -0.1488
 1105TIP3    H124806   2.663   5.368  16.777 -0.3027  0.2744  1.0472
 1105TIP3    H224807   2.598   5.501  16.744  0.3184  0.2781 -0.2147
 1106TIP3   OH224808   6.600   3.707   2.726 -0.1581  0.3054  0.3474
 1106TIP3    H124809   6.560   3.788   2.693 -0.2366 -0.3965 -1.3598
 1106TIP3    H224810   6.584   3.643   2.657  0.4155 -1.0277  1.4251
 1107TIP3   OH224811   4.974   2.002   4.302  0.2550 -0.4097  0.0860
 1107TIP3    H124812   5.029   1.928   4.328 -0.5740 -0.9088  0.4672
 1107TIP3    H224813   4.985   2.007   4.207  2.6331  0.8751  0.3593
 1108TIP3   OH224814   0.344   1.406  13.957 -0.9206 -0.0640 -0.1972
 1108TIP3    H124815   0.272   1.407  14.020 -0.2295  1.5094  0.6306
 1108TIP3    H224816   0.350   1.497  13.926  0.0081 -0.4022 -1.0804
 1109TIP3   OH224817   3.826   1.899   0.296 -0.4514 -0.8244  0.1578
 1109TIP3    H124818   3.871   1.962   0.352  0.6222 -1.0718 -0.3952
 1109TIP3    H224819   3.873   1.816   0.311 -1.4623 -1.3546  0.4299
 1110TIP3   OH224820   0.941   5.072  15.562  0.1720  0.0963 -0.3457
 1110TIP3    H124821   0.895   5.127  15.498 -1.2550 -1.2358 -0.5349
 1110TIP3    H224822   0.879   5.064  15.635  0.4661 -0.9812 -0.1929
 1111TIP3   OH224823   4.465   5.533  16.173  0.2072  0.3866  1.0680
 1111TIP3    H124824   4.551   5.546  16.133 -0.6254  2.8757 -0.1858
 1111TIP3    H224825   4.440   5.444  16.149  1.7233  0.2011  0.0226
 1112TIP3   OH224826   4.464   1.899   3.629  0.4342  0.3313 -0.5631
 1112TIP3    H124827   4.430   1.811   3.612 -2.4101  0.7833  2.0265
 1112TIP3    H224828   4.537   1.885   3.690 -0.9074 -0.2453  0.9807
 1113TIP3   OH224829   2.328   0.328  13.950 -0.9597  1.0322  0.0678
 1113TIP3    H124830   2.329   0.233  13.941 -0.3163  0.6893  2.7865
 1113TIP3    H224831   2.407   0.357  13.904  0.0871 -0.0382  1.0983
 1114TIP3   OH224832   1.814   6.747  16.752  0.0760  0.5476 -0.3191
 1114TIP3    H124833   1.892   6.748  16.809  0.1080  1.5530 -0.3629
 1114TIP3    H224834   1.764   6.671  16.781  1.4582 -0.5934 -0.8135
 1115TIP3   OH224835   1.379   5.853  17.107 -0.1380  0.0669  0.3682
 1115TIP3    H124836   1.317   5.912  17.150 -0.2281 -1.3808  2.3304
 1115TIP3    H224837   1.447   5.838  17.172 -0.2986 -2.2855  0.0664
 1116TIP3   OH224838   5.012   5.937  12.298 -0.2431 -0.0190 -0.2025
 1116TIP3    H124839   5.082   6.001  12.310 -1.0590  0.9104 -0.1779
 1116TIP3    H224840   5.023   5.875  12.369  2.0365 -1.3557 -1.6117
 1117TIP3   OH224841   1.431   6.685   2.525  0.2275 -0.2636 -0.1575
 1117TIP3    H124842   1.410   6.699   2.617  0.2860 -0.9830 -0.0272
 1117TIP3    H224843   1.351   6.648   2.487 -0.6582  2.2968 -0.9826
 1118TIP3   OH224844   5.789   5.431   5.873  0.0985 -0.0227  0.0749
 1118TIP3    H124845   5.783   5.401   5.783  0.2163 -2.2193  0.7521
 1118TIP3    H224846   5.714   5.489   5.884  0.3177  0.6192 -1.5150
 1119TIP3   OH224847   6.465   0.805  13.015  0.3241 -0.2022  0.5444
 1119TIP3    H124848   6.541   0.772  12.967 -0.5448 -1.1341 -0.2400
 1119TIP3    H224849   6.428   0.728  13.058 -1.4870 -0.2165 -0.9463
 1120TIP3   OH224850   5.379   3.084  12.874  0.6318 -0.2972  0.3682
 1120TIP3    H124851   5.412   3.137  12.947  0.9857 -0.2252  0.1596
 1120TIP3    H224852   5.325   3.017  12.915 -0.3692  0.6127  0.6050
 1121TIP3   OH224853   4.915   6.162   1.307 -0.4045 -0.3883 -0.2312
 1121TIP3    H124854   4.943   6.098   1.242 -0.9334 -0.4689 -0.3852
 1121TIP3    H224855   4.825   6.184   1.282 -0.5716 -0.3314  0.4046
 1122TIP3   OH224856   4.416   5.228   0.140  0.5907  0.1840  0.0346
 1122TIP3    H124857   4.504   5.260   0.160  1.0712 -0.9118 -0.1926
 1122TIP3    H224858   4.374   5.218   0.226  1.2602 -0.7859  0.2697
 1123TIP3   OH224859   0.802   3.033  14.557  0.0479  0.2383  0.4185
 1123TIP3    H124860   0.881   3.029  14.503 -0.2555 -1.1367  0.0404
 1123TIP3    H224861   0.801   3.122  14.592  0.1587  1.2239 -1.9570
 1124TIP3   OH224862   1.188   5.502   4.734 -0.2382  0.1479  0.0584
 1124TIP3    H124863   1.173   5.456   4.816 -1.6018  1.4174  0.5792
 1124TIP3    H224864   1.266   5.462   4.697 -0.1251 -1.0613  1.5297
 1125TIP3   OH224865   5.635   1.221   5.066  0.0424  0.2975  0.2788
 1125TIP3    H124866   5.684   1.296   5.101  0.0250  1.2172 -1.5413
 1125TIP3    H224867   5.549   1.227   5.107  0.0850  1.2279  0.2586
 1126TIP3   OH224868   4.996   0.862  16.500 -0.0187 -0.0002  0.0104
 1126TIP3    H124869   5.042   0.919  16.561 -1.5804  0.0419  1.2235
 1126TIP3    H224870   5.055   0.788  16.487  1.4398  1.1971 -0.4936
 1127TIP3   OH224871   1.204   1.184  11.809 -0.1154 -0.2050 -0.4775
 1127TIP3    H124872   1.118   1.209  11.776  0.5755  2.0824 -0.6907
 1127TIP3    H224873   1.196   1.192  11.904 -0.4614 -1.2149 -0.4066
 1128TIP3   OH224874   2.402   5.788   2.952 -0.2294 -0.0298  0.0594
 1128TIP3    H124875   2.461   5.863   2.964 -0.6199  0.3241 -0.1714
 1128TIP3    H224876   2.459   5.715   2.929  0.1751  0.1565  0.4534
 1129TIP3   OH224877   4.723   4.844  14.982  0.1171 -0.1848 -0.7594
 1129TIP3    H124878   4.636   4.874  14.955 -0.0487 -0.8332 -0.9633
 1129TIP3    H224879   4.752   4.788  14.910  1.0528  0.6771 -1.0786
 1130TIP3   OH224880   6.769   0.338  11.509  0.4061 -0.2898  0.1803
 1130TIP3    H124881   6.767   0.308  11.600 -0.0700 -1.0153 -0.0568
 1130TIP3    H224882   6.841   0.290  11.470  1.2330  0.7340  0.3936
 1131TIP3   OH224883   3.367   0.567  12.306 -0.1327 -0.6136  0.0526
 1131TIP3    H124884   3.366   0.540  12.214 -0.3888  0.8262 -0.3958
 1131TIP3    H224885   3.276   0.593  12.324  0.3706  1.3889 -0.0373
 1132TIP3   OH224886   1.838   1.023   6.551 -0.2870  0.1745 -0.4136
 1132TIP3    H124887   1.859   0.934   6.522  0.5377  1.0213 -2.6808
 1132TIP3    H224888   1.743   1.031   6.537 -0.4518 -0.4758  0.2642
 1133TIP3   OH224889   3.252   0.600  10.820  0.3068 -0.0356 -0.4570
 1133TIP3    H124890   3.266   0.667  10.752  1.2320 -0.3354 -0.5830
 1133TIP3    H224891   3.267   0.517  10.775 -1.5066 -0.3922 -0.4673
 1134TIP3   OH224892   3.855   4.415  16.577  0.4255  0.3217 -1.3201
 1134TIP3    H124893   3.875   4.502  16.541  3.6174 -0.0701 -0.8066
 1134TIP3    H224894   3.905   4.355  16.521 -0.8707 -1.0873 -1.0057
 1135TIP3   OH224895   6.158   5.999  15.408 -0.6605 -0.3940 -0.5831
 1135TIP3    H124896   6.181   5.916  15.450  1.5610  0.6551  0.4744
 1135TIP3    H224897   6.207   5.999  15.326 -1.4995 -0.5762 -1.0849
 1136TIP3   OH224898   5.248   5.587   0.786  0.2408  0.4333  0.0271
 1136TIP3    H124899   5.326   5.591   0.731  2.0241  0.7410  2.4088
 1136TIP3    H224900   5.267   5.519   0.850 -1.4785  0.4829  0.6378
 1137TIP3   OH224901   0.633   2.063   3.321  0.1995  0.0195  0.9665
 1137TIP3    H124902   0.552   2.042   3.367 -0.1542 -0.4836  0.1447
 1137TIP3    H224903   0.613   2.044   3.229  1.7518 -1.7144  0.9287
 1138TIP3   OH224904   2.071   5.163  12.619  0.2658 -0.6738 -0.4404
 1138TIP3    H124905   2.137   5.174  12.687  0.6981 -0.5038 -0.8758
 1138TIP3    H224906   2.032   5.250  12.610 -2.1336 -1.3846  1.8889
 1139TIP3   OH224907   3.366   0.536  16.331  0.0637  0.0347  0.9659
 1139TIP3    H124908   3.340   0.458  16.281 -0.4165 -0.1041  1.4204
 1139TIP3    H224909   3.381   0.603  16.265  1.3161 -0.6659  0.5004
 1140TIP3   OH224910   3.079   1.547  14.409  0.0817 -0.2301  0.2063
 1140TIP3    H124911   3.060   1.502  14.326 -0.8196 -2.2869  1.4461
 1140TIP3    H224912   3.000   1.535  14.461  1.5874 -1.4365  2.3741
 1141TIP3   OH224913   6.711   3.550   6.246 -0.0655  0.5067 -0.1499
 1141TIP3    H124914   6.794   3.513   6.277 -0.4598  0.5587  1.0049
 1141TIP3    H224915   6.655   3.551   6.324 -1.4581 -0.3506 -1.1119
 1142TIP3   OH224916   4.799   2.154  11.671  0.5055  0.7066  0.6266
 1142TIP3    H124917   4.850   2.073  11.665 -0.5650  0.0670 -0.1439
 1142TIP3    H224918   4.776   2.161  11.763  1.2247  0.5374  0.8278
 1143TIP3   OH224919   6.373   1.929  13.728  0.4100 -0.1135  0.0806
 1143TIP3    H124920   6.404   2.004  13.678  0.7636  0.6433  1.3713
 1143TIP3    H224921   6.445   1.909  13.788 -0.5544  0.0214  1.3452
 1144TIP3   OH224922   0.586   4.202  14.884  0.0535 -0.6566  0.4785
 1144TIP3    H124923   0.661   4.183  14.940  0.3325  1.1599  0.7534
 1144TIP3    H224924   0.615   4.273  14.827 -1.2579 -0.3425  0.1712
 1145TIP3   OH224925   6.703   1.978  11.306 -0.1055 -0.4329 -0.2644
 1145TIP3    H124926   6.795   1.962  11.290  0.2195 -0.2930  1.2964
 1145TIP3    H224927   6.681   1.923  11.381 -0.6732  1.2030  0.8542
 1146TIP3   OH224928   1.076   1.169   4.994  0.3376  0.2638 -0.2503
 1146TIP3    H124929   1.040   1.171   5.082  0.6367 -0.5783 -0.1003
 1146TIP3    H224930   1.002   1.190   4.937  0.6763  3.3596  0.3150
 1147TIP3   OH224931   1.030   3.401  15.796 -0.0798 -0.4578 -0.3712
 1147TIP3    H124932   1.098   3.437  15.854  0.0318 -1.5285  0.1773
 1147TIP3    H224933   1.051   3.438  15.710  0.3734  0.3198  0.0540
 1148TIP3   OH224934   2.332   2.742  17.141  0.3355 -0.4620 -0.1673
 1148TIP3    H124935   2.298   2.777  17.223 -0.2391 -1.9438  0.2461
 1148TIP3    H224936   2.260   2.754  17.078  0.4795 -0.0683 -0.2599
 1149TIP3   OH224937   2.719   2.345  14.995 -0.1390 -0.2892  0.5270
 1149TIP3    H124938   2.774   2.384  14.928  0.1916 -0.6768  0.5694
 1149TIP3    H224939   2.776   2.339  15.072 -0.6865  0.7006  1.0270
 1150TIP3   OH224940   1.570   6.400   0.016 -0.1219  0.1331 -0.1114
 1150TIP3    H124941   1.509   6.328   0.000 -0.3150  0.4554 -0.8986
 1150TIP3    H224942   1.654   6.369  -0.016 -0.0868  0.0571  0.0537
 1151TIP3   OH224943   5.872   2.697   2.831 -1.2021  0.4737 -0.0288
 1151TIP3    H124944   5.913   2.705   2.745 -2.7742 -0.6031 -0.9293
 1151TIP3    H224945   5.880   2.603   2.852  1.6778  1.0956  2.3721
 1152TIP3   OH224946   3.453   6.736   6.372  0.1982 -0.4947  0.3407
 1152TIP3    H124947   3.426   6.655   6.329  2.8258 -0.5448 -1.4614
 1152TIP3    H224948   3.451   6.716   6.466  1.5266 -2.9663 -0.0703
 1153TIP3   OH224949   1.098   5.020  10.639  0.2589  0.2160  0.6772
 1153TIP3    H124950   1.033   4.988  10.702 -0.8591 -0.4019 -0.7342
 1153TIP3    H224951   1.100   4.953  10.571  1.0991  1.0909 -0.1873
 1154TIP3   OH224952   3.204   4.400  11.574 -0.0198  0.4411 -0.2568
 1154TIP3    H124953   3.113   4.398  11.544  0.0069 -1.1858 -0.3165
 1154TIP3    H224954   3.198   4.401  11.669 -0.1501 -1.5978 -0.1976
 1155TIP3   OH224955   1.512   4.220  14.572  0.1209  0.0764  0.3746
 1155TIP3    H124956   1.516   4.248  14.480  0.2453 -2.0853 -0.3306
 1155TIP3    H224957   1.419   4.208  14.590  0.2194 -2.3179 -0.4377
 1156TIP3   OH224958   5.009   4.406  12.237  0.2925 -0.4335  0.0887
 1156TIP3    H124959   4.988   4.328  12.186  0.2422  0.0861 -0.7032
 1156TIP3    H224960   5.101   4.423  12.217 -0.7472  2.2354 -3.3246
 1157TIP3   OH224961   6.822   1.496  12.737  0.2170  0.2520 -0.0523
 1157TIP3    H124962   6.791   1.419  12.689 -0.4855  1.6223 -1.9496
 1157TIP3    H224963   6.912   1.509  12.706  0.3665  0.1676  0.3339
 1158TIP3   OH224964   6.627   0.055  14.502  0.3027 -0.2898 -0.0363
 1158TIP3    H124965   6.599   0.097  14.421 -2.0673 -2.5844 -0.5727
 1158TIP3    H224966   6.691  -0.010  14.475 -2.0152 -2.5400 -0.5734
 1159TIP3   OH224967   5.379   2.068  12.031  0.1392  0.0050 -0.1145
 1159TIP3    H124968   5.394   2.064  11.937  0.6653  0.7073 -0.0716
 1159TIP3    H224969   5.463   2.094  12.068 -0.4868  1.4375  0.3878
 1160TIP3   OH224970   5.418   1.403  11.561  0.3537 -0.4922 -0.8175
 1160TIP3    H124971   5.354   1.470  11.584  0.3345 -1.0368  0.8069
 1160TIP3    H224972   5.372   1.346  11.498  0.2036  0.6896 -1.8043
 1161TIP3   OH224973   3.316   4.726  16.895  0.0821  0.2237  0.2455
 1161TIP3    H124974   3.334   4.685  16.811  0.1345  1.0754 -0.1791
 1161TIP3    H224975   3.397   4.770  16.919  0.2803 -0.5837  1.0851
 1162TIP3   OH224976   3.601   4.371   4.212 -0.2409  0.2779  0.6791
 1162TIP3    H124977   3.546   4.381   4.135  0.5670 -1.8087 -0.2439
 1162TIP3    H224978   3.603   4.458   4.252 -1.4417  1.1818 -1.1057
 1163TIP3   OH224979   0.834   3.017   3.029  0.4922 -0.0284 -0.0976
 1163TIP3    H124980   0.818   3.111   3.043 -0.6802 -0.3936  1.3352
 1163TIP3    H224981   0.886   3.013   2.949  2.6143  1.9934  1.0644
 1164TIP3   OH224982   3.076   0.526   5.709  0.2859  0.7069 -0.4860
 1164TIP3    H124983   3.079   0.436   5.678 -0.1109  0.2847  0.6346
 1164TIP3    H224984   2.995   0.561   5.672  0.2796  0.5047 -0.6661
 1165TIP3   OH224985   5.621   2.301   0.714  0.0718  0.3906  0.7945
 1165TIP3    H124986   5.643   2.288   0.806  1.3896  0.7744  0.5510
 1165TIP3    H224987   5.547   2.361   0.715  0.7472  1.2254  1.5742
 1166TIP3   OH224988   3.446   2.486  16.755  0.7251 -0.7312 -0.0828
 1166TIP3    H124989   3.475   2.525  16.837  0.8354 -0.2520 -0.3488
 1166TIP3    H224990   3.479   2.396  16.759 -0.9404 -1.3357  1.2674
 1167TIP3   OH224991   2.828   5.198   2.072 -0.1317 -0.1065  0.1231
 1167TIP3    H124992   2.754   5.165   2.022 -0.4659  0.5838  0.1468
 1167TIP3    H224993   2.906   5.164   2.027 -0.4536 -1.8235  0.7779
 1168TIP3   OH224994   6.417   6.092   0.092  0.0256  0.1783  0.3482
 1168TIP3    H124995   6.327   6.099   0.123 -1.1692 -0.5774 -2.5719
 1168TIP3    H224996   6.420   6.007   0.048  2.2841  0.0664  0.5876
 1169TIP3   OH224997   1.175   1.914   3.071  0.4059 -0.1980  0.4823
 1169TIP3    H124998   1.100   1.866   3.107  0.8308 -1.9804 -0.8666
 1169TIP3    H224999   1.252   1.870   3.107  0.8168  0.5192  0.5005
 1170TIP3   OH225000   2.621   1.401  13.767 -0.0632  0.3326 -0.7700
 1170TIP3    H125001   2.558   1.360  13.708 -1.3624  2.8229 -1.2555
 1170TIP3    H225002   2.666   1.466  13.713  1.3077  0.1845  0.1419
 1171TIP3   OH225003   3.864   3.824  13.458 -0.1620 -0.7001  0.2299
 1171TIP3    H125004   3.906   3.748  13.498 -0.4511 -0.3267  1.2768
 1171TIP3    H225005   3.815   3.788  13.384 -1.9405 -1.8761  1.8834
 1172TIP3   OH225006   2.123   1.201  13.962  0.0899 -0.1445  0.2260
 1172TIP3    H125007   2.206   1.245  13.977 -0.0226  0.5525 -1.0137
 1172TIP3    H225008   2.105   1.215  13.869 -0.6544 -1.6260  0.1203
 1173TIP3   OH225009   3.000   2.529   0.531  0.1730 -0.0818 -0.4569
 1173TIP3    H125010   3.084   2.569   0.509  0.4607  0.6606  1.8171
 1173TIP3    H225011   2.943   2.602   0.554 -1.2100 -0.5571 -2.1450
 1174TIP3   OH225012   3.479   6.334  12.526  0.0956  0.1188 -0.4377
 1174TIP3    H125013   3.428   6.326  12.445 -0.0473 -1.0108 -0.2638
 1174TIP3    H225014   3.478   6.245  12.562  1.6463  0.2293 -0.0916
 1175TIP3   OH225015   0.786   0.746  11.981  0.2852  0.5259  0.2828
 1175TIP3    H125016   0.761   0.795  11.903  0.2012 -0.4187 -0.2953
 1175TIP3    H225017   0.879   0.727  11.969  0.3966  0.8068  0.6599
 1176TIP3   OH225018   3.670   1.333  11.636  0.0746 -0.0392 -0.7359
 1176TIP3    H125019   3.700   1.424  11.634  1.0692 -0.3560 -0.4109
 1176TIP3    H225020   3.705   1.294  11.556 -1.8101  0.2862 -1.7883
 1177TIP3   OH225021   4.723   2.405   4.885 -0.7319 -0.4590 -0.8294
 1177TIP3    H125022   4.726   2.320   4.840 -1.4179 -0.3001 -1.2009
 1177TIP3    H225023   4.812   2.438   4.880 -0.7914 -0.4524 -2.0816
 1178TIP3   OH225024   4.924   5.830  13.607  0.9190 -0.1594  0.2279
 1178TIP3    H125025   4.986   5.894  13.570  3.1905 -1.0595  2.2026
 1178TIP3    H225026   4.851   5.883  13.639  0.2888  0.8909 -2.6858
 1179TIP3   OH225027   6.078   0.228  11.734 -0.6109 -0.2210  0.4269
 1179TIP3    H125028   6.074   0.134  11.752 -0.7859 -0.0728  1.2089
 1179TIP3    H225029   6.172   0.248  11.730 -0.5745 -0.4517  0.1355
 1180TIP3   OH225030   3.798   1.786  10.358 -0.2384 -0.4350 -0.2092
 1180TIP3    H125031   3.833   1.864  10.400 -2.2184  1.2046 -1.4234
 1180TIP3    H225032   3.873   1.726  10.353  1.2216  1.1523  1.2140
 1181TIP3   OH225033   4.008   3.042   5.115  0.1260 -0.1119  0.1311
 1181TIP3    H125034   4.034   3.133   5.101  1.4036 -0.1142  2.0315
 1181TIP3    H225035   3.913   3.042   5.109  0.0312  1.5782  1.1377
 1182TIP3   OH225036   0.005   2.408   2.940 -0.2929 -0.1783  0.0394
 1182TIP3    H125037   0.022   2.479   3.002  0.4979 -0.4503  0.1366
 1182TIP3    H225038  -0.042   2.450   2.868 -0.9640  0.1978  0.6741
 1183TIP3   OH225039   0.243   6.194  16.378  0.4218  0.2954  0.5531
 1183TIP3    H125040   0.201   6.214  16.295 -0.1007 -1.3893  0.3676
 1183TIP3    H225041   0.179   6.221  16.444  0.9897  1.9774  0.4580
 1184TIP3   OH225042   4.198   3.145   0.252 -0.2466 -0.5478  0.5301
 1184TIP3    H125043   4.228   3.104   0.333  0.1084 -0.4680  0.4414
 1184TIP3    H225044   4.232   3.234   0.256 -1.7522  0.0320  1.1332
 1185TIP3   OH225045   3.740   6.720  14.744 -0.5426 -0.3146 -0.3810
 1185TIP3    H125046   3.777   6.758  14.665 -0.6177 -0.7080 -0.6056
 1185TIP3    H225047   3.646   6.736  14.736 -0.5853 -0.6238 -0.5202
 1186TIP3   OH225048   6.280   3.104  17.062  0.1963 -0.2742  0.2085
 1186TIP3    H125049   6.261   3.022  17.107 -0.2866 -0.7710 -0.8459
 1186TIP3    H225050   6.274   3.171  17.129  2.0990 -1.2263  1.4353
 1187TIP3   OH225051   2.981   2.892   5.597  0.1578 -0.0820 -0.0866
 1187TIP3    H125052   2.915   2.945   5.553  0.7197  1.1573  0.5037
 1187TIP3    H225053   3.065   2.931   5.571  0.5876 -0.7002  0.3409
 1188TIP3   OH225054   3.182   3.406   5.782 -0.0927  0.0758  0.1848
 1188TIP3    H125055   3.246   3.471   5.752 -1.3089  0.9813 -0.5355
 1188TIP3    H225056   3.117   3.403   5.712 -1.7534  0.4539  1.6551
 1189TIP3   OH225057   1.006   4.591   3.125  0.0984  0.4335  0.1115
 1189TIP3    H125058   1.054   4.515   3.160 -0.7013 -0.7548 -1.2504
 1189TIP3    H225059   1.013   4.657   3.193  1.9505 -0.3958  0.8063
 1190TIP3   OH225060   4.480   3.778   0.325 -0.0342  0.2139  0.4559
 1190TIP3    H125061   4.476   3.694   0.370  1.4009  0.4496  1.0864
 1190TIP3    H225062   4.560   3.774   0.273 -0.2763  0.9571  0.0042
 1191TIP3   OH225063   5.755   3.472   2.768 -0.3342  0.5830 -0.2811
 1191TIP3    H125064   5.662   3.471   2.746 -0.2708  0.7872 -0.5722
 1191TIP3    H225065   5.797   3.509   2.690 -0.1871  2.2117  0.5254
 1192TIP3   OH225066   5.409   6.475   2.102  0.1079 -0.6159  0.4660
 1192TIP3    H125067   5.373   6.561   2.082 -0.2777 -0.4786  1.6423
 1192TIP3    H225068   5.502   6.490   2.113  0.2426 -0.6004 -0.6184
 1193TIP3   OH225069   2.473   0.467  12.985  0.2957 -0.0809 -0.1936
 1193TIP3    H125070   2.562   0.500  12.986 -0.0324  0.8418 -0.4592
 1193TIP3    H225071   2.425   0.528  12.928 -0.0941 -1.6267 -1.6004
 1194TIP3   OH225072   4.761   5.850   6.388  0.3159  0.3470 -0.2583
 1194TIP3    H125073   4.835   5.790   6.398 -1.1419 -1.5366 -0.3924
 1194TIP3    H225074   4.719   5.852   6.474  0.5918  1.5623 -0.1279
 1195TIP3   OH225075   0.450   2.383   5.830 -0.0538 -0.0047  0.1333
 1195TIP3    H125076   0.390   2.406   5.901 -0.8724  1.6260 -1.0451
 1195TIP3    H225077   0.402   2.316   5.780  0.3860 -0.9075  0.8826
 1196TIP3   OH225078   3.598   3.764  12.148  0.3239  0.2101 -0.3123
 1196TIP3    H125079   3.535   3.750  12.078 -2.3371 -2.2000  2.3007
 1196TIP3    H225080   3.609   3.859  12.153 -2.3441  0.6669 -1.5469
 1197TIP3   OH225081   0.439   6.483  16.707 -0.3638 -0.4857  0.1453
 1197TIP3    H125082   0.428   6.551  16.774 -1.0847 -0.5429  0.0969
 1197TIP3    H225083   0.410   6.525  16.626  2.2241  0.1827 -0.5120
 1198TIP3   OH225084   0.221   2.542   4.444  0.1650 -0.5070 -0.3114
 1198TIP3    H125085   0.183   2.555   4.357  1.2553  0.0546 -0.7291
 1198TIP3    H225086   0.293   2.480   4.429 -1.8730 -3.3265  0.8310
 1199TIP3   OH225087   6.438   1.618   1.112 -0.0417 -0.1388  0.3424
 1199TIP3    H125088   6.363   1.665   1.149 -0.3858  0.6337 -1.2249
 1199TIP3    H225089   6.413   1.602   1.021  1.7692  0.2896 -0.2721
 1200TIP3   OH225090   4.795   0.027   6.157 -0.2135  0.1081 -0.0385
 1200TIP3    H125091   4.868   0.008   6.215  2.2830  1.8598 -2.3406
 1200TIP3    H225092   4.777  -0.057   6.113 -0.8132 -0.7352  1.7298
 1201TIP3   OH225093   2.013   0.968   0.255  0.0602 -0.1197 -0.0614
 1201TIP3    H125094   2.063   0.943   0.177  2.6721 -0.9000  1.7087
 1201TIP3    H225095   1.998   0.885   0.301 -0.1352  0.4765  0.9687
 1202TIP3   OH225096   0.073   4.782   5.677 -0.3938  0.4679 -0.1377
 1202TIP3    H125097   0.127   4.829   5.741 -0.8173 -0.8438  1.2392
 1202TIP3    H225098   0.018   4.849   5.638  0.0780  1.3472  0.6705
 1203TIP3   OH225099   1.978   0.883  13.604  0.2130 -0.6794  0.0254
 1203TIP3    H125100   1.991   0.880  13.509  0.6442  1.9547 -0.0696
 1203TIP3    H225101   2.064   0.861  13.640  0.6785  0.5748 -0.2725
 1204TIP3   OH225102   2.587   4.292   3.081  0.6867 -0.1063 -0.3857
 1204TIP3    H125103   2.624   4.206   3.100 -0.4189 -0.3781  0.6937
 1204TIP3    H225104   2.564   4.288   2.988  1.0698 -0.8073 -0.4584
 1205TIP3   OH225105   1.423   5.224  15.143 -0.2745 -0.9629  0.0366
 1205TIP3    H125106   1.494   5.279  15.109  1.7266 -3.5798 -0.3619
 1205TIP3    H225107   1.383   5.186  15.066 -2.7908  1.0693  0.2051
 1206TIP3   OH225108   6.417   3.115   6.204 -0.1468  0.2555  0.2416
 1206TIP3    H125109   6.470   3.119   6.125 -0.9995 -2.1319 -0.5323
 1206TIP3    H225110   6.433   3.199   6.248  3.7508 -0.0668 -0.2209
 1207TIP3   OH225111   6.834   6.082   5.917  0.0861  0.1741  0.5361
 1207TIP3    H125112   6.882   6.143   5.974  1.0234 -0.7437  0.7450
 1207TIP3    H225113   6.857   6.109   5.829 -0.6069  0.9886  0.5860
 1208TIP3   OH225114   2.472   4.200  13.563  0.1706  0.4992  0.5851
 1208TIP3    H125115   2.387   4.158  13.578 -0.2032  1.1036  0.2015
 1208TIP3    H225116   2.483   4.258  13.638 -1.9771  3.9739 -1.5063
 1209TIP3   OH225117   3.520   6.757  16.777  0.2986 -0.2772  0.1416
 1209TIP3    H125118   3.489   6.689  16.837  0.5856  0.4581  1.1592
 1209TIP3    H225119   3.442   6.784  16.729 -0.1853 -0.0876  1.0003
 1210TIP3   OH225120   4.633   5.269  10.573  0.1770  0.8571 -0.0810
 1210TIP3    H125121   4.552   5.275  10.522 -0.7941 -0.8432  1.1768
 1210TIP3    H225122   4.665   5.180  10.557  1.6982  1.4217 -0.3545
 1211TIP3   OH225123   5.825   3.428  15.897  0.2157 -0.0953 -0.1210
 1211TIP3    H125124   5.756   3.494  15.893 -0.1254 -0.4931 -1.1759
 1211TIP3    H225125   5.882   3.449  15.823  0.9573 -0.0609  0.4588
 1212TIP3   OH225126   3.512   5.022  15.069 -0.3680  0.4418  0.1162
 1212TIP3    H125127   3.439   5.062  15.116 -1.3225  1.1884 -1.8952
 1212TIP3    H225128   3.473   4.988  14.988  0.8069 -2.6516  0.6850
 1213TIP3   OH225129   1.072   0.507   2.495  0.3101 -0.2935 -0.1077
 1213TIP3    H125130   1.053   0.600   2.506 -1.4915 -0.6849  0.3603
 1213TIP3    H225131   1.015   0.462   2.557  2.4672 -1.6631  1.0287
 1214TIP3   OH225132   4.789   0.339   1.003 -0.7472  0.0510  0.7315
 1214TIP3    H125133   4.773   0.297   1.087 -0.2892 -0.4966  0.5478
 1214TIP3    H225134   4.715   0.399   0.991  0.3128  1.8607  2.6002
 1215TIP3   OH225135   2.336   1.046   0.370  0.5274 -0.7394 -0.4262
 1215TIP3    H125136   2.306   0.993   0.296 -2.4048 -1.5528  1.1632
 1215TIP3    H225137   2.318   0.991   0.447  2.7621  0.3670  0.9937
 1216TIP3   OH225138   0.140   0.915  11.265 -0.5771 -0.1056  0.1040
 1216TIP3    H125139   0.177   0.890  11.181 -0.3271 -1.6700  0.6537
 1216TIP3    H225140   0.205   0.975  11.303 -0.5189  0.3135 -0.6368
 1217TIP3   OH225141   0.360   3.196  15.290 -0.1810  0.9565 -0.7184
 1217TIP3    H125142   0.382   3.106  15.269  0.7991  0.9910  0.0925
 1217TIP3    H225143   0.359   3.199  15.386  2.0223  2.3066 -0.6823
 1218TIP3   OH225144   3.871   6.419   2.522 -0.1610  0.1749  0.0025
 1218TIP3    H125145   3.873   6.514   2.535  1.9874 -0.2429  4.2508
 1218TIP3    H225146   3.941   6.402   2.459  0.2205  1.3164  0.0972
 1219TIP3   OH225147   3.215   6.348  17.110 -0.1671 -0.2000  0.5568
 1219TIP3    H125148   3.286   6.363  17.047 -0.2364  0.2027  0.5723
 1219TIP3    H225149   3.215   6.426  17.165 -0.7544 -0.1059  0.4266
 1220TIP3   OH225150   1.134   2.867  15.556 -0.8424  0.0755  0.5184
 1220TIP3    H125151   1.042   2.842  15.562 -0.7327 -0.4361  0.1644
 1220TIP3    H225152   1.181   2.783  15.560 -0.4070  0.3103  0.3599
 1221TIP3   OH225153   3.255   4.750  11.855  0.2387  0.9385  0.0887
 1221TIP3    H125154   3.306   4.714  11.928 -1.6259 -0.1724  0.8998
 1221TIP3    H225155   3.224   4.835  11.887 -0.9328  0.2660  0.7958
 1222TIP3   OH225156   4.619   1.188  11.549 -0.2241  0.2822 -0.3780
 1222TIP3    H125157   4.614   1.180  11.454 -0.2184  2.5739 -0.6247
 1222TIP3    H225158   4.701   1.143  11.573 -0.0546 -0.0157 -1.4786
 1223TIP3   OH225159   0.795   1.165   1.211 -0.7651 -0.2433 -0.1639
 1223TIP3    H125160   0.870   1.176   1.154  0.1289 -0.6343  0.8943
 1223TIP3    H225161   0.766   1.254   1.231 -0.8192 -0.0979 -0.8523
 1224TIP3   OH225162   6.757   1.958   4.363 -0.1246 -0.7124  0.4528
 1224TIP3    H125163   6.825   2.019   4.395  1.2055 -2.3126  0.8099
 1224TIP3    H225164   6.686   2.015   4.334  0.3581  0.9573  2.3390
 1225TIP3   OH225165   6.829   6.623   5.726 -0.2787 -1.1150  0.4925
 1225TIP3    H125166   6.755   6.570   5.698 -1.2142  1.1983 -1.8197
 1225TIP3    H225167   6.883   6.633   5.647  0.3148  0.5538  1.0543
 1226TIP3   OH225168   1.114   2.702  11.811 -0.2378  0.5709 -0.0409
 1226TIP3    H125169   1.023   2.675  11.822  0.3545 -0.6196  3.1240
 1226TIP3    H225170   1.114   2.796  11.830 -0.6234  0.2261  1.8868
 1227TIP3   OH225171   5.841   1.131   3.045  0.0695  0.0649  0.1512
 1227TIP3    H125172   5.811   1.223   3.046  0.4844  0.2089 -0.2634
 1227TIP3    H225173   5.784   1.087   3.108  0.4638  0.7916  1.0412
 1228TIP3   OH225174   3.490   3.627   5.355 -0.2835  0.0727 -0.8009
 1228TIP3    H125175   3.558   3.695   5.362 -0.6236  0.3062  0.5001
 1228TIP3    H225176   3.415   3.672   5.317  0.5490 -0.4279 -3.2823
 1229TIP3   OH225177   6.763   1.042   2.057 -0.0430  0.3819 -0.1078
 1229TIP3    H125178   6.692   0.997   2.011 -0.9719  0.7759  0.9057
 1229TIP3    H225179   6.769   1.127   2.014 -1.9440  1.3611  1.3710
 1230TIP3   OH225180   3.633   4.303  11.430  0.0989  0.7299 -0.9143
 1230TIP3    H125181   3.579   4.251  11.489  2.2435  1.0627  1.5099
 1230TIP3    H225182   3.623   4.260  11.345 -0.8180 -1.5938  0.2832
 1231TIP3   OH225183   1.965   3.981  16.491  0.5062 -0.2648  0.2760
 1231TIP3    H125184   2.026   4.024  16.430 -2.0441 -0.2421 -2.4704
 1231TIP3    H225185   1.959   4.042  16.564  4.5239 -0.7850  1.2924
 1232TIP3   OH225186   5.509   3.736   0.512  0.4088 -0.1743 -0.7526
 1232TIP3    H125187   5.472   3.785   0.586 -0.2481 -0.0140 -1.1799
 1232TIP3    H225188   5.598   3.770   0.504  0.4128 -0.0337 -0.1709
 1233TIP3   OH225189   0.130   2.750   1.695  0.2446  0.1641  0.0518
 1233TIP3    H125190   0.147   2.842   1.715 -0.2364  0.8013 -2.2031
 1233TIP3    H225191   0.205   2.722   1.643 -1.1604  0.3504 -2.2144
 1234TIP3   OH225192   4.021   2.497   2.304  0.6888 -0.1311  0.0622
 1234TIP3    H125193   4.022   2.404   2.327  1.3901 -0.7523 -2.2146
 1234TIP3    H225194   4.098   2.533   2.349 -0.6987 -0.1411  2.6016
 1235TIP3   OH225195   5.677   3.178  12.380 -0.1067 -0.2734  0.6595
 1235TIP3    H125196   5.589   3.189  12.416 -0.2498 -0.2996  0.3223
 1235TIP3    H225197   5.673   3.098  12.328 -0.4144  0.7100 -0.9097
 1236TIP3   OH225198   3.464   6.148   6.807  0.0944 -0.3210  0.2739
 1236TIP3    H125199   3.473   6.240   6.782 -0.8953  0.4323  2.4006
 1236TIP3    H225200   3.526   6.101   6.751  0.8938  1.6847 -0.6066
 1237TIP3   OH225201   6.140   2.214  12.007  0.2877  0.1137 -0.6857
 1237TIP3    H125202   6.052   2.234  11.976 -0.1156  0.1145  0.4134
 1237TIP3    H225203   6.196   2.222  11.930 -0.9510 -1.8707 -1.8725
 1238TIP3   OH225204   1.261   2.143   2.016  0.0752  1.0985  0.0325
 1238TIP3    H125205   1.188   2.082   2.017  2.0253 -1.4251  2.1030
 1238TIP3    H225206   1.331   2.096   1.972  1.6664  1.7280  1.7548
 1239TIP3   OH225207   4.249   1.528   5.974 -0.8509  0.1011  0.1719
 1239TIP3    H125208   4.300   1.589   6.026 -0.1670 -1.0430  0.8791
 1239TIP3    H225209   4.275   1.442   6.005  0.7577 -0.7517 -3.0591
 1240TIP3   OH225210   3.714   5.002   4.801  0.2741  0.1041  0.2866
 1240TIP3    H125211   3.623   4.999   4.772 -0.3643 -1.3666  2.2018
 1240TIP3    H225212   3.740   5.093   4.790 -2.7395  1.5607  3.3026
 1241TIP3   OH225213   6.576   4.300   3.860 -0.4732 -0.3123  0.1164
 1241TIP3    H125214   6.657   4.252   3.878 -0.8080 -0.4779  1.2751
 1241TIP3    H225215   6.547   4.267   3.775 -0.4728 -1.8830  0.6838
 1242TIP3   OH225216   6.062   1.120   2.885  0.2454  0.0365 -0.3301
 1242TIP3    H125217   6.118   1.058   2.932 -1.4366 -1.6595 -0.4153
 1242TIP3    H225218   5.995   1.145   2.949  0.7239  1.5928 -0.3925
 1243TIP3   OH225219   2.518   4.369   5.070  0.0226  0.5873  0.4366
 1243TIP3    H125220   2.510   4.421   4.990  0.0288  0.4912  0.3734
 1243TIP3    H225221   2.485   4.426   5.140 -1.7094  0.0285  0.1292
 1244TIP3   OH225222   1.904   2.502   3.594  0.0900  0.7789 -0.2192
 1244TIP3    H125223   1.947   2.506   3.508  1.5483  1.2983  0.5114
 1244TIP3    H225224   1.906   2.592   3.626 -1.8161  0.8713 -0.2618
 1245TIP3   OH225225   0.837   4.590  12.344  0.2499 -0.1884 -0.3021
 1245TIP3    H125226   0.906   4.564  12.283 -0.2091  0.2979 -1.0330
 1245TIP3    H225227   0.881   4.653  12.403  0.0199  1.5316 -1.8798
 1246TIP3   OH225228   3.514   0.777   1.037  0.3290  0.1249  0.1254
 1246TIP3    H125229   3.573   0.718   0.989  1.0373  0.5550  0.4576
 1246TIP3    H225230   3.469   0.720   1.099  1.5342  0.0174  0.9488
 1247TIP3   OH225231   6.721   1.404  13.195 -0.0989  0.7513  0.2439
 1247TIP3    H125232   6.692   1.376  13.282  0.9079  1.9499  1.0041
 1247TIP3    H225233   6.641   1.437  13.153 -1.3772 -3.0420 -0.7349
 1248TIP3   OH225234   1.891   5.829  15.719 -0.2729 -0.4382 -0.2724
 1248TIP3    H125235   1.938   5.833  15.802 -0.0720  3.3832 -0.4049
 1248TIP3    H225236   1.798   5.824  15.744 -0.2156  0.7451  0.2214
 1249TIP3   OH225237   2.138   3.662   3.873  0.2469  0.5093 -0.3123
 1249TIP3    H125238   2.164   3.648   3.782  1.3006 -0.1415  0.0742
 1249TIP3    H225239   2.208   3.623   3.925 -0.8131 -0.0100  0.7859
 1250TIP3   OH225240   6.220   2.122  14.175 -0.5552  0.0325 -0.0050
 1250TIP3    H125241   6.242   2.124  14.268  1.4376 -2.5928 -0.2873
 1250TIP3    H225242   6.130   2.088  14.171  0.2195 -2.3409  0.9881
 1251TIP3   OH225243   4.563   2.212  16.015  0.1845 -0.3202  0.2846
 1251TIP3    H125244   4.658   2.221  16.027  0.6301 -2.3550 -1.2304
 1251TIP3    H225245   4.531   2.179  16.099  1.2459 -2.0636  0.0493
 1252TIP3   OH225246   2.825   2.183  16.894 -0.4058 -0.2253  0.1767
 1252TIP3    H125247   2.808   2.273  16.923 -0.0481 -0.4167  1.0053
 1252TIP3    H225248   2.808   2.130  16.972  0.0489 -0.8123 -0.1227
 1253TIP3   OH225249   3.994   0.034  13.708 -0.5366 -0.1920  0.7998
 1253TIP3    H125250   3.952   0.120  13.709 -1.0360 -0.4363  1.1726
 1253TIP3    H225251   3.969  -0.006  13.792 -1.4802 -1.2517  0.0491
 1254TIP3   OH225252   4.808   2.675   3.800  0.3016 -0.0648 -0.2387
 1254TIP3    H125253   4.741   2.728   3.757 -1.2227 -1.3408  0.4629
 1254TIP3    H225254   4.798   2.695   3.893  0.0104 -1.1839 -0.0073
 1255TIP3   OH225255   0.793   0.037  11.262 -0.0814 -0.5126 -0.0287
 1255TIP3    H125256   0.865   0.065  11.206  0.1640 -2.1082 -0.5690
 1255TIP3    H225257   0.781   0.109  11.323  1.5196  0.0914 -0.3685
 1256TIP3   OH225258   6.554   2.016  14.215 -0.3869  0.0496 -0.1729
 1256TIP3    H125259   6.620   1.979  14.274  0.3142  1.6355  0.1038
 1256TIP3    H225260   6.605   2.057  14.145 -1.0650  1.1383 -0.0546
 1257TIP3   OH225261   0.080   0.227  11.997  0.4973 -0.7938 -0.3330
 1257TIP3    H125262   0.043   0.142  12.023 -0.7369  0.1435  1.1547
 1257TIP3    H225263   0.052   0.239  11.907 -0.9234 -1.1500  0.0401
 1258TIP3   OH225264   1.717   4.789   5.866  0.0646  0.0385  0.1248
 1258TIP3    H125265   1.677   4.841   5.796  1.1264 -1.5444 -1.7614
 1258TIP3    H225266   1.799   4.836   5.885  0.4132 -0.2141 -0.6749
 1259TIP3   OH225267   4.458   4.306   2.789 -0.1178  0.6681  0.2427
 1259TIP3    H125268   4.435   4.368   2.719  0.5752 -0.0086 -0.6152
 1259TIP3    H225269   4.403   4.332   2.863 -0.0834  2.1016 -0.1937
 1260TIP3   OH225270   4.922   3.688  15.059 -0.7105 -0.9167 -0.3179
 1260TIP3    H125271   4.959   3.602  15.039  0.5334 -0.5442  0.2853
 1260TIP3    H225272   4.829   3.679  15.040 -0.3228 -1.8480 -2.0690
 1261TIP3   OH225273   1.941   5.518  10.421 -0.2259  0.6368  0.0977
 1261TIP3    H125274   1.865   5.546  10.471  0.4152 -0.2115  1.6218
 1261TIP3    H225275   1.992   5.598  10.408 -0.4652  0.8971  0.7075
 1262TIP3   OH225276   2.592   3.231   5.371  0.2010  0.0276  0.5856
 1262TIP3    H125277   2.597   3.191   5.284  0.4690 -0.3302  0.7656
 1262TIP3    H225278   2.569   3.159   5.429  0.3862  0.1955  0.8660
 1263TIP3   OH225279   1.696   4.684   2.235 -0.2795 -0.2793  0.2975
 1263TIP3    H125280   1.620   4.731   2.272  1.5055  2.2869  0.9973
 1263TIP3    H225281   1.675   4.674   2.142 -0.6302  2.3839  0.0133
 1264TIP3   OH225282   4.243   2.589  13.183 -0.1475 -0.0612  0.8454
 1264TIP3    H125283   4.201   2.520  13.132 -1.2820  1.3329 -0.1832
 1264TIP3    H225284   4.210   2.670  13.145 -1.2545  1.0766  3.9502
 1265TIP3   OH225285   0.584   4.030   5.411  0.2546 -0.7365  0.7239
 1265TIP3    H125286   0.499   4.018   5.453  1.0665 -0.7364  2.4552
 1265TIP3    H225287   0.595   4.125   5.404  0.2816 -0.7297  0.8577
 1266TIP3   OH225288   6.523   1.309   4.682  0.7468  0.4329 -0.1211
 1266TIP3    H125289   6.468   1.383   4.655 -1.7617 -1.5328 -0.7922
 1266TIP3    H225290   6.462   1.236   4.690  2.9410 -1.3453  1.6073
 1267TIP3   OH225291   6.613   2.756  12.564 -0.0843  0.7238 -0.1392
 1267TIP3    H125292   6.602   2.729  12.473  2.0619 -0.4961 -0.0841
 1267TIP3    H225293   6.558   2.835  12.572 -1.6983 -0.1218 -1.9704
 1268TIP3   OH225294   3.924   5.298   2.933 -0.2001 -0.0535  0.4578
 1268TIP3    H125295   3.944   5.210   2.901 -2.1951 -0.0297 -0.9834
 1268TIP3    H225296   3.830   5.296   2.950 -0.1740  1.6553  0.9239
 1269TIP3   OH225297   1.504   2.317  16.612  0.5513 -0.4688  0.2533
 1269TIP3    H125298   1.597   2.339  16.617  0.2730  0.5072  2.9464
 1269TIP3    H225299   1.498   2.231  16.653  0.1409  0.0345  1.2732
 1270TIP3   OH225300   1.715   4.546  11.494 -0.8408 -0.1373 -0.0697
 1270TIP3    H125301   1.735   4.472  11.437 -0.6454 -0.2610  0.1574
 1270TIP3    H225302   1.703   4.506  11.581  1.1688  0.2782  0.4657
 1271TIP3   OH225303   4.596   5.690  12.434 -0.4903  0.0862  0.1507
 1271TIP3    H125304   4.578   5.778  12.468 -1.8264 -0.0549 -0.1397
 1271TIP3    H225305   4.583   5.698  12.340 -3.2961 -0.9598  0.3290
 1272TIP3   OH225306   2.616   5.990  11.732  0.1230  0.0690 -0.0959
 1272TIP3    H125307   2.667   5.909  11.740 -2.3197 -1.5244  0.5976
 1272TIP3    H225308   2.539   5.974  11.787 -0.6908  2.6938 -0.3846
 1273TIP3   OH225309   4.525   2.460  12.875 -0.0775  0.6950  0.0786
 1273TIP3    H125310   4.433   2.439  12.891  0.1611 -2.8389 -2.2435
 1273TIP3    H225311   4.530   2.477  12.781  1.8436 -0.9276 -0.1757
 1274TIP3   OH225312   4.665   0.256  11.656 -0.0537 -0.2011 -0.1643
 1274TIP3    H125313   4.597   0.191  11.673  1.7136 -1.3043  3.9060
 1274TIP3    H225314   4.618   0.339  11.644 -2.1530 -1.1481  1.1550
 1275TIP3   OH225315   0.854   2.840   3.911  0.1840 -0.3701 -0.2357
 1275TIP3    H125316   0.774   2.892   3.908  1.0873  1.0768 -0.0861
 1275TIP3    H225317   0.841   2.772   3.845 -0.9000  0.2214 -0.6580
 1276TIP3   OH225318   6.139   1.378   2.790 -0.0783 -0.2382  0.1651
 1276TIP3    H125319   6.096   1.296   2.811 -0.1647 -0.1993  0.1403
 1276TIP3    H225320   6.201   1.355   2.721 -0.6427 -0.1412 -0.3867
 1277TIP3   OH225321   0.665   1.410  16.926 -0.3013  0.5959  0.2674
 1277TIP3    H125322   0.606   1.472  16.883 -1.8613  1.2533  3.1282
 1277TIP3    H225323   0.748   1.458  16.934 -1.4327  2.3772  2.2818
 1278TIP3   OH225324   6.343   4.182  16.588  0.9554  0.3324  0.7211
 1278TIP3    H125325   6.334   4.225  16.503  0.2351 -0.8269  0.1925
 1278TIP3    H225326   6.396   4.243  16.640 -0.2264  1.9693  0.0984
 1279TIP3   OH225327   4.432   5.454   3.117  0.7157  0.0757  0.6652
 1279TIP3    H125328   4.349   5.447   3.070  0.0310 -2.3072  2.1134
 1279TIP3    H225329   4.426   5.537   3.165 -0.5300  0.2473  0.2361
 1280TIP3   OH225330   2.230   2.635  15.664 -0.8429  0.2985 -0.0471
 1280TIP3    H125331   2.260   2.725  15.667  1.0041 -0.2871  0.0282
 1280TIP3    H225332   2.283   2.594  15.596 -1.9638 -0.6450 -0.4047
 1281TIP3   OH225333   4.226   2.142  14.982 -0.4315  0.6409  0.2343
 1281TIP3    H125334   4.248   2.125  15.074  0.7345  2.8033  0.4360
 1281TIP3    H225335   4.304   2.115  14.934 -1.0920 -0.6165 -0.1841
 1282TIP3   OH225336   6.358   4.705  13.549 -0.3508 -0.0698 -0.2204
 1282TIP3    H125337   6.348   4.785  13.601  1.8481  0.8594 -1.1108
 1282TIP3    H225338   6.403   4.644  13.607  1.0085  0.5434 -0.6055
 1283TIP3   OH225339   1.278   1.165  11.432 -0.1731 -0.0100 -0.1410
 1283TIP3    H125340   1.298   1.175  11.525 -2.1712 -0.3654  0.3574
 1283TIP3    H225341   1.364   1.156  11.391  0.7148 -1.3267  1.8316
 1284TIP3   OH225342   0.865   6.395   4.446  0.1185  0.1379 -0.0754
 1284TIP3    H125343   0.899   6.435   4.526 -0.3067  1.3342 -0.4568
 1284TIP3    H225344   0.807   6.325   4.476  0.2880  0.2999  0.6447
 1285TIP3   OH225345   1.528   5.571  14.581 -0.1777 -0.2807  0.0336
 1285TIP3    H125346   1.588   5.605  14.647  1.5147 -0.4842 -1.3218
 1285TIP3    H225347   1.583   5.517  14.524 -1.6775 -0.5940 -1.1931
 1286TIP3   OH225348   3.014   4.493  12.559 -0.7007 -0.3586  0.5674
 1286TIP3    H125349   3.035   4.415  12.609 -1.2362 -1.7491 -1.2789
 1286TIP3    H225350   3.002   4.562  12.625  1.4606 -1.3953  2.1330
 1287TIP3   OH225351   2.889   2.201   2.060 -0.2141 -0.3132  0.0850
 1287TIP3    H125352   2.862   2.115   2.030 -1.2577  0.0046  0.0855
 1287TIP3    H225353   2.866   2.260   1.989 -1.1996  0.2133  0.8187
 1288TIP3   OH225354   0.158   2.494  14.422 -0.1529  0.0437  0.0996
 1288TIP3    H125355   0.229   2.470  14.481  1.0464  1.1334 -0.8510
 1288TIP3    H225356   0.089   2.430  14.440  0.5565 -0.2483  1.9520
 1289TIP3   OH225357   4.613   5.324  12.908  0.3151  0.3220  0.0090
 1289TIP3    H125358   4.607   5.412  12.871  1.3482  0.1934 -0.5042
 1289TIP3    H225359   4.523   5.292  12.910  0.0066  1.1498 -0.3861
 1290TIP3   OH225360   4.819   5.775   4.896 -0.0913 -0.2077  0.0097
 1290TIP3    H125361   4.867   5.692   4.898  0.4805  0.0586 -1.5347
 1290TIP3    H225362   4.841   5.813   4.811  0.1615  1.8363  0.9493
 1291TIP3   OH225363   1.320   1.559   2.968 -0.2667  0.4203  0.0447
 1291TIP3    H125364   1.336   1.533   3.058  0.0822  1.4322  0.2775
 1291TIP3    H225365   1.390   1.517   2.918  0.4164  1.0735  0.4454
 1292TIP3   OH225366   0.261   6.761  13.028  0.3305  0.0469 -0.1263
 1292TIP3    H125367   0.212   6.770  13.110  1.3461 -1.7263  0.7477
 1292TIP3    H225368   0.196   6.733  12.964 -0.3545  0.7532  0.2464
 1293TIP3   OH225369   4.957   3.976  15.930  0.8304 -0.8239  0.2702
 1293TIP3    H125370   4.936   3.923  16.007  1.7553 -1.0373  0.3877
 1293TIP3    H225371   4.981   3.912  15.863 -0.0666 -0.6436 -0.2399
 1294TIP3   OH225372   3.039   0.963  16.213  0.7349  0.5536 -0.5456
 1294TIP3    H125373   3.035   0.873  16.248  0.5533  1.1676  1.1106
 1294TIP3    H225374   2.967   0.967  16.150  2.2595 -1.1853 -2.5814
 1295TIP3   OH225375   0.499   4.966   4.325  0.1758 -0.5826  0.0500
 1295TIP3    H125376   0.504   4.909   4.402  0.7852  0.5044  0.8344
 1295TIP3    H225377   0.578   5.018   4.328 -0.0528 -0.1400 -1.0337
 1296TIP3   OH225378   4.978   2.911  11.186  0.3647 -0.6874  0.1392
 1296TIP3    H125379   5.032   2.960  11.123 -0.0183 -0.4555 -0.0112
 1296TIP3    H225380   5.028   2.832  11.204 -0.1487 -1.4315 -1.5215
 1297TIP3   OH225381   6.400   5.460   6.883 -0.2139  0.1986  0.3248
 1297TIP3    H125382   6.399   5.547   6.924 -2.0108  0.7002 -0.7046
 1297TIP3    H225383   6.457   5.408   6.940 -0.3212  1.6382  1.8271
 1298TIP3   OH225384   3.872   2.208  14.188  0.0942 -0.1751  0.2694
 1298TIP3    H125385   3.939   2.142  14.204 -0.3244 -0.0344  3.2512
 1298TIP3    H225386   3.853   2.244  14.275 -2.8002  0.7848 -0.6321
 1299TIP3   OH225387   6.594   3.964   2.053  0.8852  0.5548 -0.0683
 1299TIP3    H125388   6.628   4.039   2.102 -2.2595  0.8133  2.0458
 1299TIP3    H225389   6.628   3.888   2.099  1.0600  0.7388  0.1083
 1300TIP3   OH225390   2.161   5.910  13.380  0.3146  0.1501  0.1528
 1300TIP3    H125391   2.177   5.818  13.400  2.2999  0.3376 -0.3654
 1300TIP3    H225392   2.131   5.910  13.289 -0.6059 -0.0322  0.4428
 1301TIP3   OH225393   2.183   1.740  14.146 -0.2571  0.2565 -0.0656
 1301TIP3    H125394   2.276   1.730  14.164  0.0115 -0.2633 -1.6102
 1301TIP3    H225395   2.153   1.653  14.123 -0.9643  0.5635 -0.3554
 1302TIP3   OH225396   3.518   1.043   4.016  0.2179 -0.1550  0.0169
 1302TIP3    H125397   3.609   1.033   4.046  0.4039 -1.6852 -0.9612
 1302TIP3    H225398   3.525   1.040   3.920 -0.8746 -0.2378 -0.0621
 1303TIP3   OH225399   5.653   1.062   0.216  0.4086  0.9076 -0.7657
 1303TIP3    H125400   5.700   1.021   0.144  1.1347 -0.4547  0.4238
 1303TIP3    H225401   5.661   1.156   0.200  1.5766  0.6544 -1.8123
 1304TIP3   OH225402   5.511   6.504   3.124 -0.4251  1.0347  0.4558
 1304TIP3    H125403   5.423   6.520   3.089 -0.1983  0.5730 -0.3454
 1304TIP3    H225404   5.495   6.456   3.206 -0.8973 -0.5309 -0.4992
 1305TIP3   OH225405   6.479   2.800   4.290  0.7235 -0.3991 -0.3078
 1305TIP3    H125406   6.480   2.859   4.365 -1.2674 -0.7656  0.0516
 1305TIP3    H225407   6.410   2.834   4.233  0.9018 -1.2357 -1.0492
 1306TIP3   OH225408   4.604   3.836   3.790  0.6184  0.2136  0.0868
 1306TIP3    H125409   4.677   3.785   3.826  0.5101 -1.5712 -1.9723
 1306TIP3    H225410   4.543   3.846   3.863  1.8236 -0.3879  1.2204
 1307TIP3   OH225411   5.365   0.627  15.569 -0.0038 -0.0827 -0.1585
 1307TIP3    H125412   5.344   0.704  15.622 -0.5788  0.4448 -1.1216
 1307TIP3    H225413   5.458   0.610  15.587  0.0438  0.6356  0.3120
 1308TIP3   OH225414   4.500   0.528   3.563  0.7643 -0.1257  0.7623
 1308TIP3    H125415   4.443   0.461   3.602 -1.4575  0.5359 -1.0695
 1308TIP3    H225416   4.450   0.559   3.487  3.3376  1.0292 -0.5665
 1309TIP3   OH225417   5.020   0.181   3.124 -0.2859 -0.1757  0.1454
 1309TIP3    H125418   5.112   0.204   3.131  0.5744 -3.2215  0.3239
 1309TIP3    H225419   5.005   0.172   3.030  0.0735 -1.2033  0.1729
 1310TIP3   OH225420   4.585   3.264   4.020 -0.3412 -0.3372 -0.4173
 1310TIP3    H125421   4.556   3.226   3.938  0.6170  0.0436 -0.9462
 1310TIP3    H225422   4.511   3.252   4.080 -0.6313 -1.6100 -1.0089
 1311TIP3   OH225423   5.270   1.000  13.702 -0.1913 -0.0822 -0.0905
 1311TIP3    H125424   5.209   1.033  13.636  0.1720 -1.1694 -1.0098
 1311TIP3    H225425   5.226   1.017  13.786 -1.0849  0.4718 -0.6556
 1312TIP3   OH225426   1.907   1.044  12.474  0.7823 -0.0906  0.2014
 1312TIP3    H125427   1.875   0.968  12.522  1.6544 -1.6013 -1.4583
 1312TIP3    H225428   1.933   1.107  12.541  0.3509 -1.3966  1.6343
 1313TIP3   OH225429   4.799   2.157   5.694 -0.5536 -0.2787  0.1343
 1313TIP3    H125430   4.735   2.137   5.762 -2.1804 -0.6200 -1.4309
 1313TIP3    H225431   4.779   2.096   5.623  1.5150 -0.3850 -0.4301
 1314TIP3   OH225432   2.872   3.637  16.673  0.1462  0.6064 -0.1357
 1314TIP3    H125433   2.943   3.584  16.636 -0.7458 -2.5043  2.1412
 1314TIP3    H225434   2.793   3.605  16.628 -0.3231  0.6053  0.6736
 1315TIP3   OH225435   2.595   1.427  11.591 -0.1519 -0.2850 -0.3227
 1315TIP3    H125436   2.600   1.377  11.509  0.3143 -1.2023  0.2562
 1315TIP3    H225437   2.608   1.518  11.564  1.3855 -0.7008 -1.1312
 1316TIP3   OH225438   3.817   5.865   1.732  0.0479 -0.2565  0.2059
 1316TIP3    H125439   3.871   5.786   1.721 -0.9399 -1.7889  4.2984
 1316TIP3    H225440   3.863   5.916   1.799 -0.7122  1.3337 -0.4364
 1317TIP3   OH225441   5.205   6.632  11.004 -0.2429  0.3862 -0.1491
 1317TIP3    H125442   5.206   6.709  11.061  0.5791 -0.3762  0.8844
 1317TIP3    H225443   5.142   6.655  10.935  0.0595  2.0196  0.0780
 1318TIP3   OH225444   2.557   4.588  15.077 -0.2058 -0.6267  0.7135
 1318TIP3    H125445   2.511   4.595  15.161  1.6193  0.9222  1.6478
 1318TIP3    H225446   2.538   4.671  15.033  2.9052  0.8218  1.8447
 1319TIP3   OH225447   5.349   3.148   3.361 -0.4275 -0.0610 -0.6114
 1319TIP3    H125448   5.365   3.137   3.455 -1.5266 -1.7410 -0.5830
 1319TIP3    H225449   5.368   3.240   3.344  0.6999  0.0594  1.0687
 1320TIP3   OH225450   0.998   2.003   2.751  0.4428 -0.7546 -0.3702
 1320TIP3    H125451   1.065   2.062   2.784  0.8766 -1.1761 -0.4752
 1320TIP3    H225452   1.041   1.955   2.680 -0.3052 -0.2601 -1.1786
 1321TIP3   OH225453   0.948   4.065   5.295 -0.2755  0.4676 -0.2424
 1321TIP3    H125454   0.954   4.159   5.277  2.4158  0.3643 -0.2836
 1321TIP3    H225455   0.910   4.029   5.214  0.7013  1.2928 -1.1055
 1322TIP3   OH225456   2.880   3.919  15.324 -0.0160  0.6199 -0.0426
 1322TIP3    H125457   2.819   3.987  15.296 -0.1170 -0.1999 -1.9089
 1322TIP3    H225458   2.857   3.842  15.273  1.4192 -0.2310  0.5223
 1323TIP3   OH225459   3.918   6.639   3.514  0.1340  0.1658 -0.1423
 1323TIP3    H125460   3.915   6.734   3.530 -2.1426 -0.0275  1.0326
 1323TIP3    H225461   3.829   6.617   3.486  0.9636 -1.4637 -1.6713
 1324TIP3   OH225462   4.228   1.470  11.477 -0.6173  0.0727  0.3984
 1324TIP3    H125463   4.143   1.482  11.434 -0.5666 -0.7277  0.0499
 1324TIP3    H225464   4.276   1.551  11.457 -1.3993  0.6694  0.8664
 1325TIP3   OH225465   6.261   5.253  15.930 -0.6243  0.5615 -0.5080
 1325TIP3    H125466   6.282   5.310  16.003 -1.3905 -1.6042  1.5341
 1325TIP3    H225467   6.340   5.254  15.875 -0.0084  2.2003  0.3464
 1326TIP3   OH225468   3.652   2.171  16.349  0.5336 -0.2353  0.0809
 1326TIP3    H125469   3.590   2.166  16.277 -0.9995 -1.6123  1.4002
 1326TIP3    H225470   3.619   2.241  16.405  1.0392  0.0408  0.0432
 1327TIP3   OH225471   1.875   6.535   0.242  0.0133 -0.0880  0.8228
 1327TIP3    H125472   1.847   6.612   0.192 -0.0685  0.0560  1.0917
 1327TIP3    H225473   1.794   6.485   0.257 -0.2609  0.7618  2.3547
 1328TIP3   OH225474   4.902   3.632   3.814  0.1521 -0.3142 -0.1890
 1328TIP3    H125475   4.894   3.720   3.778  0.6183  0.1102  0.7182
 1328TIP3    H225476   4.953   3.643   3.894  1.6685 -1.6384 -0.9093
 1329TIP3   OH225477   3.139   0.636  11.398 -0.3416 -0.2075  0.4730
 1329TIP3    H125478   3.220   0.587  11.414 -0.6959 -0.6697  0.9077
 1329TIP3    H225479   3.080   0.571  11.360  0.0438  0.5460 -1.5447
 1330TIP3   OH225480   1.042   1.500  17.093  0.3945 -0.3155 -0.1449
 1330TIP3    H125481   1.000   1.575  17.051  1.0048  0.2377  0.2189
 1330TIP3    H225482   1.129   1.531  17.118  0.3589 -0.8932  0.7583
 1331TIP3   OH225483   6.813   3.118   0.012  0.0771  0.1515 -0.0119
 1331TIP3    H125484   6.838   3.155  -0.073 -1.2417  3.1369  0.7748
 1331TIP3    H225485   6.720   3.096   0.002 -0.0220  0.2886  0.5669
 1332TIP3   OH225486   2.876   3.351  15.864  0.7382  0.2856 -0.6581
 1332TIP3    H125487   2.923   3.303  15.932 -0.2952 -1.7895 -1.3462
 1332TIP3    H225488   2.848   3.432  15.907 -2.9663 -2.3990  2.6614
 1333TIP3   OH225489   3.359   1.101  16.581  0.5182  0.4295 -0.0141
 1333TIP3    H125490   3.357   1.010  16.552 -0.7223  0.4745 -0.1348
 1333TIP3    H225491   3.300   1.147  16.521 -1.6185  0.6523  2.0948
 1334TIP3   OH225492   5.989   4.554  14.074 -0.4418  0.1718 -0.4629
 1334TIP3    H125493   6.050   4.532  14.145 -0.5689 -0.2872 -0.4943
 1334TIP3    H225494   5.960   4.469  14.040 -0.5064  0.3922 -0.9589
 1335TIP3   OH225495   2.842   3.030  12.909  0.0727 -0.0072  0.3238
 1335TIP3    H125496   2.908   3.029  12.839  0.6122  0.8288  0.8121
 1335TIP3    H225497   2.759   3.046  12.863  0.6204  2.2559  0.0010
 1336TIP3   OH225498   0.333   0.017   0.021 -0.5115  0.1792  0.2959
 1336TIP3    H125499   0.340  -0.001  -0.072  0.9101 -0.4848  0.4930
 1336TIP3    H225500   0.250  -0.021   0.047 -0.1291 -1.1831 -0.3900
 1337TIP3   OH225501   2.721   0.804   3.548  0.3533  0.5987 -0.1875
 1337TIP3    H125502   2.724   0.711   3.569  1.2007  0.7383  0.3640
 1337TIP3    H225503   2.779   0.813   3.472 -1.1855  0.4019 -1.4409
 1338TIP3   OH225504   1.085   5.722   4.351 -0.2571  0.2148 -0.4607
 1338TIP3    H125505   1.013   5.673   4.311  1.2632 -2.5148 -0.1005
 1338TIP3    H225506   1.054   5.742   4.440 -0.4513 -1.2553 -0.1813
 1339TIP3   OH225507   0.518   3.184  12.496 -0.2934  0.2130  0.0027
 1339TIP3    H125508   0.467   3.264  12.478 -1.5828 -0.8549 -1.3792
 1339TIP3    H225509   0.452   3.117  12.514  0.5524 -1.2641 -1.9893
 1340TIP3   OH225510   3.463   1.605   1.289  1.0906  0.0074 -0.2229
 1340TIP3    H125511   3.503   1.585   1.204 -0.1810  1.2917 -1.1802
 1340TIP3    H225512   3.416   1.525   1.312  0.8812 -0.1405 -1.0953
 1341TIP3   OH225513   5.374   1.153   3.567 -0.5392 -0.0879  0.2835
 1341TIP3    H125514   5.383   1.221   3.634 -0.5461  0.6912 -0.4994
 1341TIP3    H225515   5.411   1.074   3.608 -1.7269  0.0482  1.6823
 1342TIP3   OH225516   3.016   4.308   5.355  0.4776  0.1201  0.5639
 1342TIP3    H125517   3.028   4.381   5.416 -2.1106  0.4401  0.8003
 1342TIP3    H225518   2.921   4.300   5.345  0.6911 -2.8366  0.0367
 1343TIP3   OH225519   2.917   0.864   5.452  0.0719  0.3546  0.2889
 1343TIP3    H125520   2.907   0.786   5.397 -1.1247 -0.0079  1.0048
 1343TIP3    H225521   2.840   0.918   5.432 -0.1914  0.3828  1.3570
 1344TIP3   OH225522   0.455   0.364   0.273 -0.0370  0.1524  0.9110
 1344TIP3    H125523   0.519   0.387   0.340 -0.3939 -0.7820  1.6018
 1344TIP3    H225524   0.466   0.430   0.205  0.4869  0.9883  1.7880
 1345TIP3   OH225525   1.111   4.901   0.451  0.5510 -0.9330  0.3693
 1345TIP3    H125526   1.032   4.955   0.456  1.1247  0.0273 -0.5496
 1345TIP3    H225527   1.111   4.866   0.362  0.2418 -2.4142  0.9164
 1346TIP3   OH225528   0.904   6.229  17.059 -0.2819  0.1398  0.3045
 1346TIP3    H125529   0.889   6.155  17.117  1.1941 -1.3845 -1.1428
 1346TIP3    H225530   0.993   6.259  17.081 -1.2108  2.2153  1.5693
 1347TIP3   OH225531   2.108   5.895  16.745  0.4867 -0.0763 -0.1793
 1347TIP3    H125532   2.013   5.892  16.758  0.3486 -0.5427 -1.1757
 1347TIP3    H225533   2.129   5.810  16.706  1.0405  0.6691 -1.5771
 1348TIP3   OH225534   0.148   1.333   2.655 -0.0888 -0.4080  0.3772
 1348TIP3    H125535   0.219   1.307   2.714 -0.0144 -0.0095  0.4693
 1348TIP3    H225536   0.073   1.280   2.683 -0.2898  0.3659  1.3945
 1349TIP3   OH225537   2.089   1.883  14.679 -0.2350  0.1955  0.4253
 1349TIP3    H125538   2.085   1.886  14.774 -0.4382 -1.6409  0.5086
 1349TIP3    H225539   2.039   1.805  14.655  0.0733  0.4509 -1.1583
 1350TIP3   OH225540   0.864   6.099   0.574 -0.5614 -0.0360 -0.7042
 1350TIP3    H125541   0.934   6.097   0.509 -1.9315 -1.1568 -2.2047
 1350TIP3    H225542   0.806   6.168   0.545 -0.1145  0.9205  0.5659
 1351TIP3   OH225543   6.724   2.160  11.990  0.1479 -0.2181  0.8697
 1351TIP3    H125544   6.675   2.171  12.071  0.8235 -0.7590  1.3618
 1351TIP3    H225545   6.710   2.068  11.966 -2.4037  0.5762 -1.2063
 1352TIP3   OH225546   3.381   1.495  16.366 -0.3750 -0.0335  0.1659
 1352TIP3    H125547   3.370   1.409  16.408 -0.7273 -0.1479 -0.1554
 1352TIP3    H225548   3.294   1.536  16.373 -0.9876 -0.8005 -2.1035
 1353TIP3   OH225549   1.892   4.561  11.879 -0.4572  0.8120 -0.0696
 1353TIP3    H125550   1.934   4.630  11.828 -0.7439  0.7229 -0.4356
 1353TIP3    H225551   1.882   4.598  11.967 -0.8404  1.3335 -0.3289
 1354TIP3   OH225552   1.684   1.013  14.968  0.1925 -0.0687 -0.1379
 1354TIP3    H125553   1.610   0.961  14.937  0.2770  0.0290 -0.5073
 1354TIP3    H225554   1.713   1.062  14.891  1.0178 -0.5532 -0.1515
 1355TIP3   OH225555   2.299   1.460  13.260  0.0362 -0.0946  0.7474
 1355TIP3    H125556   2.389   1.491  13.266 -0.2173  1.4246 -1.9092
 1355TIP3    H225557   2.254   1.502  13.335  1.4476 -0.7825  2.0287
 1356TIP3   OH225558   5.396   5.356   5.820  0.8519  0.1045 -1.0834
 1356TIP3    H125559   5.303   5.373   5.835  0.8748 -0.9190  0.4322
 1356TIP3    H225560   5.440   5.436   5.850  0.4818  0.5925 -1.8100
 1357TIP3   OH225561   3.192   6.498  12.113  0.0595  0.1663 -0.2277
 1357TIP3    H125562   3.154   6.557  12.178 -1.3629  1.3235 -1.9885
 1357TIP3    H225563   3.224   6.557  12.044 -1.6365 -1.0689 -2.1668
 1358TIP3   OH225564   4.716   1.746  12.984 -0.2602  0.1936  0.0485
 1358TIP3    H125565   4.659   1.692  13.039 -1.8517  1.3647 -0.3672
 1358TIP3    H225566   4.670   1.830  12.978  0.5200  0.5305 -1.9595
 1359TIP3   OH225567   4.593   5.654  16.472  0.0041  0.6323 -0.3269
 1359TIP3    H125568   4.502   5.683  16.466 -0.1758 -0.0864 -1.3488
 1359TIP3    H225569   4.602   5.590  16.401  0.6896 -0.9508  1.1401
 1360TIP3   OH225570   0.542   4.359  16.524 -0.0562 -0.5610 -0.1070
 1360TIP3    H125571   0.571   4.449  16.537  1.6801 -1.1646  0.5336
 1360TIP3    H225572   0.579   4.334  16.440  0.9755 -1.2089  0.5188
 1361TIP3   OH225573   5.502   1.229   3.115  0.1396 -0.4958 -0.0610
 1361TIP3    H125574   5.516   1.167   3.187  0.1078 -1.0613 -0.5356
 1361TIP3    H225575   5.410   1.252   3.121 -0.3478 -2.0048 -1.0501
 1362TIP3   OH225576   0.744   2.197  12.961  0.2971 -0.6008 -0.2916
 1362TIP3    H125577   0.661   2.236  12.933  1.1508  0.1891 -1.9383
 1362TIP3    H225578   0.726   2.103  12.968 -0.9108 -0.3480  0.1387
 1363TIP3   OH225579   0.815   2.464  12.955 -0.2492 -0.1544  0.2382
 1363TIP3    H125580   0.807   2.386  12.898 -0.9828  0.9197 -1.2000
 1363TIP3    H225581   0.754   2.447  13.027 -2.0289 -0.0613 -1.1464
 1364TIP3   OH225582   1.785   0.214   4.639  0.0649 -0.1090 -0.1121
 1364TIP3    H125583   1.778   0.297   4.591 -2.5032  0.7705  1.5978
 1364TIP3    H225584   1.846   0.232   4.710 -1.0567  0.5719  0.6934
 1365TIP3   OH225585   1.756   3.768  13.137  0.6145  1.0068  0.6473
 1365TIP3    H125586   1.821   3.709  13.099 -1.3218 -1.3803  0.7642
 1365TIP3    H225587   1.756   3.747  13.230  0.1618  1.4655  0.7576
 1366TIP3   OH225588   1.285   0.314  16.588 -0.2027 -0.1407  0.1427
 1366TIP3    H125589   1.326   0.248  16.532 -0.6717 -0.4324  0.1278
 1366TIP3    H225590   1.352   0.338  16.651 -0.1169 -0.8606  0.3327
 1367TIP3   OH225591   4.090   6.595  17.063  0.3293  0.4918 -0.3453
 1367TIP3    H125592   4.110   6.642  16.983 -0.9815 -0.1268 -1.0718
 1367TIP3    H225593   4.166   6.538  17.077  0.5771  0.6155 -1.1337
 1368TIP3   OH225594   5.889   1.994   5.576 -0.0806 -0.2750  0.0496
 1368TIP3    H125595   5.810   1.987   5.629  0.6385  1.7650  1.5339
 1368TIP3    H225596   5.956   1.947   5.627 -0.0543 -0.9400 -0.5903
 1369TIP3   OH225597   6.429   0.563   0.484 -0.5214 -0.2942  0.5628
 1369TIP3    H125598   6.514   0.526   0.508 -1.1286 -1.4772  0.9925
 1369TIP3    H225599   6.389   0.495   0.429 -1.6874 -0.2905  1.3862
 1370TIP3   OH225600   2.685   4.228  12.872  0.3353 -0.3230 -0.4939
 1370TIP3    H125601   2.657   4.216  12.963  0.3352 -1.8020 -0.6725
 1370TIP3    H225602   2.637   4.162  12.823  1.3030 -0.4067 -1.3698
 1371TIP3   OH225603   6.283   1.806  11.756  0.1843 -0.0764  0.2186
 1371TIP3    H125604   6.204   1.848  11.790 -1.7389 -1.4619 -2.1581
 1371TIP3    H225605   6.275   1.715  11.784  1.2284 -0.1299  0.3736
 1372TIP3   OH225606   5.890   0.097  16.552  0.6303  0.3045  0.2066
 1372TIP3    H125607   5.894   0.168  16.616 -1.2580 -1.2427  2.1867
 1372TIP3    H225608   5.890   0.017  16.604 -1.8028 -1.0190 -1.6160
 1373TIP3   OH225609   4.720   6.725  11.619  0.1055  0.4863  0.1080
 1373TIP3    H125610   4.655   6.757  11.557  0.9631 -0.2916 -1.2298
 1373TIP3    H225611   4.798   6.708  11.567  0.7109 -0.6593  1.3036
 1374TIP3   OH225612   3.414   2.034   3.856  0.9172  0.9670 -0.3638
 1374TIP3    H125613   3.470   2.063   3.783  2.0772  0.5786  0.3457
 1374TIP3    H225614   3.334   2.002   3.814  0.2652  3.5488 -1.2971
 1375TIP3   OH225615   1.192   3.788  15.441 -0.3262 -0.4784 -0.3560
 1375TIP3    H125616   1.284   3.765  15.451 -0.1428 -1.2004 -2.9014
 1375TIP3    H225617   1.190   3.884  15.441  1.0008 -0.3333 -3.5469
 1376TIP3   OH225618   5.211   0.619   4.993  0.3839  0.5298  0.7246
 1376TIP3    H125619   5.240   0.622   4.902 -0.2784  1.7184  0.5329
 1376TIP3    H225620   5.271   0.557   5.035  0.8581  0.1549 -0.4552
 1377TIP3   OH225621   0.430   6.656  16.067  0.1205  0.2149  0.2674
 1377TIP3    H125622   0.429   6.696  16.153 -0.8866  1.3516 -0.2501
 1377TIP3    H225623   0.519   6.622  16.057  0.4493  0.7073  1.4491
 1378TIP3   OH225624   2.185   5.400  16.196 -0.2286  0.6691  0.0665
 1378TIP3    H125625   2.275   5.432  16.185  0.6409 -2.1326 -1.8139
 1378TIP3    H225626   2.132   5.480  16.200  2.1554  2.3801 -0.3042
 1379TIP3   OH225627   2.463   3.246  15.132  0.0100  0.3004 -0.1932
 1379TIP3    H125628   2.392   3.204  15.084  0.0234  2.0166 -1.7936
 1379TIP3    H225629   2.527   3.176  15.145 -1.2709 -0.8927 -0.0815
 1380TIP3   OH225630   4.672   1.969  13.635 -0.3763  0.6293  0.0201
 1380TIP3    H125631   4.721   1.887  13.627 -0.0573  0.8227  0.0014
 1380TIP3    H225632   4.621   1.958  13.715 -1.4143 -0.1593 -0.7092
 1381TIP3   OH225633   1.312   6.175  13.120 -0.6436 -0.5119 -0.3818
 1381TIP3    H125634   1.323   6.089  13.081 -0.6824 -1.6839  1.9892
 1381TIP3    H225635   1.400   6.214  13.119 -0.3150 -1.2242 -0.1365
 1382TIP3   OH225636   6.633   3.125   3.547 -0.4735  0.2460  0.0282
 1382TIP3    H125637   6.601   3.168   3.468 -0.7976 -0.3976 -0.2005
 1382TIP3    H225638   6.585   3.168   3.618 -1.1766 -0.0808 -0.2400
 1383TIP3   OH225639   0.460   0.549  15.571 -0.4073 -0.3224  0.3872
 1383TIP3    H125640   0.500   0.484  15.513 -1.5628 -0.2619 -0.5118
 1383TIP3    H225641   0.376   0.510  15.596 -1.2995  1.0002 -0.5037
 1384TIP3   OH225642   1.294   3.074   4.146 -0.1492  0.2086  1.1656
 1384TIP3    H125643   1.253   3.030   4.072  1.4889  0.2440  0.2058
 1384TIP3    H225644   1.254   3.034   4.223  0.0434 -1.7340  0.3001
 1385TIP3   OH225645   4.911   4.627  12.369 -0.3945  0.8929  0.1577
 1385TIP3    H125646   4.828   4.609  12.413 -0.3548  1.5797  0.5287
 1385TIP3    H225647   4.946   4.541  12.348 -1.2901  0.5913 -0.1773
 1386TIP3   OH225648   5.495   2.720  14.353  0.9960  0.0032  0.0759
 1386TIP3    H125649   5.554   2.792  14.330  1.5564 -0.2621  0.6534
 1386TIP3    H225650   5.465   2.687  14.269  0.8289  0.8270 -0.2013
 1387TIP3   OH225651   0.095   1.200   2.227  0.6261 -0.2147 -0.5057
 1387TIP3    H125652   0.040   1.189   2.149  1.7462 -1.0946 -1.2209
 1387TIP3    H225653   0.072   1.286   2.261 -1.2853 -0.6144 -0.6639
 1388TIP3   OH225654   1.776   5.323  11.787 -0.4260 -0.7797 -0.1513
 1388TIP3    H125655   1.712   5.304  11.719 -2.5131  0.3952  1.3645
 1388TIP3    H225656   1.815   5.407  11.761 -2.8035  0.8104  1.0758
 1389TIP3   OH225657   3.285   5.676  11.984  0.2344 -0.7212  0.4204
 1389TIP3    H125658   3.241   5.595  11.959 -2.2866  1.2104 -1.9211
 1389TIP3    H225659   3.233   5.711  12.056 -0.0393 -0.0865 -0.0813
 1390TIP3   OH225660   5.822   2.687  11.141  0.1490 -0.2887 -0.1421
 1390TIP3    H125661   5.879   2.763  11.137  0.3988 -0.4788 -0.2175
 1390TIP3    H225662   5.742   2.718  11.184  0.9053 -0.4085  1.4145
 1391TIP3   OH225663   4.214   2.999   1.691  0.0323 -0.1843 -0.2658
 1391TIP3    H125664   4.196   2.994   1.785  1.2785  0.2745  0.0220
 1391TIP3    H225665   4.309   2.991   1.684 -0.0373 -0.2226 -1.4986
 1392TIP3   OH225666   1.347   1.783   5.673  0.8080 -0.0275 -0.3530
 1392TIP3    H125667   1.294   1.708   5.698  0.0351  0.8672  0.7741
 1392TIP3    H225668   1.420   1.746   5.624 -0.3193 -1.3809 -1.0935
 1393TIP3   OH225669   2.464   3.517  11.762  0.0515 -0.0096 -0.1333
 1393TIP3    H125670   2.471   3.544  11.670 -0.5218  1.4597  0.2248
 1393TIP3    H225671   2.414   3.588  11.803  0.0618 -0.7921  1.2542
 1394TIP3   OH225672   4.777   4.313  13.463 -0.2746  0.2538 -0.0435
 1394TIP3    H125673   4.748   4.321  13.372  1.9614  1.7690 -0.7004
 1394TIP3    H225674   4.785   4.218  13.477 -2.0886 -0.0676 -0.8985
 1395TIP3   OH225675   4.349   5.869   1.028 -0.2617 -0.3403  0.1725
 1395TIP3    H125676   4.385   5.817   0.956  0.5992  0.3733  0.0739
 1395TIP3    H225677   4.425   5.911   1.068 -0.9344  0.8540  0.2522
 1396TIP3   OH225678   3.990   3.128  16.418  0.5464 -0.2592 -0.0822
 1396TIP3    H125679   3.959   3.039  16.431 -0.7206  0.4769  2.7703
 1396TIP3    H225680   3.912   3.177  16.389  0.7165  0.2898  0.3670
 1397TIP3   OH225681   4.673   2.155   0.215  0.0384  0.2399  0.0735
 1397TIP3    H125682   4.691   2.240   0.256  1.3519  0.2650 -0.5374
 1397TIP3    H225683   4.676   2.172   0.121 -1.5074 -0.1317 -0.0786
 1398TIP3   OH225684   2.930   0.421  10.729  0.3717  0.1231  0.3753
 1398TIP3    H125685   3.007   0.391  10.681  1.0909 -2.1166  2.7181
 1398TIP3    H225686   2.859   0.419  10.665  1.5880 -1.2150 -0.9992
 1399TIP3   OH225687   1.424   0.716   5.997 -0.3119  0.1963 -1.0833
 1399TIP3    H125688   1.431   0.670   5.913  0.1844 -1.7305 -0.0296
 1399TIP3    H225689   1.408   0.647   6.061 -0.6270  1.6242  0.4342
 1400TIP3   OH225690   1.518   3.861   0.563  0.1198  0.1406  0.3945
 1400TIP3    H125691   1.564   3.778   0.578  1.2731  0.9680  1.7365
 1400TIP3    H225692   1.560   3.922   0.624 -1.5785  1.3927  0.3579
 1401TIP3   OH225693   4.488   2.604  13.330 -0.0254 -0.2693  0.1355
 1401TIP3    H125694   4.451   2.579  13.415 -1.4021  0.1561 -0.3021
 1401TIP3    H225695   4.414   2.598  13.269  1.1546 -1.5689 -1.2666
 1402TIP3   OH225696   1.346   1.119  12.547 -0.2237  0.0196  0.2645
 1402TIP3    H125697   1.272   1.069  12.514 -0.7221  0.3596  0.8340
 1402TIP3    H225698   1.423   1.065  12.527 -0.6127 -0.2902 -0.4181
 1403TIP3   OH225699   1.019   5.230   4.776  0.7235 -0.1396 -0.5305
 1403TIP3    H125700   0.952   5.186   4.829  1.0172 -2.0930 -1.6779
 1403TIP3    H225701   0.969   5.291   4.721  0.3871  1.6927  1.6601
 1404TIP3   OH225702   2.007   2.516  15.541 -0.2918  0.4666 -0.2069
 1404TIP3    H125703   2.002   2.420  15.544  0.6199  0.4163  0.7293
 1404TIP3    H225704   2.077   2.537  15.603  1.0210  1.6150 -1.9713
 1405TIP3   OH225705   4.798   2.811  12.010  0.9326  0.8642 -0.2308
 1405TIP3    H125706   4.793   2.895  11.964 -1.1597  1.6103  1.2081
 1405TIP3    H225707   4.709   2.797  12.044  1.6420 -1.1296  0.9716
 1406TIP3   OH225708   2.115   6.024  17.130  0.1770 -0.0481  0.3637
 1406TIP3    H125709   2.204   6.027  17.163  0.1418 -0.3727  0.4939
 1406TIP3    H225710   2.061   6.057  17.202  0.0849 -0.8965  0.7024
 1407TIP3   OH225711   4.913   1.976  12.653 -0.4498 -0.2103 -0.1902
 1407TIP3    H125712   4.843   2.040  12.641 -1.2143 -0.6531  1.5504
 1407TIP3    H225713   4.897   1.909  12.586 -0.7954  0.4442 -0.7639
 1408TIP3   OH225714   5.167   0.297  16.393 -0.3847  0.2254  0.5896
 1408TIP3    H125715   5.104   0.246  16.444 -1.6205  2.9218  1.9396
 1408TIP3    H225716   5.250   0.283  16.438 -0.5086 -1.2641  0.3942
 1409TIP3   OH225717   1.607   5.533   5.937 -0.5112  0.2665 -0.4583
 1409TIP3    H125718   1.590   5.598   5.869  1.4296  1.5398  0.1928
 1409TIP3    H225719   1.619   5.584   6.017 -0.3161 -0.9983  0.3432
 1410TIP3   OH225720   0.719   4.628  15.462 -0.7467  0.4349 -0.4368
 1410TIP3    H125721   0.784   4.655  15.397  2.3655 -3.0122  0.8770
 1410TIP3    H225722   0.724   4.696  15.529  1.2856  0.5211 -0.5955
 1411TIP3   OH225723   6.811   6.740   5.061  0.2071  0.1312 -0.3240
 1411TIP3    H125724   6.820   6.788   4.978 -0.0043  0.6627 -0.0478
 1411TIP3    H225725   6.758   6.663   5.038  2.4639 -1.2389 -1.2552
 1412TIP3   OH225726   3.125   0.277  13.892 -0.1028  1.2952 -0.2398
 1412TIP3    H125727   3.169   0.238  13.816 -1.8735  0.0823 -0.7031
 1412TIP3    H225728   3.043   0.229  13.899 -1.5248  3.6484  0.3965
 1413TIP3   OH225729   1.785   0.470   1.679  0.6026  0.4646  0.4158
 1413TIP3    H125730   1.849   0.438   1.615  0.2370  0.1834  0.1861
 1413TIP3    H225731   1.804   0.421   1.758  1.0581  0.8143  0.5295
 1414TIP3   OH225732   6.651   4.548  17.207  0.0780  0.5202 -0.0189
 1414TIP3    H125733   6.600   4.502  17.140  0.8157 -0.0775 -0.1992
 1414TIP3    H225734   6.692   4.621  17.159  0.1941  0.3975 -0.1111
 1415TIP3   OH225735   0.094   4.625  16.647  0.0376 -0.2718 -0.0432
 1415TIP3    H125736   0.120   4.547  16.598  0.5658 -0.0281 -0.1623
 1415TIP3    H225737   0.114   4.604  16.738  2.6284  0.6324 -0.3031
 1416TIP3   OH225738   1.095   6.281   5.673 -0.3475  0.5937 -0.3083
 1416TIP3    H125739   1.164   6.233   5.718  1.4424  0.2226 -3.1718
 1416TIP3    H225740   1.104   6.371   5.704  0.0808  0.1689  0.8467
 1417TIP3   OH225741   2.824   2.769   1.637  0.5657  0.4816  0.7215
 1417TIP3    H125742   2.826   2.689   1.585  0.0296 -0.2329  1.7654
 1417TIP3    H225743   2.866   2.746   1.720 -0.2263  1.0626  1.3051
 1418TIP3   OH225744   4.469   2.369   4.553  0.1752 -0.3065 -0.1098
 1418TIP3    H125745   4.394   2.378   4.494  0.1416 -0.6037 -0.1155
 1418TIP3    H225746   4.545   2.377   4.495  0.1431 -0.4532 -0.1745
 1419TIP3   OH225747   6.655   2.005   2.107 -0.0488  0.3854 -0.3939
 1419TIP3    H125748   6.662   2.020   2.013  1.0410  1.0454 -0.2252
 1419TIP3    H225749   6.604   2.080   2.140 -0.3671  0.1927 -0.4421
 1420TIP3   OH225750   3.118   4.824   0.884  0.3716 -0.6674  0.6875
 1420TIP3    H125751   3.123   4.806   0.790 -2.1873 -0.6611  0.4779
 1420TIP3    H225752   3.185   4.768   0.923  0.6933 -1.5477 -1.0473
 1421TIP3   OH225753   1.777   1.507  13.857  0.3088  0.2859  0.3649
 1421TIP3    H125754   1.795   1.535  13.768  2.1242 -0.0972  0.5701
 1421TIP3    H225755   1.685   1.529  13.872 -0.1026  0.0991 -1.6790
 1422TIP3   OH225756   3.565   6.819   2.632  0.0907  0.2064  0.5388
 1422TIP3    H125757   3.604   6.906   2.624 -0.1680  0.1419 -2.2537
 1422TIP3    H225758   3.476   6.829   2.599 -0.2733 -0.9162  1.1220
 1423TIP3   OH225759   0.714   5.113  14.647 -0.4005 -0.5847  0.4684
 1423TIP3    H125760   0.634   5.151  14.612  0.4356  0.1139 -0.7699
 1423TIP3    H225761   0.752   5.065  14.574  0.6840 -0.2685  0.8075
 1424TIP3   OH225762   2.429   0.719  15.791  0.2450 -0.1894 -0.4532
 1424TIP3    H125763   2.336   0.740  15.797 -0.0829 -1.5468 -0.3809
 1424TIP3    H225764   2.446   0.712  15.697  0.4819  0.8964 -0.4947
 1425TIP3   OH225765   2.020   2.489  13.592  0.6106 -0.1273 -0.6379
 1425TIP3    H125766   1.932   2.498  13.629  1.4747  1.0532  1.3211
 1425TIP3    H225767   2.019   2.542  13.513  0.4254  2.7915  1.1645
 1426TIP3   OH225768   1.930   6.661   4.425 -0.4247  0.2504 -0.6766
 1426TIP3    H125769   2.008   6.714   4.409 -1.7731  2.4421 -0.4933
 1426TIP3    H225770   1.932   6.594   4.357  1.3337  0.5777 -0.9809
 1427TIP3   OH225771   3.413   3.243  11.496 -0.7299 -0.9882  0.0522
 1427TIP3    H125772   3.485   3.187  11.469 -1.2268 -2.3570  1.4413
 1427TIP3    H225773   3.371   3.196  11.568 -2.8861 -0.1489 -0.5641
 1428TIP3   OH225774   5.684   4.132   0.590 -0.0217 -0.9258 -0.0059
 1428TIP3    H125775   5.648   4.195   0.653 -0.8788 -0.8856 -0.5264
 1428TIP3    H225776   5.730   4.068   0.644 -0.1465 -0.4996  0.6123
 1429TIP3   OH225777   0.423   1.619   0.257  0.2164  0.1373 -0.4656
 1429TIP3    H125778   0.460   1.580   0.178 -0.9222 -0.3787 -0.7621
 1429TIP3    H225779   0.359   1.683   0.226 -2.0799 -1.8173 -0.0440
 1430TIP3   OH225780   0.941   0.609  11.633 -0.3364 -0.0616 -0.2516
 1430TIP3    H125781   1.028   0.602  11.594  0.6414 -3.0458  2.0906
 1430TIP3    H225782   0.886   0.554  11.578  0.1458 -1.1248  0.2974
 1431TIP3   OH225783   0.589   3.089   4.157  0.1897 -0.3327  0.0612
 1431TIP3    H125784   0.606   3.049   4.071  2.1107 -1.0842  0.7313
 1431TIP3    H225785   0.573   3.182   4.137 -0.4835 -0.6917 -1.1853
 1432TIP3   OH225786   1.700   5.017  11.738  0.7381  0.2010  0.0062
 1432TIP3    H125787   1.735   5.098  11.701  1.0156  0.1664  0.1873
 1432TIP3    H225788   1.700   4.955  11.665  0.1732  0.4720 -0.2266
 1433TIP3   OH225789   0.667   1.410  14.048  0.1566  0.0727 -0.0191
 1433TIP3    H125790   0.628   1.334  14.005  1.5170 -0.3699 -0.5284
 1433TIP3    H225791   0.667   1.478  13.981 -0.0673  0.1854  0.0948
 1434TIP3   OH225792   3.910   6.306  15.573  0.1921 -0.9469  0.1890
 1434TIP3    H125793   3.841   6.317  15.639  0.5502 -0.9260  0.5630
 1434TIP3    H225794   3.874   6.347  15.494  0.5757  0.9255  0.9263
 1435TIP3   OH225795   3.800   4.118   3.031 -0.9572 -0.1438 -0.4151
 1435TIP3    H125796   3.755   4.126   3.115 -1.1173 -1.5308 -0.3419
 1435TIP3    H225797   3.732   4.139   2.966 -1.3903 -0.9694 -0.2523
 1436TIP3   OH225798   4.831   0.800   3.217 -0.0002  0.4956  0.8285
 1436TIP3    H125799   4.741   0.820   3.190  0.2358  0.2142 -0.2418
 1436TIP3    H225800   4.835   0.704   3.216  0.5339  0.5206  0.0571
 1437TIP3   OH225801   0.225   5.515  11.680 -0.7537 -0.1478 -0.2747
 1437TIP3    H125802   0.256   5.547  11.764 -1.5342  0.5942 -0.2535
 1437TIP3    H225803   0.257   5.579  11.616 -1.3432  0.0587 -0.3695
 1438TIP3   OH225804   2.284   5.688  12.555  0.0984  0.0699  0.1508
 1438TIP3    H125805   2.288   5.660  12.646  0.6356 -2.7047 -0.6347
 1438TIP3    H225806   2.233   5.769  12.557  0.4880  0.3402  2.9386
 1439TIP3   OH225807   2.720   4.754  10.732  0.2786  0.3946 -0.4645
 1439TIP3    H125808   2.759   4.668  10.744  0.6144  0.8485  2.3231
 1439TIP3    H225809   2.794   4.814  10.734 -0.0390  0.8486 -1.4757
 1440TIP3   OH225810   6.418   5.405  15.482 -0.1688 -0.1596 -0.0389
 1440TIP3    H125811   6.496   5.370  15.439 -0.0398 -0.5253  0.4811
 1440TIP3    H225812   6.392   5.336  15.543 -0.7765  0.0496 -0.0588
 1441TIP3   OH225813   5.309   6.779   1.556  0.0721  0.4369  0.7163
 1441TIP3    H125814   5.282   6.824   1.635 -0.9896 -0.1763  0.7248
 1441TIP3    H225815   5.240   6.713   1.541  1.6573 -1.3282  0.8283
 1442TIP3   OH225816   4.502   6.560   5.437 -0.3369 -0.2078 -0.0582
 1442TIP3    H125817   4.557   6.482   5.425  2.9386  1.5150  2.0530
 1442TIP3    H225818   4.466   6.550   5.525  0.0002  0.5318  0.1763
 1443TIP3   OH225819   1.104   0.211  12.859 -0.2765  0.8861 -0.3273
 1443TIP3    H125820   1.025   0.263  12.869  0.5769  1.9254  1.4255
 1443TIP3    H225821   1.077   0.122  12.878 -1.5974  0.6958 -2.6208
 1444TIP3   OH225822   6.592   5.641   5.920  0.4040  0.3736  0.2676
 1444TIP3    H125823   6.652   5.665   5.848  0.6306  0.2772  0.4238
 1444TIP3    H225824   6.540   5.569   5.885 -0.3260  1.1153 -0.2333
 1445TIP3   OH225825   6.226   3.837   4.408  0.4443 -0.1072 -0.0622
 1445TIP3    H125826   6.260   3.747   4.411  2.1389  0.5178  1.6222
 1445TIP3    H225827   6.269   3.877   4.333  0.5655 -0.4018 -0.1508
 1446TIP3   OH225828   0.339   1.746  14.348 -0.8225 -1.1355 -0.2058
 1446TIP3    H125829   0.359   1.742  14.441  1.8453 -0.3271 -0.6706
 1446TIP3    H225830   0.408   1.694  14.306 -0.8395  0.0720 -1.8438
 1447TIP3   OH225831   3.020   6.299   2.203 -0.7892  1.0119 -0.6222
 1447TIP3    H125832   3.048   6.334   2.119 -1.8139  2.4002 -0.4111
 1447TIP3    H225833   2.950   6.237   2.181  0.3198 -0.1964 -0.9110
 1448TIP3   OH225834   3.973   0.638   5.862 -0.0602 -0.8359 -0.0743
 1448TIP3    H125835   3.945   0.675   5.778  0.6403 -2.4802 -1.0737
 1448TIP3    H225836   3.985   0.545   5.845  0.8130 -1.0883  1.6701
 1449TIP3   OH225837   3.104   1.827   3.110  0.4031 -0.0041 -0.3119
 1449TIP3    H125838   3.117   1.753   3.170  0.6067  0.7308  0.5677
 1449TIP3    H225839   3.009   1.828   3.094 -0.0374  1.2630  1.9703
 1450TIP3   OH225840   2.585   1.164   0.398  0.3355  0.0094  0.6799
 1450TIP3    H125841   2.597   1.192   0.307 -0.8056  0.0694  0.5395
 1450TIP3    H225842   2.505   1.112   0.397  0.8323 -0.8021  1.4834
 1451TIP3   OH225843   5.578   6.099   3.902 -0.2151  0.5076  0.3375
 1451TIP3    H125844   5.493   6.072   3.868  0.4229  0.4531 -1.2768
 1451TIP3    H225845   5.558   6.141   3.986 -1.7134 -0.4213  0.4765
 1452TIP3   OH225846   3.025   6.599  11.713 -0.1640  0.1261  0.2448
 1452TIP3    H125847   2.930   6.590  11.707 -0.0058 -1.0499 -0.7740
 1452TIP3    H225848   3.054   6.518  11.754  0.3372  0.9096  1.4977
 1453TIP3   OH225849   0.783   0.406   4.034 -0.1656 -0.0478  0.3153
 1453TIP3    H125850   0.817   0.324   3.999  0.6966 -0.0880  1.2069
 1453TIP3    H225851   0.855   0.442   4.086 -1.3808  0.0262  2.0277
 1454TIP3   OH225852   5.824   4.311  11.232  0.0587  0.0261  0.1360
 1454TIP3    H125853   5.886   4.254  11.188 -0.2325 -0.7895  0.7534
 1454TIP3    H225854   5.806   4.381  11.169  3.0142  1.3679  0.6054
 1455TIP3   OH225855   0.858   5.512  13.684 -0.0735  0.1189 -0.6451
 1455TIP3    H125856   0.909   5.593  13.692 -2.2702  1.8884 -2.9996
 1455TIP3    H225857   0.917   5.443  13.717  2.7866  2.3254 -0.7795
 1456TIP3   OH225858   4.526   5.983   4.644 -0.0820  0.7291 -0.0700
 1456TIP3    H125859   4.465   5.995   4.571  0.7263  0.0873 -0.8753
 1456TIP3    H225860   4.601   5.937   4.605  0.8262  1.3166  0.9379
 1457TIP3   OH225861   1.395   4.045   5.530 -0.3503  0.2724  0.1009
 1457TIP3    H125862   1.307   4.012   5.548  0.0316 -0.4837  0.6189
 1457TIP3    H225863   1.441   3.972   5.489  0.0449  0.6551 -0.1553
 1458TIP3   OH225864   5.644   1.724   1.766  0.3320 -0.2691  0.5580
 1458TIP3    H125865   5.639   1.637   1.806 -0.8978 -0.7839 -0.6299
 1458TIP3    H225866   5.682   1.708   1.680  0.1817  0.3825  0.3669
 1459TIP3   OH225867   1.387   6.271  13.492  0.2921  0.7363 -0.2898
 1459TIP3    H125868   1.334   6.191  13.495 -0.7184  1.3509 -0.8375
 1459TIP3    H225869   1.476   6.241  13.479 -0.0652 -0.3101 -0.3932
 1460TIP3   OH225870   6.135   5.316   6.414 -0.8598 -0.4986  0.0040
 1460TIP3    H125871   6.142   5.341   6.506 -2.1856  2.5624 -0.5934
 1460TIP3    H225872   6.225   5.294   6.388  0.1457  1.7157  1.2837
 1461TIP3   OH225873   1.781   3.526   0.928 -0.0101 -0.6417 -0.3196
 1461TIP3    H125874   1.869   3.501   0.901  0.5776  0.4583  0.4652
 1461TIP3    H225875   1.781   3.512   1.023 -0.1437  0.7915 -0.0785
 1462TIP3   OH225876   3.841   1.051  15.670  0.1246  0.1532  0.0646
 1462TIP3    H125877   3.844   1.104  15.590 -0.1101  1.5326  0.9308
 1462TIP3    H225878   3.933   1.041  15.695  0.1302  1.3178  0.6000
 1463TIP3   OH225879   0.177   4.424  11.006 -0.3328  0.3650  0.4061
 1463TIP3    H125880   0.173   4.332  11.033  0.3838  0.1198 -0.2816
 1463TIP3    H225881   0.270   4.447  11.013 -0.5773  1.1878  1.0410
 1464TIP3   OH225882   5.644   0.593  12.047  0.3315  0.3909  0.1244
 1464TIP3    H125883   5.730   0.593  12.089 -0.0440 -0.8874  0.9591
 1464TIP3    H225884   5.662   0.570  11.956  0.8048 -0.8052  0.4988
 1465TIP3   OH225885   0.510   2.699   5.773 -0.5364  0.0756  0.5629
 1465TIP3    H125886   0.430   2.654   5.801 -0.9305  1.7496  2.3397
 1465TIP3    H225887   0.573   2.683   5.843  0.8007 -1.3284 -0.8763
 1466TIP3   OH225888   1.372   6.574  16.572 -0.4495 -0.2300 -0.0124
 1466TIP3    H125889   1.376   6.604  16.662 -0.7849 -0.7048  0.1684
 1466TIP3    H225890   1.445   6.513  16.563 -0.3094 -0.0478 -0.1160
 1467TIP3   OH225891   1.763   4.398  16.255  0.3585 -0.0830 -0.1884
 1467TIP3    H125892   1.809   4.432  16.331  1.1610 -1.1784 -0.1617
 1467TIP3    H225893   1.682   4.362  16.289  0.5505 -0.2420  0.0984
 1468TIP3   OH225894   4.360   1.135  13.030 -0.2388 -0.0744 -0.1602
 1468TIP3    H125895   4.441   1.135  12.980 -0.6283  1.7217 -0.8688
 1468TIP3    H225896   4.386   1.107  13.118  0.8161 -1.2665 -0.8278
 1469TIP3   OH225897   5.273   3.550  14.891 -0.3920 -0.2485  0.0683
 1469TIP3    H125898   5.363   3.517  14.888  0.4009  1.7603  0.1698
 1469TIP3    H225899   5.221   3.474  14.919  1.2265 -1.4964 -0.1257
 1470TIP3   OH225900   3.736   0.755   5.233 -0.0244 -0.0144  0.2507
 1470TIP3    H125901   3.651   0.753   5.277  0.5819 -1.2298  1.4753
 1470TIP3    H225902   3.757   0.662   5.219 -0.0703  0.2987 -2.4781
 1471TIP3   OH225903   3.864   0.635  16.028 -0.8837 -0.0443  0.1010
 1471TIP3    H125904   3.840   0.622  15.936 -0.5188  0.1280 -0.0225
 1471TIP3    H225905   3.856   0.729  16.041  0.9294  0.2101 -0.3069
 1472TIP3   OH225906   5.297   3.779  14.385 -0.5223  0.3899 -0.2867
 1472TIP3    H125907   5.257   3.832  14.317 -0.2668  0.1910 -0.5975
 1472TIP3    H225908   5.341   3.841  14.442 -0.3847  0.5282 -0.5414
 1473TIP3   OH225909   5.922   3.840  15.189  0.4080 -0.3208 -0.0780
 1473TIP3    H125910   6.008   3.858  15.152  0.3666 -0.7671 -0.4012
 1473TIP3    H225911   5.911   3.905  15.258  0.1118  1.0841 -1.4092
 1474TIP3   OH225912   1.266   3.726   0.825 -0.0101  0.4651 -0.2505
 1474TIP3    H125913   1.349   3.683   0.804  0.2324  1.5414 -1.7129
 1474TIP3    H225914   1.286   3.781   0.901  0.5285  0.4389 -0.3650
 1475TIP3   OH225915   0.898   2.734   2.726  0.1988  0.2810 -0.2916
 1475TIP3    H125916   0.849   2.812   2.700  1.6575  1.2161 -0.4172
 1475TIP3    H225917   0.938   2.703   2.645  0.0517 -0.2821 -0.1504
 1476TIP3   OH225918   5.243   2.579   1.843  0.0656  0.3866 -0.1253
 1476TIP3    H125919   5.290   2.503   1.877  1.1036  0.7144 -0.7589
 1476TIP3    H225920   5.230   2.559   1.750  0.7438  1.1509 -0.3988
 1477TIP3   OH225921   1.243   1.399  13.653  0.1784  0.2349 -0.3133
 1477TIP3    H125922   1.225   1.330  13.716  2.6425 -0.4679 -0.2733
 1477TIP3    H225923   1.180   1.468  13.674 -1.5045 -1.4550  0.4602
 1478TIP3   OH225924   6.490   2.396  16.141  0.2299  1.0197  0.4685
 1478TIP3    H125925   6.406   2.400  16.185 -0.5794  0.3162 -0.9468
 1478TIP3    H225926   6.542   2.335  16.194 -1.1438 -0.8095 -0.1792
 1479TIP3   OH225927   4.511   3.323  16.395  0.1092 -0.5180 -0.3032
 1479TIP3    H125928   4.536   3.360  16.310  0.4473  0.5530  0.2510
 1479TIP3    H225929   4.500   3.229  16.377 -2.5318  0.0378 -2.1242
 1480TIP3   OH225930   3.917   6.698   0.842 -0.5421  0.2693  0.2037
 1480TIP3    H125931   3.893   6.653   0.923 -0.9849 -0.7317 -0.4569
 1480TIP3    H225932   3.989   6.646   0.807  0.4417  1.3797  0.5335
 1481TIP3   OH225933   6.394   0.811   2.728 -0.2910  0.4398  0.2123
 1481TIP3    H125934   6.393   0.897   2.686  1.1495  1.1883  1.5905
 1481TIP3    H225935   6.485   0.799   2.756 -0.3774 -1.7017 -0.2293
 1482TIP3   OH225936   3.735   5.505   3.813  0.0056 -0.1264 -0.1518
 1482TIP3    H125937   3.676   5.441   3.854  0.6728 -0.5814  0.1293
 1482TIP3    H225938   3.748   5.472   3.724  0.4963 -0.4986  0.0506
 1483TIP3   OH225939   4.592   6.341  15.874  0.0137 -0.8975 -0.3369
 1483TIP3    H125940   4.510   6.385  15.855  0.0314 -1.1272 -0.9769
 1483TIP3    H225941   4.653   6.373  15.807  0.5561 -0.4298  0.3669
 1484TIP3   OH225942   3.671   4.635   3.777  0.7965 -0.1949 -0.1420
 1484TIP3    H125943   3.742   4.573   3.792  0.3223 -0.3915  1.5058
 1484TIP3    H225944   3.647   4.666   3.864 -1.1641 -0.1754 -0.6304
 1485TIP3   OH225945   3.118   5.505   0.160 -0.0650 -1.0018 -0.4928
 1485TIP3    H125946   3.202   5.542   0.189 -0.1718 -0.0557 -1.3291
 1485TIP3    H225947   3.142   5.445   0.089 -0.0805 -0.7367 -0.7272
 1486TIP3   OH225948   3.841   3.371   2.055 -0.3001 -0.8140  0.0307
 1486TIP3    H125949   3.835   3.306   1.985  0.1109 -0.0159 -0.7654
 1486TIP3    H225950   3.762   3.423   2.046 -0.3165 -0.7974  0.2619
 1487TIP3   OH225951   2.751   6.689  15.226 -0.3450 -0.3463  0.4552
 1487TIP3    H125952   2.725   6.729  15.143  3.0273 -0.1116 -0.6580
 1487TIP3    H225953   2.733   6.595  15.214 -0.0293 -0.2929 -0.5003
 1488TIP3   OH225954   3.880   4.812  14.559  0.3150 -0.3375 -0.0856
 1488TIP3    H125955   3.896   4.751  14.631  0.2518  1.0755  1.1748
 1488TIP3    H225956   3.817   4.875  14.594  0.2005  0.3288 -1.4186
 1489TIP3   OH225957   1.519   4.536   4.399 -0.1328 -0.1858 -0.2664
 1489TIP3    H125958   1.541   4.578   4.316  0.7767  0.0959  0.1117
 1489TIP3    H225959   1.522   4.442   4.380 -0.3483 -0.1198 -0.6466
 1490TIP3   OH225960   6.595   2.143  14.495  0.2776  0.2655 -0.0496
 1490TIP3    H125961   6.556   2.164  14.581  0.3044  2.9415 -0.6131
 1490TIP3    H225962   6.521   2.113  14.443 -0.0111  0.0243  0.4874
 1491TIP3   OH225963   5.714   5.610  14.292  0.1615 -0.0096 -0.6138
 1491TIP3    H125964   5.762   5.693  14.285 -1.4489  1.1167  0.7855
 1491TIP3    H225965   5.739   5.575  14.378 -0.0684 -0.3778 -0.6948
 1492TIP3   OH225966   3.675   5.138   1.373  0.3856 -0.1805  0.1170
 1492TIP3    H125967   3.709   5.213   1.324 -0.2391  0.6669  0.9422
 1492TIP3    H225968   3.753   5.098   1.413  0.9058 -0.9044 -1.5334
 1493TIP3   OH225969   4.376   3.304  13.217  0.9294 -0.7926  0.1203
 1493TIP3    H125970   4.377   3.292  13.312  0.4804 -1.2969  0.0615
 1493TIP3    H225971   4.464   3.280  13.189  1.9027  1.7291  0.6757
 1494TIP3   OH225972   2.396   2.228  13.652 -0.5456  0.4141 -0.1881
 1494TIP3    H125973   2.426   2.165  13.718 -0.5613  0.2482 -0.3373
 1494TIP3    H225974   2.453   2.304  13.664  0.6199 -0.2723 -1.1202
 1495TIP3   OH225975   0.878   5.240   5.742 -0.3323 -0.3780  0.3197
 1495TIP3    H125976   0.973   5.240   5.758 -0.4113  1.4317  1.0682
 1495TIP3    H225977   0.842   5.181   5.808  0.1495  0.2332  1.1516
 1496TIP3   OH225978   0.541   4.158  13.798  0.3855 -0.4775 -0.8235
 1496TIP3    H125979   0.473   4.167  13.865 -0.5909 -0.2081 -1.8129
 1496TIP3    H225980   0.532   4.237  13.744  0.7690 -0.9547 -1.6016
 1497TIP3   OH225981   5.233   4.805   3.796 -1.1353  0.2307 -0.4626
 1497TIP3    H125982   5.286   4.725   3.804 -1.8726 -0.2109  0.1208
 1497TIP3    H225983   5.264   4.846   3.715  0.8827  0.5797  0.4283
 1498TIP3   OH225984   4.811   4.125  14.924 -0.7170  0.8692 -0.3195
 1498TIP3    H125985   4.838   4.035  14.906 -2.0445  0.3208  0.3330
 1498TIP3    H225986   4.892   4.170  14.949  0.5301  0.6562 -3.4172
 1499TIP3   OH225987   4.160   1.659   1.492 -0.2033  0.0285  0.4327
 1499TIP3    H125988   4.121   1.658   1.579 -2.4665  0.1231 -0.5112
 1499TIP3    H225989   4.160   1.567   1.464 -0.0520  0.0710  0.2894
 1500TIP3   OH225990   0.291   6.325   3.202 -0.1438  0.7215  0.1360
 1500TIP3    H125991   0.239   6.245   3.203 -0.5643  0.9768 -0.6748
 1500TIP3    H225992   0.241   6.387   3.149  0.0877  1.5906  0.8977
 1501TIP3   OH225993   4.197   2.874   3.249  0.4435 -0.0222  0.3279
 1501TIP3    H125994   4.208   2.894   3.342  1.0575  0.4099  0.1688
 1501TIP3    H225995   4.193   2.779   3.246 -0.1310 -0.0265  0.8494
 1502TIP3   OH225996   0.306   6.382  13.654 -0.3317 -0.4187  0.3119
 1502TIP3    H125997   0.293   6.462  13.705  0.4471 -1.0492  1.5299
 1502TIP3    H225998   0.382   6.340  13.693  1.0085 -0.4056 -2.0618
 1503TIP3   OH225999   2.288   2.782   5.131 -0.5285 -0.0661  0.0123
 1503TIP3    H126000   2.238   2.854   5.169 -0.5047  0.6196 -1.1934
 1503TIP3    H226001   2.222   2.722   5.097 -0.6009  0.9928 -1.8625
 1504TIP3   OH226002   6.208   1.715   6.029 -0.0642  0.5357  0.6712
 1504TIP3    H126003   6.114   1.732   6.021 -0.4867 -1.2633  1.4142
 1504TIP3    H226004   6.216   1.660   6.107  1.3315 -1.2615 -0.6504
 1505TIP3   OH226005   3.178   2.205   2.630 -0.3866  0.2113  0.5331
 1505TIP3    H126006   3.199   2.186   2.539 -2.4252 -1.7291  0.3732
 1505TIP3    H226007   3.085   2.228   2.629 -0.8286 -1.2630  2.2447
 1506TIP3   OH226008   5.922   0.808  12.840  0.5903  1.3393  0.1672
 1506TIP3    H126009   6.015   0.784  12.833  0.8365  1.2558  2.9152
 1506TIP3    H226010   5.922   0.889  12.891 -0.8701  1.0309  0.7116
 1507TIP3   OH226011   6.515   4.174  17.135 -0.7544 -0.3804 -0.1634
 1507TIP3    H126012   6.580   4.163  17.066  0.7082  0.6363  0.9824
 1507TIP3    H226013   6.561   4.149  17.215 -2.5982 -2.1593  0.4196
 1508TIP3   OH226014   2.552   2.776   1.756  0.2594  0.7392 -0.1393
 1508TIP3    H126015   2.625   2.795   1.697  0.9005 -0.3491  0.2510
 1508TIP3    H226016   2.475   2.775   1.700  0.8585 -0.3286 -1.0010
 1509TIP3   OH226017   5.449   0.522  17.004 -0.2026  0.2705  0.5433
 1509TIP3    H126018   5.502   0.488  16.932  1.4635 -0.4075  2.0115
 1509TIP3    H226019   5.445   0.450  17.067 -0.3085  1.3394  1.8070
 1510TIP3   OH226020   5.791   3.528  13.625 -0.1854  0.0426  0.1352
 1510TIP3    H126021   5.766   3.600  13.682 -0.4361  0.9906 -1.1417
 1510TIP3    H226022   5.859   3.481  13.675 -0.6197  0.6406  1.3299
 1511TIP3   OH226023   2.289   0.707  12.288 -0.1308 -0.4148 -0.4111
 1511TIP3    H126024   2.351   0.649  12.244  1.0863  0.3729  0.1963
 1511TIP3    H226025   2.274   0.778  12.226 -2.4695 -1.8342 -1.6049
 1512TIP3   OH226026   6.349   1.054   5.278 -0.0605  0.0530  0.5238
 1512TIP3    H126027   6.271   1.101   5.309  0.8146  1.0398  1.2954
 1512TIP3    H226028   6.356   0.977   5.335  0.1063  0.5191  1.1463
 1513TIP3   OH226029   3.650   4.816   1.425  0.1769  0.9008  0.2881
 1513TIP3    H126030   3.698   4.844   1.503 -1.2360  3.1113  0.4401
 1513TIP3    H226031   3.704   4.845   1.352  0.1530  1.3560  0.4502
 1514TIP3   OH226032   0.274   4.060  16.383 -0.3993 -0.0211  0.3640
 1514TIP3    H126033   0.190   4.038  16.342 -0.7654  0.8882  0.6162
 1514TIP3    H226034   0.298   3.980  16.431  0.9782 -1.8908 -3.0622
 1515TIP3   OH226035   3.070   2.106  14.147  0.8791  0.2306  0.5345
 1515TIP3    H126036   3.001   2.040  14.135  0.1789  1.0158  0.1405
 1515TIP3    H226037   3.054   2.170  14.078  1.6957  0.6953  0.7674
 1516TIP3   OH226038   1.065   5.147   5.108 -0.1920 -0.7066  0.4422
 1516TIP3    H126039   1.133   5.136   5.041 -0.0389  0.0376  0.4712
 1516TIP3    H226040   0.982   5.144   5.059 -0.0731  0.0942  0.1708
 1517TIP3   OH226041   0.637   3.141  10.976 -0.3288  0.1465 -0.1813
 1517TIP3    H126042   0.547   3.136  11.007  0.1117  1.3234  1.4391
 1517TIP3    H226043   0.679   3.205  11.035  1.5321 -0.3031 -0.9497
 1518TIP3   OH226044   4.308   3.665  15.913  0.5876 -0.4353  0.0069
 1518TIP3    H126045   4.216   3.691  15.909  0.4896 -0.6393  0.8819
 1518TIP3    H226046   4.317   3.596  15.847  0.2564 -0.0201 -0.4858
 1519TIP3   OH226047   4.996   1.578   4.794 -0.5307 -0.0552  0.4713
 1519TIP3    H126048   5.013   1.517   4.722  1.0730 -0.5130  1.2029
 1519TIP3    H226049   4.981   1.662   4.750  0.5402 -0.2988 -0.4118
 1520TIP3   OH226050   1.696   1.340  10.550 -0.5670  0.2919 -0.3753
 1520TIP3    H126051   1.695   1.411  10.485 -0.9276  0.2389 -0.4312
 1520TIP3    H226052   1.783   1.345  10.590  0.7185 -1.3238 -2.6940
 1521TIP3   OH226053   3.391   2.070   1.395 -0.2772 -0.0423  0.1701
 1521TIP3    H126054   3.457   2.001   1.407  1.2046  1.0466 -1.1847
 1521TIP3    H226055   3.310   2.033   1.429  0.2882 -2.7511 -1.1897
 1522TIP3   OH226056   6.598   5.574  11.599 -0.1022 -0.2955 -0.4375
 1522TIP3    H126057   6.694   5.580  11.596 -0.1764  1.1267 -1.1040
 1522TIP3    H226058   6.579   5.481  11.586  1.2029 -0.7931  0.8671
 1523TIP3   OH226059   0.488   4.792  12.705  0.3793 -0.4302 -0.2382
 1523TIP3    H126060   0.410   4.847  12.705  0.3599 -0.4345  1.0909
 1523TIP3    H226061   0.455   4.703  12.696  0.4575 -0.2433 -3.3915
 1524TIP3   OH226062   0.258   6.387   5.498 -0.0611 -0.1455  0.1556
 1524TIP3    H126063   0.266   6.399   5.403 -1.5288 -0.6678 -0.0621
 1524TIP3    H226064   0.310   6.457   5.536  0.1731  0.3511 -1.0486
 1525TIP3   OH226065   6.792   0.459  15.678  0.0599 -0.1119  0.3703
 1525TIP3    H126066   6.740   0.525  15.724  0.4139  0.1259  0.4320
 1525TIP3    H226067   6.784   0.380  15.731 -1.3304 -0.4667 -0.3115
 1526TIP3   OH226068   1.183   3.407   3.722 -0.1240 -0.2664 -0.3085
 1526TIP3    H126069   1.142   3.327   3.688 -0.3477  0.6273 -2.2570
 1526TIP3    H226070   1.113   3.451   3.770 -0.7270 -0.0586 -1.3428
 1527TIP3   OH226071   1.933   5.686   4.860  0.0126  0.3215 -0.3898
 1527TIP3    H126072   1.870   5.640   4.916 -1.4504  0.2770 -1.9789
 1527TIP3    H226073   1.967   5.619   4.801 -2.0788  1.0927 -2.6763
 1528TIP3   OH226074   0.570   5.712   4.735 -0.2425 -0.5742  0.0025
 1528TIP3    H126075   0.523   5.795   4.739 -2.2351 -1.6263 -0.6882
 1528TIP3    H226076   0.516   5.656   4.680  0.4540 -2.7196  1.3897
 1529TIP3   OH226077   3.834   0.073   3.513 -0.0258  0.3082 -0.0645
 1529TIP3    H126078   3.778  -0.000   3.488  0.0890  0.3934 -0.5766
 1529TIP3    H226079   3.782   0.151   3.493  0.2752  0.3866 -0.5428
 1530TIP3   OH226080   3.223   0.385  15.136  0.5640  0.0991 -0.5422
 1530TIP3    H126081   3.173   0.453  15.091 -0.5867  0.2107  0.8357
 1530TIP3    H226082   3.225   0.414  15.227  0.7242 -1.3292 -0.0777
 1531TIP3   OH226083   0.179   2.169  11.476 -0.1115 -0.3618  0.3802
 1531TIP3    H126084   0.112   2.168  11.408  0.3522 -2.3755 -0.1016
 1531TIP3    H226085   0.221   2.255  11.467 -1.9168  0.5317  0.0253
 1532TIP3   OH226086   5.618   0.470  14.928  0.5808  0.0399  0.6224
 1532TIP3    H126087   5.570   0.553  14.926 -1.0374 -0.8644  0.2784
 1532TIP3    H226088   5.709   0.495  14.942  0.4174  2.0025 -1.2983
 1533TIP3   OH226089   5.513   3.523   6.132 -0.7057  0.4943  0.4731
 1533TIP3    H126090   5.548   3.540   6.220 -0.0585  0.2460  0.2626
 1533TIP3    H226091   5.589   3.522   6.075 -0.9821 -0.6800  0.1059
 1534TIP3   OH226092   5.360   4.814   1.872 -0.4460  0.0889  0.0600
 1534TIP3    H126093   5.280   4.853   1.836 -0.9624 -0.1103  0.9714
 1534TIP3    H226094   5.345   4.720   1.868  0.8040 -0.0784 -2.1447
 1535TIP3   OH226095   5.771   2.441  14.375  0.3199  0.0844 -0.6395
 1535TIP3    H126096   5.688   2.474  14.410 -0.7892 -1.5789 -1.5742
 1535TIP3    H226097   5.824   2.424  14.453 -1.4306 -1.8646  0.2367
 1536TIP3   OH226098   6.780   1.353  16.946 -0.0489 -0.3390 -0.3145
 1536TIP3    H126099   6.767   1.349  16.851 -0.2370  1.2678 -0.3859
 1536TIP3    H226100   6.865   1.396  16.957 -0.0339 -0.4998  0.2458
 1537TIP3   OH226101   4.366   4.201  14.433 -0.5700 -0.4024  0.2735
 1537TIP3    H126102   4.411   4.275  14.393 -0.3109 -1.5318 -1.6942
 1537TIP3    H226103   4.415   4.183  14.513  1.2632 -0.3339 -0.7897
 1538TIP3   OH226104   6.689   6.082   4.411  0.0709  0.2799 -0.0763
 1538TIP3    H126105   6.773   6.035   4.406 -0.2033 -0.2433  0.2342
 1538TIP3    H226106   6.666   6.099   4.320  0.4510  0.3138 -0.1682
 1539TIP3   OH226107   2.257   3.205  11.195  0.0995 -0.3655  0.7063
 1539TIP3    H126108   2.169   3.169  11.181 -0.2133 -0.3505  2.4290
 1539TIP3    H226109   2.272   3.260  11.118 -1.7965  0.3672  0.7955
 1540TIP3   OH226110   4.796   0.467   1.729 -0.3239 -0.3879  0.6961
 1540TIP3    H126111   4.872   0.449   1.785  1.4651  2.6094 -0.5338
 1540TIP3    H226112   4.724   0.483   1.790  1.0199  0.6001  2.0841
 1541TIP3   OH226113   4.762   3.745   2.299 -0.0852  0.4750  0.2094
 1541TIP3    H126114   4.787   3.720   2.210 -0.8959  1.0356 -0.1912
 1541TIP3    H226115   4.667   3.757   2.294 -0.6515 -2.4517  1.8589
 1542TIP3   OH226116   1.630   4.962  13.649  0.8207 -0.5461 -0.2893
 1542TIP3    H126117   1.645   5.055  13.631  1.7230 -0.2668  1.6754
 1542TIP3    H226118   1.637   4.920  13.563 -1.2549  1.3499 -1.4950
 1543TIP3   OH226119   3.868   5.391   5.971 -0.1982 -0.3026  0.2413
 1543TIP3    H126120   3.917   5.333   5.914  0.1136  0.2369 -0.0420
 1543TIP3    H226121   3.933   5.451   6.007 -0.7840  1.1219 -0.9871
 1544TIP3   OH226122   0.428   5.835   6.585 -0.2517  0.0385  0.4518
 1544TIP3    H126123   0.355   5.857   6.642  0.3993  0.4674  1.1443
 1544TIP3    H226124   0.427   5.902   6.517 -0.6279 -0.0871  0.3295
 1545TIP3   OH226125   5.871   5.383  11.034 -0.3842  0.0627  0.6611
 1545TIP3    H126126   5.910   5.329  10.966  1.2715  1.9210  0.0339
 1545TIP3    H226127   5.785   5.406  11.000 -0.9019 -1.6457  0.7074
 1546TIP3   OH226128   5.014   1.392   2.684 -0.3686  0.0987  0.0142
 1546TIP3    H126129   5.039   1.480   2.712  1.9272  0.2631 -2.1568
 1546TIP3    H226130   5.021   1.395   2.589  0.6494 -2.6481 -0.0785
 1547TIP3   OH226131   2.194   5.295   4.753  0.2541 -0.1540 -0.3079
 1547TIP3    H126132   2.276   5.244   4.756 -0.6298 -1.6798  3.0154
 1547TIP3    H226133   2.220   5.380   4.717  2.6148 -1.5842 -2.3129
 1548TIP3   OH226134   4.593   0.526  12.627 -0.1426 -0.0791  0.2241
 1548TIP3    H126135   4.590   0.621  12.637  0.1131 -0.0778  0.2838
 1548TIP3    H226136   4.510   0.496  12.664  0.6197 -0.0549  2.0373
 1549TIP3   OH226137   1.384   0.350   5.896  0.1901 -0.0767  0.0055
 1549TIP3    H126138   1.319   0.353   5.965 -0.2814 -3.0886 -0.1567
 1549TIP3    H226139   1.388   0.439   5.862 -1.5495  0.8665  2.0677
 1550TIP3   OH226140   0.660   0.497  16.681 -0.3665  0.0141 -0.0153
 1550TIP3    H126141   0.713   0.432  16.634  0.2620  0.2342  0.3753
 1550TIP3    H226142   0.724   0.561  16.713 -0.6990 -0.4501  1.6549
 1551TIP3   OH226143   4.513   4.283  16.588  0.2700  1.0307 -0.6488
 1551TIP3    H126144   4.544   4.202  16.546  1.2826  1.3315 -0.5222
 1551TIP3    H226145   4.530   4.269  16.681 -0.8416  0.8527 -0.4581
 1552TIP3   OH226146   4.162   2.306   6.439  0.3942 -0.1216 -0.2367
 1552TIP3    H126147   4.218   2.375   6.403 -2.0088  1.9064 -0.4125
 1552TIP3    H226148   4.222   2.234   6.458  2.8449  1.4398 -1.4423
 1553TIP3   OH226149   2.654   0.000  12.317  0.2394 -0.2375  0.1757
 1553TIP3    H126150   2.633   0.086  12.281 -0.3454 -0.4573 -0.0230
 1553TIP3    H226151   2.693   0.018  12.402 -0.0437  0.2176  0.2107
 1554TIP3   OH226152   4.738   2.419  11.950 -0.5155 -0.2252  0.0583
 1554TIP3    H126153   4.832   2.414  11.968 -0.2469  2.3885 -0.1977
 1554TIP3    H226154   4.732   2.472  11.870 -2.1350 -3.0619 -1.9194
 1555TIP3   OH226155   4.016   6.357   2.290 -0.1370 -0.6006  0.3407
 1555TIP3    H126156   4.108   6.338   2.273 -0.3233  0.3548 -2.0111
 1555TIP3    H226157   3.972   6.272   2.287  0.2775 -0.7889 -1.4466
 1556TIP3   OH226158   6.564   4.656   2.539 -0.8700 -0.4904  0.1427
 1556TIP3    H126159   6.509   4.732   2.557  1.4222  1.2568  0.1228
 1556TIP3    H226160   6.586   4.664   2.446  0.2150 -0.6122  0.3798
 1557TIP3   OH226161   6.358   2.686  15.585 -1.3159  0.0748 -0.9119
 1557TIP3    H126162   6.390   2.601  15.616 -1.2883  0.6506  0.7210
 1557TIP3    H226163   6.264   2.684  15.600 -1.3269  0.2985 -0.9397
 1558TIP3   OH226164   3.684   5.404   2.058  0.4035 -0.2165 -0.2298
 1558TIP3    H126165   3.721   5.491   2.041 -1.2743  0.6187  0.1499
 1558TIP3    H226166   3.724   5.347   1.992  2.9531  0.4040  0.6616
 1559TIP3   OH226167   2.281   5.793   2.148  0.0238 -0.1203  0.4230
 1559TIP3    H126168   2.260   5.738   2.223 -4.0515 -0.7059 -0.8697
 1559TIP3    H226169   2.248   5.744   2.072 -1.4791  2.8803 -1.0664
 1560TIP3   OH226170   2.194   5.114  13.126  0.2134 -0.5276  0.0909
 1560TIP3    H126171   2.129   5.047  13.148 -0.2600  0.3780  1.6250
 1560TIP3    H226172   2.170   5.143  13.038  0.1348 -1.9996 -0.3987
 1561TIP3   OH226173   6.078   2.046  11.650  0.5907  0.4084  0.4273
 1561TIP3    H126174   6.005   2.100  11.621  0.7217 -0.0111 -0.7350
 1561TIP3    H226175   6.036   1.971  11.693  0.3857  0.8240  0.9705
 1562TIP3   OH226176   5.616   2.766  15.851 -0.1916  0.2389 -0.1172
 1562TIP3    H126177   5.660   2.844  15.883  0.9097 -0.1857 -0.5433
 1562TIP3    H226178   5.642   2.697  15.913 -0.8628  0.1331  0.0509
 1563TIP3   OH226179   3.719   1.235  15.098  0.2520  0.6001  0.0523
 1563TIP3    H126180   3.759   1.178  15.163  0.4788 -0.8013 -1.2502
 1563TIP3    H226181   3.657   1.178  15.052 -2.2238  2.3212  1.0228
 1564TIP3   OH226182   4.190   4.249  14.236 -0.1630  0.5161  0.3962
 1564TIP3    H126183   4.215   4.208  14.319  0.6293  1.9037  0.8712
 1564TIP3    H226184   4.239   4.200  14.170  1.9810  1.5833  1.0907
 1565TIP3   OH226185   5.579   4.045   2.304 -0.0957  0.3686  0.2874
 1565TIP3    H126186   5.548   4.008   2.387 -1.6253 -1.6010 -1.0792
 1565TIP3    H226187   5.642   3.981   2.271 -0.5955  0.4038 -0.7669
 1566TIP3   OH226188   4.670   2.926  13.512 -0.1079  0.4530 -0.1756
 1566TIP3    H126189   4.695   2.872  13.437 -1.7202 -0.0004 -0.4294
 1566TIP3    H226190   4.693   3.015  13.486  3.0625 -0.0849  0.4491
 1567TIP3   OH226191   5.251   5.807  14.417 -0.1712  0.4627 -0.4944
 1567TIP3    H126192   5.272   5.751  14.342  1.0854  0.7688 -0.3981
 1567TIP3    H226193   5.191   5.873  14.382 -0.9506 -0.3964 -0.8144
 1568TIP3   OH226194   4.083   4.972   0.286  0.2452  0.1608 -0.0534
 1568TIP3    H126195   4.172   4.976   0.250  0.5003  2.2971  0.6747
 1568TIP3    H226196   4.034   5.038   0.237 -0.9538 -0.9790 -0.4269
 1569TIP3   OH226197   5.761   5.771  13.639  0.3002 -0.2856 -0.2478
 1569TIP3    H126198   5.758   5.713  13.564 -0.8251  0.8081 -1.0868
 1569TIP3    H226199   5.670   5.787  13.661  0.6127 -0.3323  1.1680
 1570TIP3   OH226200   6.250   5.724  14.896 -0.1396 -0.1273  0.0551
 1570TIP3    H126201   6.155   5.729  14.904 -0.1560 -1.9843  2.0005
 1570TIP3    H226202   6.277   5.812  14.871 -2.3051  0.6867  0.3885
 1571TIP3   OH226203   4.895   1.671  11.441  0.1907  0.3536 -0.3603
 1571TIP3    H126204   4.956   1.612  11.396 -0.2757 -0.5661  0.1821
 1571TIP3    H226205   4.899   1.645  11.533 -2.4060 -1.0661 -0.5422
 1572TIP3   OH226206   4.402   1.420  14.282  0.1794 -0.1816 -0.0333
 1572TIP3    H126207   4.485   1.455  14.313  1.1457 -0.7043 -1.8757
 1572TIP3    H226208   4.412   1.414  14.187 -1.1526 -2.2744 -0.1175
 1573TIP3   OH226209   6.796   1.595  11.468 -0.1129  0.2241  0.6141
 1573TIP3    H126210   6.795   1.691  11.470  0.0460  0.2540 -0.2474
 1573TIP3    H226211   6.712   1.571  11.429 -0.7026 -0.0458  1.9845
 1574TIP3   OH226212   6.374   0.379  16.973  0.1999 -0.4380  0.7919
 1574TIP3    H126213   6.397   0.289  16.999 -0.2249 -0.8366 -0.1729
 1574TIP3    H226214   6.447   0.408  16.919  1.3077  0.5641  2.7181
 1575TIP3   OH226215   6.036   3.479  12.880  0.0709  0.2044 -0.7529
 1575TIP3    H126216   6.037   3.388  12.912 -0.0246 -0.5895 -2.8354
 1575TIP3    H226217   6.126   3.509  12.891  0.0474 -0.0516  0.1950
 1576TIP3   OH226218   3.264   3.713   5.630  0.5677 -0.3687 -0.0764
 1576TIP3    H126219   3.303   3.778   5.689  1.0603 -0.3918 -0.3746
 1576TIP3    H226220   3.203   3.763   5.577 -0.4221 -0.4618  0.9212
 1577TIP3   OH226221   0.872   0.674   1.900 -0.0537  0.5802  0.4848
 1577TIP3    H126222   0.935   0.609   1.870 -1.0731 -0.2735  0.1526
 1577TIP3    H226223   0.788   0.644   1.866 -1.0085  0.4750  2.7268
 1578TIP3   OH226224   5.944   2.995   4.245  0.0007  1.0024  0.0448
 1578TIP3    H126225   5.992   2.917   4.217  0.2654  1.7293 -1.6525
 1578TIP3    H226226   5.889   3.018   4.170 -2.0245  0.9909  1.4389
 1579TIP3   OH226227   4.610   0.234   6.230  0.3614 -0.3367  0.3383
 1579TIP3    H126228   4.670   0.296   6.272 -0.4920 -0.1125  1.2747
 1579TIP3    H226229   4.666   0.162   6.201  1.2039  0.3120  0.3247
 1580TIP3   OH226230   3.766   5.786  14.413 -0.2026 -0.7390 -0.5382
 1580TIP3    H126231   3.783   5.693  14.431  0.8963 -0.5192 -0.4145
 1580TIP3    H226232   3.747   5.823  14.499 -0.5391 -0.8238 -0.5742
 1581TIP3   OH226233   2.593   2.738  15.364  0.0528 -0.4658  0.2252
 1581TIP3    H126234   2.663   2.705  15.308 -0.2792 -0.6018 -0.1184
 1581TIP3    H226235   2.626   2.728  15.453  1.1799  1.1176  0.0217
 1582TIP3   OH226236   0.546   4.272   4.006  0.1297 -0.2455 -0.1617
 1582TIP3    H126237   0.541   4.176   4.011 -0.6580 -0.2651 -1.0955
 1582TIP3    H226238   0.476   4.302   4.064  0.0920 -0.2402 -0.2103
 1583TIP3   OH226239   1.434   6.176   3.302 -0.2132  0.3142  0.2158
 1583TIP3    H126240   1.498   6.242   3.331 -1.6613  1.5952  0.6450
 1583TIP3    H226241   1.453   6.099   3.355  0.7555  0.7822  0.5763
 1584TIP3   OH226242   2.530   0.754  15.070  0.7116  0.0491  0.4289
 1584TIP3    H126243   2.594   0.808  15.023  0.5086  0.4410  0.5964
 1584TIP3    H226244   2.473   0.817  15.114 -0.8165 -0.2019 -1.0371
 1585TIP3   OH226245   0.640   4.010  11.646 -0.2527  0.4971 -0.4033
 1585TIP3    H126246   0.628   3.925  11.688  1.6411 -0.4682 -1.6143
 1585TIP3    H226247   0.652   4.072  11.718 -2.5492 -0.0596  0.5169
 1586TIP3   OH226248   5.643   2.234   0.980 -0.1565 -0.1159 -0.7124
 1586TIP3    H126249   5.665   2.220   1.072  3.5623  1.9100 -1.0890
 1586TIP3    H226250   5.580   2.305   0.981 -0.1215 -0.0830  0.2709
 1587TIP3   OH226251   5.652   5.377  13.585  0.2576  0.5459  0.2595
 1587TIP3    H126252   5.741   5.358  13.554  0.5523  0.4952  1.1310
 1587TIP3    H226253   5.664   5.405  13.675 -0.6706 -0.0484  0.5761
 1588TIP3   OH226254   1.689   3.778  13.424  0.2187  1.0674 -0.0115
 1588TIP3    H126255   1.633   3.857  13.426  0.3443  1.1623  2.0989
 1588TIP3    H226256   1.651   3.721  13.491  0.0945 -0.7360 -1.5586
 1589TIP3   OH226257   5.599   0.532   1.539 -0.4343 -0.3233  0.2591
 1589TIP3    H126258   5.631   0.498   1.456  0.0740 -0.9414  0.7036
 1589TIP3    H226259   5.528   0.472   1.564 -0.4610 -0.2494  0.3632
 1590TIP3   OH226260   6.300   6.450   5.796 -0.0190  0.0048  0.1631
 1590TIP3    H126261   6.226   6.408   5.751 -0.4199  0.9326 -0.0652
 1590TIP3    H226262   6.307   6.536   5.755 -0.1193  0.7174  1.5915
 1591TIP3   OH226263   3.437   5.635  13.743  0.3147 -0.2986  0.0208
 1591TIP3    H126264   3.521   5.665  13.706  0.3685 -1.4569 -0.8806
 1591TIP3    H226265   3.447   5.646  13.837  1.7261 -0.9661 -0.0200
 1592TIP3   OH226266   4.392   1.568  12.873  0.2114 -0.1039  0.3262
 1592TIP3    H126267   4.383   1.653  12.915  1.0106  0.2419 -0.1828
 1592TIP3    H226268   4.305   1.528  12.881 -0.4722  1.1784 -0.3359
 1593TIP3   OH226269   0.917   3.546  16.193  0.1857 -0.3870  1.0830
 1593TIP3    H126270   0.989   3.578  16.139  0.5841 -1.1801  1.1401
 1593TIP3    H226271   0.858   3.621  16.200  1.1195  0.3486  1.2539
 1594TIP3   OH226272   1.348   5.040   0.157  0.1040  0.3071  0.4370
 1594TIP3    H126273   1.413   5.079   0.099 -0.0113  0.0064  0.0959
 1594TIP3    H226274   1.399   4.988   0.219  0.1715 -0.2249 -0.0585
 1595TIP3   OH226275   1.665   0.684  10.438 -0.2133  0.0231 -0.2303
 1595TIP3    H126276   1.583   0.657  10.479 -1.1170 -1.8349 -2.9775
 1595TIP3    H226277   1.641   0.704  10.347  1.9304  2.2713 -0.4223
 1596TIP3   OH226278   6.577   3.242   1.784  0.2572 -0.4478  0.0314
 1596TIP3    H126279   6.532   3.183   1.844 -0.6252 -0.2252 -0.3998
 1596TIP3    H226280   6.551   3.330   1.814  0.5098 -0.3111 -0.1457
 1597TIP3   OH226281   5.049   4.663   4.415  0.1559 -0.2487 -0.2622
 1597TIP3    H126282   5.048   4.639   4.507 -0.7169 -2.4563 -0.7837
 1597TIP3    H226283   5.141   4.677   4.395  0.3667  0.1498  0.9007
 1598TIP3   OH226284   6.440   2.170  13.962  0.1630  0.0837 -0.4011
 1598TIP3    H126285   6.523   2.204  13.995 -0.2127  1.6042 -0.9559
 1598TIP3    H226286   6.450   2.172  13.866 -0.4782  0.1988 -0.4669
 1599TIP3   OH226287   2.635   6.326   4.844 -0.2809 -0.4145  0.2342
 1599TIP3    H126288   2.666   6.318   4.934  1.2555  1.2674 -0.0854
 1599TIP3    H226289   2.668   6.411   4.815 -2.4133 -0.0279 -1.3037
 1600TIP3   OH226290   0.229   5.338  14.521  0.1617  0.3330 -0.2818
 1600TIP3    H126291   0.152   5.355  14.468  0.5751  1.2344 -0.6240
 1600TIP3    H226292   0.223   5.400  14.594  0.1346 -0.1737  0.1581
 1601TIP3   OH226293   5.376   1.529   1.621  0.5813 -0.0495  0.4241
 1601TIP3    H126294   5.438   1.484   1.564 -0.4300  0.0097 -0.7721
 1601TIP3    H226295   5.367   1.616   1.582 -0.5062 -0.1736  0.3593
 1602TIP3   OH226296   1.590   3.362   2.308 -0.8144  0.2283  0.0322
 1602TIP3    H126297   1.620   3.346   2.398 -2.0371  0.3434  0.4814
 1602TIP3    H226298   1.576   3.457   2.304  0.2072  0.3696 -0.6125
 1603TIP3   OH226299   6.661   5.657  10.358  0.2244 -0.9739 -0.3741
 1603TIP3    H126300   6.622   5.735  10.317  1.2999  0.2473  0.8340
 1603TIP3    H226301   6.754   5.677  10.364  0.4290 -2.0939  0.5209
 1604TIP3   OH226302   4.986   5.764   0.306 -0.1556  0.5643 -0.0106
 1604TIP3    H126303   4.910   5.713   0.336  0.4056 -0.1054  0.2824
 1604TIP3    H226304   5.059   5.733   0.360  0.9957 -0.9908 -2.3059
 1605TIP3   OH226305   1.455   4.336   1.994 -0.3817 -0.0933  1.0376
 1605TIP3    H126306   1.509   4.265   1.958  1.1379  1.5265 -0.0588
 1605TIP3    H226307   1.507   4.415   1.979 -2.0352  1.2744  2.1749
 1606TIP3   OH226308   0.798   1.602  15.284 -0.4497  0.5401  0.0689
 1606TIP3    H126309   0.836   1.552  15.356  1.7665 -0.2155 -1.4958
 1606TIP3    H226310   0.850   1.683  15.281  0.9489 -0.3306 -1.8554
 1607TIP3   OH226311   2.042   6.521   6.217  0.1266 -0.6754  0.0871
 1607TIP3    H126312   2.067   6.512   6.309  0.3322 -1.0064  0.0016
 1607TIP3    H226313   2.118   6.562   6.176 -0.2621  0.1894  0.2055
 1608TIP3   OH226314   0.280   5.126   3.934 -0.2091  0.0410 -0.1186
 1608TIP3    H126315   0.364   5.081   3.938 -0.2821 -0.4253 -2.3182
 1608TIP3    H226316   0.290   5.189   3.862 -1.9864 -0.6410 -1.0329
 1609TIP3   OH226317   2.610   4.104  13.832  0.2602  0.0293 -0.1731
 1609TIP3    H126318   2.514   4.108  13.824  0.0063  0.6777  2.3424
 1609TIP3    H226319   2.627   4.014  13.860  0.5262 -0.4385 -1.7866
 1610TIP3   OH226320   0.245   0.538   5.366 -0.2265  0.3923  0.2776
 1610TIP3    H126321   0.179   0.470   5.350  1.9707 -1.3970 -2.0207
 1610TIP3    H226322   0.269   0.528   5.457 -1.4125 -0.5181  0.5129
 1611TIP3   OH226323   4.267   1.248   2.846  0.5583  0.2433 -0.1834
 1611TIP3    H126324   4.299   1.218   2.760  1.3456  0.3622  0.0594
 1611TIP3    H226325   4.291   1.340   2.849  1.1325  0.0775  0.4333
 1612TIP3   OH226326   2.076   3.241   4.372  0.2483 -0.1423  0.3331
 1612TIP3    H126327   2.137   3.211   4.305 -1.5138 -1.6949 -0.6516
 1612TIP3    H226328   1.989   3.223   4.337 -0.8560  2.1980  1.5919
 1613TIP3   OH226329   1.358   4.275  17.152 -0.0888 -0.1514 -0.0291
 1613TIP3    H126330   1.430   4.270  17.215 -1.2458 -1.7768  1.2797
 1613TIP3    H226331   1.398   4.307  17.072  1.6150  1.2469  1.2978
 1614TIP3   OH226332   2.330   2.153  13.393  0.0945  0.2914 -0.0627
 1614TIP3    H126333   2.388   2.164  13.469  0.5875 -0.2146 -0.3558
 1614TIP3    H226334   2.246   2.127  13.431 -0.0738  1.4295  0.3945
 1615TIP3   OH226335   2.165   6.391   3.573  0.5644 -0.2258  0.1752
 1615TIP3    H126336   2.150   6.388   3.479 -0.0712 -0.2419  0.2742
 1615TIP3    H226337   2.078   6.380   3.612  0.9113 -0.9264  0.7759
 1616TIP3   OH226338   1.876   0.471   2.125  0.2843 -0.9355 -0.0654
 1616TIP3    H126339   1.967   0.497   2.115  0.7613 -1.2279  2.5682
 1616TIP3    H226340   1.832   0.550   2.156 -0.8876 -0.2213 -3.2476
 1617TIP3   OH226341   2.020   1.636   2.025  0.0833  0.2238 -0.1184
 1617TIP3    H126342   2.072   1.686   2.089  0.3333 -0.1711 -0.0105
 1617TIP3    H226343   2.065   1.552   2.018 -0.7785 -0.2834  0.2924
 1618TIP3   OH226344   4.090   4.827   4.305 -0.4466 -0.4418 -0.6903
 1618TIP3    H126345   4.088   4.732   4.310  0.4747 -0.3932  2.4927
 1618TIP3    H226346   4.183   4.849   4.298 -0.6101  0.2366 -0.7965
 1619TIP3   OH226347   3.041   0.699   0.289 -0.2466  0.6404 -0.0441
 1619TIP3    H126348   3.083   0.672   0.207  1.0643 -0.1429  0.8488
 1619TIP3    H226349   3.099   0.767   0.324 -0.4866  0.5551  0.5209
 1620TIP3   OH226350   0.610   5.352   4.739  0.1994  0.0956 -0.7281
 1620TIP3    H126351   0.568   5.380   4.820 -0.0102  2.2552 -1.5243
 1620TIP3    H226352   0.537   5.322   4.684 -0.1873  2.1523 -1.4404
 1621TIP3   OH226353   5.078   4.889  15.106  0.1641 -0.5023 -0.4416
 1621TIP3    H126354   4.990   4.850  15.103  0.4774 -1.1702 -2.1036
 1621TIP3    H226355   5.088   4.918  15.197 -0.9800 -2.2637  0.3078
 1622TIP3   OH226356   0.832   3.415  14.296 -0.3416 -0.6575 -0.1419
 1622TIP3    H126357   0.767   3.435  14.229 -0.9126 -1.2528  0.2166
 1622TIP3    H226358   0.912   3.396  14.247  0.0721  1.7498 -0.5320
 1623TIP3   OH226359   0.967   1.265  11.684  0.7416  0.4324 -0.1984
 1623TIP3    H126360   0.980   1.359  11.684 -1.2489  0.7685  0.9960
 1623TIP3    H226361   0.970   1.239  11.592 -3.0952  2.4263 -1.0955
 1624TIP3   OH226362   0.080   4.028   0.809  0.1176 -0.2492  0.1497
 1624TIP3    H126363   0.173   4.045   0.793 -0.0000  1.2934  0.9712
 1624TIP3    H226364   0.035   4.101   0.768 -0.5936  0.1345  1.5639
 1625TIP3   OH226365   5.499   2.539   0.026  0.3347  0.3001 -0.4060
 1625TIP3    H126366   5.544   2.475  -0.029 -0.2872 -0.3699 -0.1553
 1625TIP3    H226367   5.468   2.606  -0.034 -2.4121 -1.5924 -1.2799
 1626TIP3   OH226368   3.423   4.744  12.251  0.1795  0.1979 -0.4436
 1626TIP3    H126369   3.401   4.837  12.245 -0.7836 -0.0776 -1.6905
 1626TIP3    H226370   3.478   4.728  12.174  3.1540  0.3945  1.4821
 1627TIP3   OH226371   3.269   3.680  14.497 -0.3526 -0.3595  0.1833
 1627TIP3    H126372   3.263   3.775  14.505 -1.7207 -0.4543  0.4945
 1627TIP3    H226373   3.210   3.646  14.565 -2.5688 -1.3804 -2.1081
 1628TIP3   OH226374   3.827   0.204  16.281 -0.0848  0.6125  0.1704
 1628TIP3    H126375   3.744   0.233  16.245 -0.4301  0.8157  1.1074
 1628TIP3    H226376   3.893   0.259  16.239 -0.4014  0.3734 -0.6591
 1629TIP3   OH226377   2.610   1.385  15.474 -0.9824  0.1673 -0.0671
 1629TIP3    H126378   2.705   1.384  15.482 -0.7728 -1.2538 -2.0611
 1629TIP3    H226379   2.582   1.300  15.508 -1.5947  0.7177  0.8386
 1630TIP3   OH226380   6.573   2.214  12.221  0.0011 -0.1169  0.6798
 1630TIP3    H126381   6.537   2.273  12.287 -1.7412 -0.1311 -0.2110
 1630TIP3    H226382   6.522   2.134  12.231  2.1113 -1.4452  1.6600
 1631TIP3   OH226383   0.305   4.500  12.222 -0.1673  0.5247 -0.0521
 1631TIP3    H126384   0.363   4.512  12.147  2.0117 -0.6380  1.3330
 1631TIP3    H226385   0.302   4.586  12.264  0.9935  0.5184  0.0914
 1632TIP3   OH226386   3.752   2.341   0.782 -0.4786 -0.1692 -0.6978
 1632TIP3    H126387   3.694   2.334   0.858 -0.3754  1.6228 -0.4259
 1632TIP3    H226388   3.694   2.364   0.709 -0.6238 -2.1731 -1.2859
 1633TIP3   OH226389   3.644   1.636  15.963  0.2827  0.3704  0.3864
 1633TIP3    H126390   3.564   1.587  15.943  0.1928  0.3713  0.7279
 1633TIP3    H226391   3.708   1.603  15.900  0.6100 -1.2230  1.4790
 1634TIP3   OH226392   1.512   1.296  15.345  0.1634 -0.2363 -0.0525
 1634TIP3    H126393   1.546   1.363  15.405  1.2400 -0.8902  0.0896
 1634TIP3    H226394   1.581   1.230  15.340 -0.6585 -1.0877 -0.6084
 1635TIP3   OH226395   3.451   5.384   1.201  0.3233  0.5056 -0.8570
 1635TIP3    H126396   3.440   5.355   1.291 -0.3173 -0.7875 -1.3256
 1635TIP3    H226397   3.364   5.411   1.173 -0.1799 -1.9502 -1.9821
 1636TIP3   OH226398   5.144   2.098   3.412 -0.3233  0.1282  0.0463
 1636TIP3    H126399   5.113   2.016   3.451  0.1832  0.3707  0.9819
 1636TIP3    H226400   5.229   2.114   3.453  1.7391 -1.1339 -3.3080
 1637TIP3   OH226401   4.556   2.797  12.673 -0.4065 -0.0179 -0.1346
 1637TIP3    H126402   4.581   2.736  12.603 -0.9344 -2.1943  1.4409
 1637TIP3    H226403   4.615   2.776  12.745 -1.2890  0.6314  0.8030
 1638TIP3   OH226404   3.199   2.340   3.381 -0.1065  0.4412 -0.9098
 1638TIP3    H126405   3.168   2.316   3.469 -1.3042  0.4874 -1.3100
 1638TIP3    H226406   3.194   2.259   3.331  0.6117  0.4072 -0.9465
 1639TIP3   OH226407   5.225   2.336   1.316 -0.0616 -0.2399 -0.0374
 1639TIP3    H126408   5.316   2.363   1.306 -0.4193  0.7662 -0.7738
 1639TIP3    H226409   5.175   2.408   1.277 -1.0422 -2.0952 -2.4689
 1640TIP3   OH226410   5.737   3.356  14.018 -0.1678 -0.0214 -0.6018
 1640TIP3    H126411   5.682   3.434  14.018  0.7961  0.6930 -1.6454
 1640TIP3    H226412   5.704   3.304  13.945  0.7762  0.6195 -1.5213
 1641TIP3   OH226413   5.253   3.643   2.090 -0.0189  0.4613  0.2245
 1641TIP3    H126414   5.219   3.557   2.064  1.2844  0.2212 -0.8127
 1641TIP3    H226415   5.208   3.663   2.172  0.7690 -1.9416  1.3652
 1642TIP3   OH226416   0.025   3.484  12.313 -0.7906 -0.5237 -0.2198
 1642TIP3    H126417   0.109   3.456  12.348 -0.9843 -2.6480 -1.3070
 1642TIP3    H226418  -0.035   3.477  12.387 -0.1212  0.7000  0.4776
 1643TIP3   OH226419   3.184   1.588  11.180  0.4176 -0.2404  0.1280
 1643TIP3    H126420   3.116   1.550  11.124  1.8618 -1.3169 -0.9743
 1643TIP3    H226421   3.173   1.545  11.265 -1.4047  0.9547  0.5679
 1644TIP3   OH226422   1.617   6.341   4.712  1.0105 -0.3357 -0.1925
 1644TIP3    H126423   1.680   6.285   4.756  0.7916  0.5097  1.2771
 1644TIP3    H226424   1.662   6.425   4.702  0.9560 -0.4308 -1.3624
 1645TIP3   OH226425   0.438   6.503   3.348  1.0161 -0.7454 -0.1789
 1645TIP3    H126426   0.503   6.523   3.280  2.3605 -1.0559  0.9631
 1645TIP3    H226427   0.376   6.444   3.305  0.1112  1.3943 -1.9858
 1646TIP3   OH226428   3.131   4.413  15.004 -0.2387  0.4060 -0.1744
 1646TIP3    H126429   3.073   4.340  15.025 -0.6020  1.0315  1.0956
 1646TIP3    H226430   3.087   4.458  14.932 -0.9946  0.4854  0.3312
 1647TIP3   OH226431   1.299   4.127   5.077 -0.2778  0.0497  0.4351
 1647TIP3    H126432   1.275   4.216   5.052  1.7469  0.1602 -1.4326
 1647TIP3    H226433   1.304   4.079   4.994  1.5152 -1.0321  1.1159
 1648TIP3   OH226434   0.885   1.134   3.752  0.9388  0.5635  0.6644
 1648TIP3    H126435   0.955   1.113   3.690  0.2827  0.5753 -0.0908
 1648TIP3    H226436   0.865   1.051   3.795  1.8493  0.6831  1.3558
 1649TIP3   OH226437   2.469   6.376  13.021 -0.1995  0.3994  0.1700
 1649TIP3    H126438   2.508   6.300  12.976 -1.6148 -1.2311  1.5805
 1649TIP3    H226439   2.457   6.440  12.951  1.4143 -0.4722 -1.0098
 1650TIP3   OH226440   2.241   5.945   3.120 -0.3512 -0.4254  0.4086
 1650TIP3    H126441   2.190   6.012   3.074  1.1401  1.2534  1.0868
 1650TIP3    H226442   2.260   5.879   3.053 -0.6384  0.5534 -0.6647
 1651TIP3   OH226443   1.134   3.833  10.527 -0.4568 -0.7664  0.2066
 1651TIP3    H126444   1.122   3.828  10.432 -0.8836 -2.5157  0.3139
 1651TIP3    H226445   1.155   3.743  10.553  0.0966 -0.2288  1.7222
 1652TIP3   OH226446   2.986   0.050   1.564  0.1729 -0.4072 -0.5752
 1652TIP3    H126447   3.072   0.046   1.607  0.2898  1.8551 -0.4516
 1652TIP3    H226448   2.969   0.144   1.555 -0.5968 -0.7682 -4.0013
 1653TIP3   OH226449   1.424   5.944   6.081 -0.2771  0.3268 -0.4986
 1653TIP3    H126450   1.446   5.982   5.996 -0.0035 -0.7269 -0.9162
 1653TIP3    H226451   1.506   5.947   6.130 -0.2509  0.2783 -0.5381
 1654TIP3   OH226452   0.073   0.808  11.755 -0.1330  0.1082  0.2834
 1654TIP3    H126453   0.149   0.865  11.747  0.1513 -0.3350 -0.2238
 1654TIP3    H226454   0.078   0.750  11.679  0.1451 -1.2658  1.3046
 1655TIP3   OH226455   0.232   6.055  14.248 -0.2698  0.3167  0.0898
 1655TIP3    H126456   0.171   5.999  14.295 -1.8226  1.0327 -0.9647
 1655TIP3    H226457   0.178   6.101  14.184  1.4428  0.7721 -1.1143
 1656TIP3   OH226458   1.145   5.786  16.517  0.4804 -0.2035  0.8297
 1656TIP3    H126459   1.149   5.708  16.574  0.8724 -0.5339  0.3655
 1656TIP3    H226460   1.223   5.836  16.541  1.5522 -1.1408 -0.5086
 1657TIP3   OH226461   6.603   5.147  15.000  0.3828 -0.1579  0.1178
 1657TIP3    H126462   6.587   5.241  15.010 -1.5157 -0.1412 -2.1726
 1657TIP3    H226463   6.673   5.128  15.062  0.8599  2.7597  0.6269
 1658TIP3   OH226464   2.549   2.884   1.452  0.4405 -0.2916  0.3237
 1658TIP3    H126465   2.533   2.965   1.405  0.6784  0.2045  1.0698
 1658TIP3    H226466   2.461   2.850   1.472  0.3353  0.0440  0.4407
 1659TIP3   OH226467   6.443   1.255  12.683 -0.1918 -0.0136  0.1900
 1659TIP3    H126468   6.459   1.206  12.764  0.7628  0.0103  0.0182
 1659TIP3    H226469   6.374   1.317  12.707 -0.6808 -0.7278  0.6903
 1660TIP3   OH226470   6.069   2.295   4.192  0.7665  0.2471 -0.2071
 1660TIP3    H126471   6.057   2.217   4.247 -1.4554  0.5949 -0.1030
 1660TIP3    H226472   6.015   2.278   4.115 -1.0911  2.2922  0.5447
 1661TIP3   OH226473   1.684   0.863  14.357  0.6610  0.4568 -0.0069
 1661TIP3    H126474   1.658   0.777  14.324  0.5216  0.2674  0.5878
 1661TIP3    H226475   1.737   0.901  14.286  2.2513 -0.8492  0.4120
 1662TIP3   OH226476   5.090   0.412  15.934  0.5424 -0.0279 -0.5122
 1662TIP3    H126477   5.019   0.349  15.948  1.3665 -0.7343  0.6661
 1662TIP3    H226478   5.068   0.454  15.851 -2.6216  1.5800  0.9573
 1663TIP3   OH226479   2.315   0.264  11.002  0.0114  0.2635  0.4769
 1663TIP3    H126480   2.232   0.305  10.978 -1.0337 -1.7692  0.4169
 1663TIP3    H226481   2.291   0.198  11.066  1.5810 -0.4529  0.3611
 1664TIP3   OH226482   4.066   1.545  12.505  0.0538 -0.1606  0.2539
 1664TIP3    H126483   3.984   1.501  12.525 -0.4202 -0.2975 -1.7294
 1664TIP3    H226484   4.044   1.604  12.432  1.3042  1.2089  0.9316
 1665TIP3   OH226485   5.908   5.610  12.012 -0.2657  0.3151 -0.0049
 1665TIP3    H126486   5.905   5.647  11.924 -2.0809 -2.2067 -1.1101
 1665TIP3    H226487   5.846   5.537  12.010  0.7685 -0.7939  2.9360
 1666TIP3   OH226488   6.161   2.251  12.688 -0.0921  0.6276  0.4317
 1666TIP3    H126489   6.096   2.290  12.630  0.0282  1.4629  0.8309
 1666TIP3    H226490   6.244   2.261  12.640 -0.0697  0.8140  0.5086
 1667TIP3   OH226491   3.337   4.416   1.016 -0.2088 -0.2676 -0.4054
 1667TIP3    H126492   3.245   4.431   1.034 -0.2482 -0.4168 -0.4842
 1667TIP3    H226493   3.353   4.325   1.043  0.0252 -0.0926  0.0586
 1668TIP3   OH226494   5.420   3.841   4.785 -0.2028  0.2137  0.3257
 1668TIP3    H126495   5.403   3.934   4.793 -0.9488  0.1770 -0.6807
 1668TIP3    H226496   5.334   3.800   4.780  0.1130 -0.5279  0.7246
 1669TIP3   OH226497   1.781   2.707  12.847 -0.2127  0.0568 -0.1516
 1669TIP3    H126498   1.776   2.631  12.788 -1.7565 -0.2893  0.3769
 1669TIP3    H226499   1.696   2.709  12.890  0.4685  0.9979  1.2201
 1670TIP3   OH226500   1.668   6.422   2.215  0.6483  0.1546  0.1836
 1670TIP3    H126501   1.707   6.382   2.138 -0.4066 -0.2673 -0.1366
 1670TIP3    H226502   1.602   6.360   2.244  0.0606  0.9598  0.5979
 1671TIP3   OH226503   2.385   2.740   5.438 -0.1242  0.1714 -0.2712
 1671TIP3    H126504   2.367   2.743   5.344  0.0302 -0.4076 -0.3243
 1671TIP3    H226505   2.305   2.773   5.478  0.1987  1.4723 -0.6282
 1672TIP3   OH226506   2.145   6.663   1.512  0.1347  0.3151  0.1887
 1672TIP3    H126507   2.233   6.694   1.489  0.2981 -0.3811 -0.1757
 1672TIP3    H226508   2.088   6.738   1.495  0.7050  0.9118  0.8386
 1673TIP3   OH226509   4.829   1.081   1.053  0.0233  0.0807 -0.3263
 1673TIP3    H126510   4.845   1.164   1.099 -0.4913  0.8394 -1.4790
 1673TIP3    H226511   4.878   1.016   1.104  0.4257  1.0828  0.6095
 1674TIP3   OH226512   1.709   4.183   0.246  0.3869  0.0413 -0.6153
 1674TIP3    H126513   1.671   4.098   0.269 -0.1424  0.2499 -0.7103
 1674TIP3    H226514   1.647   4.221   0.184  1.1619  0.0271 -1.4328
 1675TIP3   OH226515   4.935   2.198   2.267  0.3677  0.5061  0.5756
 1675TIP3    H126516   4.943   2.253   2.189  1.8610  1.5929  1.4546
 1675TIP3    H226517   4.893   2.118   2.235  2.2883  0.2910 -1.6493
 1676TIP3   OH226518   0.978   2.507   4.318 -0.3402 -0.6322  0.4304
 1676TIP3    H126519   1.066   2.496   4.282  0.4731  0.2341  2.0182
 1676TIP3    H226520   0.962   2.427   4.368 -0.3239 -0.6519  0.4037
 1677TIP3   OH226521   2.728   4.999   6.160 -0.5258 -0.8457 -0.1041
 1677TIP3    H126522   2.635   5.020   6.163 -0.2396  0.9197 -1.7259
 1677TIP3    H226523   2.772   5.084   6.163  0.9724 -1.5632 -0.6930
 1678TIP3   OH226524   2.942   2.164   3.276 -0.4959 -0.0542 -0.5294
 1678TIP3    H126525   3.016   2.105   3.282 -0.8093 -0.6895 -2.3345
 1678TIP3    H226526   2.874   2.123   3.330  0.0021 -0.1674  0.0262
 1679TIP3   OH226527   4.705   0.275   1.252 -0.4867 -0.0706 -0.2308
 1679TIP3    H126528   4.655   0.325   1.317 -1.1939 -0.8870 -0.1230
 1679TIP3    H226529   4.767   0.224   1.304 -1.0057 -0.6714 -0.1835
 1680TIP3   OH226530   4.527   1.291   0.389 -0.2679  0.5498  0.6402
 1680TIP3    H126531   4.519   1.386   0.375 -2.5055  0.2230 -0.7531
 1680TIP3    H226532   4.602   1.282   0.448 -0.2095  3.2025  1.0995
 1681TIP3   OH226533   1.684   2.502  15.131 -0.2777  0.4058  0.6827
 1681TIP3    H126534   1.598   2.463  15.142 -0.1013 -0.0465  0.4671
 1681TIP3    H226535   1.669   2.579  15.076 -0.5694  0.4471  0.8178
 1682TIP3   OH226536   4.150   3.381   2.308 -0.4713  0.1583 -0.0069
 1682TIP3    H126537   4.162   3.331   2.389 -0.6660 -1.1241 -0.7297
 1682TIP3    H226538   4.078   3.441   2.326 -0.0949  0.3271  0.9610
 1683TIP3   OH226539   5.911   5.138   2.088 -0.0970  0.2536  0.6826
 1683TIP3    H126540   5.940   5.049   2.110  1.7596  0.7190  0.2482
 1683TIP3    H226541   5.815   5.133   2.093 -0.0811 -1.9223  0.1356
 1684TIP3   OH226542   4.061   5.899  13.473 -0.5622  0.1879  0.2866
 1684TIP3    H126543   4.034   5.817  13.516 -0.2229  0.5420  1.1892
 1684TIP3    H226544   4.027   5.890  13.384  1.0776 -1.7776 -0.2276
 1685TIP3   OH226545   5.364   1.678  14.372  0.3360 -0.0360  0.2891
 1685TIP3    H126546   5.451   1.654  14.402  0.3821  3.0373  3.2620
 1685TIP3    H226547   5.305   1.646  14.440 -0.4775  0.6306 -0.0777
 1686TIP3   OH226548   0.727   0.537  15.146 -0.7313  0.0197 -0.6927
 1686TIP3    H126549   0.781   0.535  15.225  0.2668 -2.0797 -1.3383
 1686TIP3    H226550   0.710   0.630  15.130 -2.3243  0.4806  2.8076
 1687TIP3   OH226551   3.986   3.208   3.814 -0.1658 -0.1243 -0.0411
 1687TIP3    H126552   3.975   3.273   3.883 -1.7972  0.2041 -0.5842
 1687TIP3    H226553   3.901   3.166   3.805  0.3559 -1.0556 -0.9885
 1688TIP3   OH226554   4.215   4.645   4.807 -0.5005 -0.2129 -0.2817
 1688TIP3    H126555   4.125   4.665   4.833  0.3047  2.7502  0.6772
 1688TIP3    H226556   4.225   4.552   4.824 -3.1838 -0.4823  0.2207
 1689TIP3   OH226557   2.530   2.248  10.981 -0.4787 -0.3788 -0.5217
 1689TIP3    H126558   2.595   2.187  10.945 -0.5809 -1.4377  0.9904
 1689TIP3    H226559   2.463   2.255  10.913  0.3994 -0.5633 -1.4331
 1690TIP3   OH226560   3.161   1.452  11.405 -0.0183  0.2308 -0.6013
 1690TIP3    H126561   3.179   1.362  11.377  3.5302  0.8448 -0.7625
 1690TIP3    H226562   3.196   1.457  11.494  0.8070  1.6780 -0.9841
 1691TIP3   OH226563   2.037   0.708  14.480 -0.1426  0.7742 -0.0550
 1691TIP3    H126564   1.989   0.739  14.403  1.5645  0.5121 -1.2695
 1691TIP3    H226565   2.087   0.784  14.510 -0.5230  0.7763  0.6017
 1692TIP3   OH226566   5.025   2.258  16.453  0.2266 -0.2763  0.4365
 1692TIP3    H126567   5.093   2.313  16.492  0.5822  0.4322 -1.1149
 1692TIP3    H226568   4.946   2.312  16.455  0.9608  1.1870 -2.7650
 1693TIP3   OH226569   2.189   4.477   3.614  0.5434 -0.7012 -0.3170
 1693TIP3    H126570   2.177   4.478   3.519  1.4462  1.1019 -0.4612
 1693TIP3    H226571   2.175   4.568   3.641 -3.9292 -1.7810  1.9457
 1694TIP3   OH226572   5.273   4.782   5.515 -0.3588  0.1354 -0.2881
 1694TIP3    H126573   5.353   4.832   5.501 -2.3238  4.4460  2.1968
 1694TIP3    H226574   5.216   4.807   5.442 -0.7451 -0.0193 -0.0412
 1695TIP3   OH226575   4.892   4.561   5.685 -0.4008  0.1294 -0.9497
 1695TIP3    H126576   4.834   4.517   5.624  0.3539 -0.8902 -0.9646
 1695TIP3    H226577   4.964   4.499   5.699  0.4484  1.1563 -0.5753
 1696TIP3   OH226578   3.063   3.582  11.696  0.5486  0.5157 -0.0097
 1696TIP3    H126579   3.056   3.507  11.755 -2.1798 -0.7290 -1.7040
 1696TIP3    H226580   3.135   3.559  11.636 -0.0355 -0.6443 -0.3016
 1697TIP3   OH226581   4.017   3.682   2.774  0.2481  0.3350 -0.2760
 1697TIP3    H126582   4.110   3.659   2.774  0.1001 -0.3673  1.1262
 1697TIP3    H226583   3.985   3.653   2.689  1.1037 -0.2688 -0.4049
 1698TIP3   OH226584   3.972   4.934   2.499 -0.2839 -0.3833 -0.0028
 1698TIP3    H126585   3.915   4.931   2.422  1.7487  3.9378 -1.9901
 1698TIP3    H226586   4.061   4.932   2.464  0.8985 -2.6796  2.6892
 1699TIP3   OH226587   2.512   2.624   5.688 -0.3627 -0.2198  0.3076
 1699TIP3    H126588   2.452   2.696   5.709  1.1223  1.1673  0.0500
 1699TIP3    H226589   2.545   2.595   5.773  1.5138  1.7126  0.3558
 1700TIP3   OH226590   4.321   1.987  12.474  0.6147  0.6322  0.3187
 1700TIP3    H126591   4.312   1.916  12.537  0.1292 -0.3136 -0.7863
 1700TIP3    H226592   4.409   1.976  12.438 -0.5738 -1.5341 -2.2575
 1701TIP3   OH226593   3.452   3.675  11.462 -0.1404  0.1792  0.2249
 1701TIP3    H126594   3.403   3.755  11.439 -0.6079  0.0209  0.6529
 1701TIP3    H226595   3.536   3.707  11.494 -0.8155  0.5747  1.6437
 1702TIP3   OH226596   0.766   6.061  16.254 -0.1460  0.5264  0.3069
 1702TIP3    H126597   0.732   6.057  16.344 -1.0641  0.9535 -0.0077
 1702TIP3    H226598   0.794   5.971  16.235  0.0158  0.4237  1.0020
 1703TIP3   OH226599   1.982   1.745   0.066 -0.0436  0.6341  0.2773
 1703TIP3    H126600   2.028   1.745   0.149 -2.8581  0.6128  1.9588
 1703TIP3    H226601   2.003   1.659   0.027 -1.7361 -1.1107  2.8866
 1704TIP3   OH226602   2.917   6.063   0.024  0.4728 -0.4856  0.5803
 1704TIP3    H126603   2.873   6.085   0.106 -0.6012 -3.6819  0.9682
 1704TIP3    H226604   2.954   6.147  -0.006  1.1419  0.7739  4.3871
 1705TIP3   OH226605   3.157   2.933  16.427  0.1250  0.1266 -0.2249
 1705TIP3    H126606   3.181   2.952  16.518 -0.1075  0.5334 -0.2478
 1705TIP3    H226607   3.123   2.843  16.430 -1.3054  0.6509  0.3602
 1706TIP3   OH226608   5.164   4.620  11.472 -0.3708  0.4143  0.1658
 1706TIP3    H126609   5.109   4.697  11.489 -1.2577  0.4907 -2.5005
 1706TIP3    H226610   5.248   4.657  11.444 -1.1407  0.5459 -2.1946
 1707TIP3   OH226611   3.060   5.273  13.550 -0.6759  0.1774 -0.3105
 1707TIP3    H126612   2.975   5.296  13.588 -1.0787 -1.1900 -0.3244
 1707TIP3    H226613   3.058   5.178  13.544 -0.6226  0.2603 -3.7258
 1708TIP3   OH226614   3.191   3.467  15.641  0.3834 -0.1179 -0.2754
 1708TIP3    H126615   3.116   3.408  15.637  1.9263 -2.1627 -1.0303
 1708TIP3    H226616   3.256   3.427  15.583  1.2686  2.7732 -1.4709
 1709TIP3   OH226617   2.543   1.322   2.159  0.1548 -0.1432 -0.0228
 1709TIP3    H126618   2.535   1.244   2.214 -0.0865 -0.3015 -0.2790
 1709TIP3    H226619   2.608   1.377   2.203 -0.5625  0.0539  0.7999
 1710TIP3   OH226620   1.635   1.008  13.222  0.3242  0.4507  0.5932
 1710TIP3    H126621   1.712   0.953  13.204 -0.5796 -0.7934  0.3946
 1710TIP3    H226622   1.600   1.030  13.136 -0.3021 -0.1157  0.6954
 1711TIP3   OH226623   1.954   3.143   1.336 -0.1666 -0.9906  0.0810
 1711TIP3    H126624   1.955   3.165   1.243  0.2707  1.8714  0.6539
 1711TIP3    H226625   1.866   3.109   1.351 -0.5910 -0.5280 -1.1978
 1712TIP3   OH226626   2.387   0.887  16.266  0.1407 -0.1467 -0.9506
 1712TIP3    H126627   2.477   0.915  16.246 -0.3473  0.8989 -1.8236
 1712TIP3    H226628   2.395   0.835  16.345  1.5502 -0.2588 -1.1356
 1713TIP3   OH226629   0.832   3.651   5.230 -0.8250  0.0885  0.2510
 1713TIP3    H126630   0.806   3.615   5.315 -2.5870  0.2506 -0.1669
 1713TIP3    H226631   0.830   3.746   5.243  1.2665  0.1197  0.6459
 1714TIP3   OH226632   2.613   4.167  15.567 -0.2682  0.6880  0.5610
 1714TIP3    H126633   2.541   4.222  15.537  0.2192  1.2145  0.3326
 1714TIP3    H226634   2.572   4.085  15.593 -0.6444 -0.2055 -2.4489
 1715TIP3   OH226635   4.647   4.214   0.579  0.5940  0.1032  0.2780
 1715TIP3    H126636   4.657   4.286   0.517  1.8375  0.8470  1.2922
 1715TIP3    H226637   4.558   4.223   0.613  0.4927  0.7243 -0.1497
 1716TIP3   OH226638   0.042   2.109  15.053 -1.0586 -0.2532  0.1026
 1716TIP3    H126639   0.118   2.120  14.996 -0.7311 -1.0165  0.3916
 1716TIP3    H226640  -0.032   2.141  15.001 -0.7842 -1.0714 -0.8137
 1717TIP3   OH226641   6.804   4.687   1.748  0.4996 -0.0294 -0.4129
 1717TIP3    H126642   6.842   4.744   1.815 -0.6541  0.6889 -0.3403
 1717TIP3    H226643   6.827   4.599   1.776  0.1461  0.2674  0.8662
 1718TIP3   OH226644   6.011   3.144  13.993  0.4706  0.4188 -0.4496
 1718TIP3    H126645   6.059   3.224  14.016 -0.7829  1.2010 -0.4244
 1718TIP3    H226646   5.950   3.131  14.067 -0.2838  0.2341 -1.0867
 1719TIP3   OH226647   6.151   2.795  14.618  0.3861  0.1184  0.6876
 1719TIP3    H126648   6.144   2.824  14.709  1.0457  0.4868  0.6254
 1719TIP3    H226649   6.141   2.875  14.566 -0.8689 -0.2132  0.3945
 1720TIP3   OH226650   5.958   6.646  16.219  0.0143 -0.2830 -0.6232
 1720TIP3    H126651   5.981   6.700  16.294  0.9633 -0.2762 -0.9001
 1720TIP3    H226652   5.949   6.708  16.146 -0.3562 -0.3464 -0.6331
 1721TIP3   OH226653   4.839   4.417  14.194 -0.1735  0.0836  0.2614
 1721TIP3    H126654   4.765   4.385  14.144 -0.5516  1.0006  0.2227
 1721TIP3    H226655   4.824   4.511  14.204  1.6620  0.5717 -0.9490
 1722TIP3   OH226656   1.813   1.202   0.558  0.3223 -0.1429 -0.0473
 1722TIP3    H126657   1.892   1.248   0.530 -0.4708  2.0420  1.0586
 1722TIP3    H226658   1.844   1.119   0.594  1.8164 -0.5600 -2.1363
 1723TIP3   OH226659   2.320   0.160  10.723 -0.4454 -0.2506  0.2593
 1723TIP3    H126660   2.283   0.224  10.785 -1.4860 -0.4474 -0.1343
 1723TIP3    H226661   2.396   0.205  10.686 -0.7711  0.5131  0.4774
 1724TIP3   OH226662   1.995   1.086   5.298 -0.3229  0.6697  0.2668
 1724TIP3    H126663   2.024   1.056   5.385  1.7058 -0.7704 -0.8212
 1724TIP3    H226664   1.955   1.009   5.258  1.0807  0.5292 -0.9717
 1725TIP3   OH226665   1.255   2.219   3.148  0.3070  0.1496 -0.0175
 1725TIP3    H126666   1.316   2.155   3.110  0.3308 -1.0049  1.8202
 1725TIP3    H226667   1.180   2.218   3.089  1.3432  0.3236 -1.3851
 1726TIP3   OH226668   0.739   6.692   2.827  0.1592  0.2215 -0.3865
 1726TIP3    H126669   0.744   6.771   2.880 -0.1087 -1.3279  2.1033
 1726TIP3    H226670   0.646   6.666   2.830  0.6818 -1.7295  1.3841
 1727TIP3   OH226671   3.850   1.463  15.471  0.4197  0.2365 -0.0090
 1727TIP3    H126672   3.861   1.415  15.389 -2.0358  1.9344 -1.4407
 1727TIP3    H226673   3.766   1.432  15.506  0.3020  1.2386  0.6304
 1728TIP3   OH226674   2.291   0.466   3.408  0.3357 -0.1150  0.8798
 1728TIP3    H126675   2.281   0.479   3.503  1.1024  1.0339  0.8159
 1728TIP3    H226676   2.381   0.491   3.389 -0.1804  0.8884 -0.3511
 1729TIP3   OH226677   6.560   1.789   5.184 -0.1614 -0.2787 -0.0583
 1729TIP3    H126678   6.594   1.840   5.110 -1.5522  2.5283  1.0616
 1729TIP3    H226679   6.636   1.743   5.219  0.9703  0.1140 -1.8820
 1730TIP3   OH226680   2.100   5.352  12.059 -0.1238 -0.0866 -0.2596
 1730TIP3    H126681   2.035   5.289  12.028  0.2304 -0.6108  0.0433
 1730TIP3    H226682   2.102   5.420  11.992  0.3456 -0.9938 -1.2090
 1731TIP3   OH226683   4.214   0.075   5.851  0.2753  0.4308 -0.1082
 1731TIP3    H126684   4.180   0.007   5.792 -2.5678 -0.4680  2.3065
 1731TIP3    H226685   4.272   0.028   5.910  2.6248  1.2233 -1.6231
 1732TIP3   OH226686   5.498   6.555  16.583 -0.4961 -0.3600 -0.4295
 1732TIP3    H126687   5.410   6.591  16.575 -0.2861  0.2275 -0.1562
 1732TIP3    H226688   5.537   6.569  16.497 -0.6125 -0.4812 -0.5033
 1733TIP3   OH226689   6.047   3.483   4.948  0.4626 -0.1125  0.2041
 1733TIP3    H126690   6.084   3.411   4.897  1.6530 -0.3700  1.3976
 1733TIP3    H226691   6.103   3.490   5.025 -1.7428 -0.2520  1.9199
 1734TIP3   OH226692   4.446   4.345  13.799 -0.4498 -0.2888 -0.1625
 1734TIP3    H126693   4.391   4.278  13.839  0.5594 -0.4976  0.8993
 1734TIP3    H226694   4.446   4.324  13.706 -2.3139 -0.1702 -0.2308
 1735TIP3   OH226695   6.789   5.196   4.620 -0.2877  0.0240  0.5979
 1735TIP3    H126696   6.798   5.190   4.715  1.2663  0.6125  0.5142
 1735TIP3    H226697   6.875   5.171   4.586 -0.1448  1.9314 -0.5538
 1736TIP3   OH226698   2.395   2.041  16.078  0.1914  0.5500  0.0026
 1736TIP3    H126699   2.364   2.080  16.159  0.7877  1.3539 -0.1472
 1736TIP3    H226700   2.316   2.023  16.027 -0.1446  0.5796  0.5101
 1737TIP3   OH226701   6.053   2.427  12.256 -0.1592 -0.2856  0.2686
 1737TIP3    H126702   6.134   2.425  12.307 -1.2945  1.0661  2.2581
 1737TIP3    H226703   6.078   2.468  12.174  1.1330  0.3988  0.9667
 1738TIP3   OH226704   2.225   4.504  12.171 -0.1106 -0.3779 -0.3372
 1738TIP3    H126705   2.164   4.453  12.117  0.2810 -1.0636 -0.1426
 1738TIP3    H226706   2.235   4.587  12.125 -0.4951 -0.6066 -0.8354
 1739TIP3   OH226707   4.368   0.294   1.572 -0.0349 -0.2891 -0.1650
 1739TIP3    H126708   4.362   0.355   1.646 -1.4841 -2.5364  1.7302
 1739TIP3    H226709   4.450   0.318   1.528 -0.0609  2.3529  1.0015
 1740TIP3   OH226710   3.811   6.495   1.676 -0.1849  0.8435  0.3418
 1740TIP3    H126711   3.719   6.519   1.689 -0.3681  0.0382  0.5711
 1740TIP3    H226712   3.830   6.432   1.746  0.1839  0.0509 -0.4435
 1741TIP3   OH226713   2.005   5.712   4.404 -0.3661 -1.2436  0.0766
 1741TIP3    H126714   2.004   5.775   4.332 -0.2923 -1.7381 -0.3638
 1741TIP3    H226715   2.019   5.765   4.482  0.0318 -0.7435 -0.3258
 1742TIP3   OH226716   4.100   4.258   0.862 -0.0488  0.2455 -0.1805
 1742TIP3    H126717   4.045   4.187   0.895 -0.6437  1.0460  0.5810
 1742TIP3    H226718   4.046   4.302   0.796  0.2366  0.1308 -0.4934
 1743TIP3   OH226719   2.142   0.081   5.737  0.2993 -0.0874 -0.2679
 1743TIP3    H126720   2.233   0.064   5.761  0.2094 -1.6522 -0.9301
 1743TIP3    H226721   2.104  -0.006   5.724 -1.8266  0.4191  1.8223
 1744TIP3   OH226722   0.064   4.377  13.713 -0.5965  0.2280 -0.0608
 1744TIP3    H126723   0.068   4.427  13.795 -1.8553  0.1773  0.0415
 1744TIP3    H226724  -0.008   4.416  13.664 -0.0002  0.1100 -1.0707
 1745TIP3   OH226725   4.766   2.154   4.807  0.0025  0.2179 -0.4024
 1745TIP3    H126726   4.847   2.120   4.768  0.2014  0.5934 -0.3190
 1745TIP3    H226727   4.712   2.076   4.819  0.4325 -0.0681 -0.2681
 1746TIP3   OH226728   1.010   0.340  14.812 -0.6419  0.1509  0.2482
 1746TIP3    H126729   0.962   0.381  14.740  0.8895  1.1592 -0.2421
 1746TIP3    H226730   0.978   0.250  14.813 -0.5606  0.0405 -1.8538
 1747TIP3   OH226731   6.778   1.371  13.567 -0.0202  0.0425  0.2579
 1747TIP3    H126732   6.810   1.345  13.653 -0.5702 -0.4791  0.3139
 1747TIP3    H226733   6.683   1.361  13.573 -0.3216  2.3703  0.3833
 1748TIP3   OH226734   4.713   1.298   1.417  0.3292  0.6397  0.1716
 1748TIP3    H126735   4.716   1.386   1.456  0.6743  0.5718  0.3022
 1748TIP3    H226736   4.779   1.248   1.466 -0.5222  0.0428  0.7423
 1749TIP3   OH226737   0.903   2.968  12.963  0.4838  0.6656  0.6212
 1749TIP3    H126738   0.870   2.888  13.005  2.6681  0.4031  1.9864
 1749TIP3    H226739   0.898   3.035  13.031  1.3018  0.9818  0.3796
 1750TIP3   OH226740   3.844   0.561  13.605 -0.4541 -0.3740  0.3404
 1750TIP3    H126741   3.802   0.642  13.577  1.3775 -0.2546 -2.3880
 1750TIP3    H226742   3.864   0.514  13.524  1.3775 -2.0600  1.6631
 1751TIP3   OH226743   5.799   5.773   3.427  0.2275 -0.4949  0.2223
 1751TIP3    H126744   5.829   5.776   3.518  1.6659  0.3445 -0.2673
 1751TIP3    H226745   5.735   5.702   3.426 -0.0453 -0.3128  1.9560
 1752TIP3   OH226746   5.433   2.314  11.700 -0.1562 -0.4487 -0.0184
 1752TIP3    H126747   5.498   2.373  11.660 -1.0412 -0.2907 -1.2753
 1752TIP3    H226748   5.419   2.350  11.787  1.0075 -0.1469  0.0632
 1753TIP3   OH226749   5.280   3.113   1.744  0.2467 -0.5498  0.5053
 1753TIP3    H126750   5.311   3.101   1.654  0.3043  1.9600  0.1102
 1753TIP3    H226751   5.195   3.155   1.734  0.3074 -0.1418  1.6239
 1754TIP3   OH226752   6.190   5.958   1.408  0.1481  0.1286 -0.1069
 1754TIP3    H126753   6.193   5.985   1.500  1.3285 -0.0319 -0.0931
 1754TIP3    H226754   6.201   6.039   1.358  0.0690  0.1409 -0.1049
 1755TIP3   OH226755   4.047   3.305   3.412  0.4038 -0.7748  0.6432
 1755TIP3    H126756   3.959   3.268   3.415  0.5228 -1.1401 -0.0730
 1755TIP3    H226757   4.096   3.259   3.480  0.2184 -1.0530  0.5879
 1756TIP3   OH226758   6.601   6.167  15.162  0.3100 -0.1977 -0.2351
 1756TIP3    H126759   6.622   6.229  15.092  2.5594  0.0364  0.5770
 1756TIP3    H226760   6.575   6.087  15.115 -2.5213  1.2148 -1.2901
 1757TIP3   OH226761   1.563   2.963  13.510 -0.0644 -0.0767  0.2766
 1757TIP3    H126762   1.636   3.024  13.507  1.4452 -1.8037  0.0295
 1757TIP3    H226763   1.572   2.912  13.429 -1.1637 -0.7598  0.5663
 1758TIP3   OH226764   3.652   1.266  12.913 -0.3784  0.1237 -0.8946
 1758TIP3    H126765   3.682   1.189  12.864 -1.2003 -1.4098  0.8713
 1758TIP3    H226766   3.659   1.240  13.005  0.2838  2.5755 -0.1844
 1759TIP3   OH226767   6.715   3.560  14.071  0.0713 -0.2585 -0.0242
 1759TIP3    H126768   6.660   3.502  14.019  1.2871 -1.4348 -0.0521
 1759TIP3    H226769   6.668   3.570  14.154 -0.4853 -0.7045 -0.2789
 1760TIP3   OH226770   2.075   2.417  12.477 -0.1394  0.2666  0.7191
 1760TIP3    H126771   2.028   2.427  12.560 -0.8123  0.7094  0.2894
 1760TIP3    H226772   2.008   2.429  12.410  0.5005  0.4127  0.1015
 1761TIP3   OH226773   0.792   1.673   6.373  0.1244 -0.0337 -0.3235
 1761TIP3    H126774   0.871   1.699   6.326  0.7798 -0.8957  0.2646
 1761TIP3    H226775   0.824   1.620   6.446 -0.9676  0.0426  0.2290
 1762TIP3   OH226776   2.460   1.197  13.517 -0.1104 -0.2668  0.1010
 1762TIP3    H126777   2.406   1.147  13.456  0.0272  1.5356 -1.6383
 1762TIP3    H226778   2.529   1.234  13.462  0.8959  0.2630  1.6545
 1763TIP3   OH226779   4.432   3.826   3.987  0.1138 -0.4678  0.2356
 1763TIP3    H126780   4.449   3.833   4.081  1.3938 -1.0585  0.0622
 1763TIP3    H226781   4.367   3.895   3.970  0.4950  0.2187  1.3987
 1764TIP3   OH226782   2.461   0.962   2.802 -0.3229 -0.2819  0.3338
 1764TIP3    H126783   2.501   0.908   2.870  0.7139  0.7602  0.5595
 1764TIP3    H226784   2.404   1.022   2.849  0.1846  0.2573  0.2641
 1765TIP3   OH226785   5.167   4.011  16.466  0.0509  0.3330 -0.0246
 1765TIP3    H126786   5.234   3.952  16.434 -0.8827 -0.0254 -1.3806
 1765TIP3    H226787   5.214   4.092  16.485  1.0065 -0.1929 -0.0792
 1766TIP3   OH226788   0.212   0.624   0.096 -0.4319 -0.0726  0.0651
 1766TIP3    H126789   0.209   0.700   0.038  1.2639 -0.4220 -0.5445
 1766TIP3    H226790   0.305   0.605   0.106 -0.8077 -2.9688 -0.9978
 1767TIP3   OH226791   0.983   4.610   6.174 -0.0980  0.3088 -0.1456
 1767TIP3    H126792   1.031   4.531   6.197 -0.3410  0.4862  1.0415
 1767TIP3    H226793   0.952   4.645   6.258 -2.4174  0.1213 -0.8298
 1768TIP3   OH226794   3.078   3.807  11.304  0.4463 -0.2524 -0.2379
 1768TIP3    H126795   3.127   3.828  11.225  0.0884 -0.5507 -0.5360
 1768TIP3    H226796   3.075   3.711  11.306 -0.3582 -0.2296 -0.3572
 1769TIP3   OH226797   2.284   5.103  11.883 -0.5692  0.7651 -0.1403
 1769TIP3    H126798   2.224   5.073  11.951 -2.2563 -1.4789 -2.3997
 1769TIP3    H226799   2.229   5.152  11.822  0.0961 -0.2669 -1.6274
 1770TIP3   OH226800   4.684   0.354  10.449 -0.1554 -0.4380 -0.2360
 1770TIP3    H126801   4.621   0.282  10.452  0.0163 -0.5669  0.8147
 1770TIP3    H226802   4.768   0.313  10.471 -0.2570  0.2463  1.6653
 1771TIP3   OH226803   5.630   3.123   2.050  0.1117 -0.5360  0.2423
 1771TIP3    H126804   5.683   3.052   2.087  0.3499  0.3249  1.6574
 1771TIP3    H226805   5.689   3.198   2.050  0.1628 -0.5223 -2.1424
 1772TIP3   OH226806   0.955   5.291  12.841  0.4283 -0.0920  0.3593
 1772TIP3    H126807   0.944   5.213  12.786  0.1228  0.6026 -0.6076
 1772TIP3    H226808   0.977   5.360  12.779  0.6280  0.6060  1.1951
 1773TIP3   OH226809   2.419   2.997  13.888 -0.0256  0.4658  0.2895
 1773TIP3    H126810   2.394   3.004  13.980 -1.9056 -1.5645  0.0153
 1773TIP3    H226811   2.503   2.952  13.890  0.1414  0.7904  1.0231
 1774TIP3   OH226812   5.863   3.241  17.002 -0.0235 -0.6036 -0.5708
 1774TIP3    H126813   5.801   3.169  17.012 -0.6289  0.0849  0.9060
 1774TIP3    H226814   5.908   3.246  17.086  1.0661 -0.1852 -1.1535
 1775TIP3   OH226815   4.581   0.474   4.106 -0.0138 -0.6594  0.2780
 1775TIP3    H126816   4.541   0.523   4.035  0.2721 -2.0008 -0.8427
 1775TIP3    H226817   4.642   0.536   4.146 -0.1056  0.0903 -0.7051
 1776TIP3   OH226818   0.376   5.835   0.834 -0.2392  0.1874  0.2435
 1776TIP3    H126819   0.304   5.888   0.799  0.5345  0.5143 -0.9064
 1776TIP3    H226820   0.409   5.787   0.758 -0.6264 -1.6141  1.1803
 1777TIP3   OH226821   5.264   2.807   2.795 -0.5020  0.0151 -0.1716
 1777TIP3    H126822   5.191   2.763   2.753 -1.3495  1.9118 -0.7666
 1777TIP3    H226823   5.328   2.819   2.725  0.0678 -0.8950  0.1649
 1778TIP3   OH226824   6.048   0.037  16.353 -0.2817  0.1149 -0.3746
 1778TIP3    H126825   5.971   0.032  16.410  0.4036 -1.2938  0.4656
 1778TIP3    H226826   6.123   0.028  16.411  0.5330  1.1402 -1.2233
 1779TIP3   OH226827   3.682   5.543   5.491 -0.4178 -0.5374  0.0064
 1779TIP3    H126828   3.708   5.621   5.442 -0.4066 -0.4579  0.1364
 1779TIP3    H226829   3.587   5.552   5.501 -0.2639  0.1145  1.1167
 1780TIP3   OH226830   0.535   4.438  13.719 -0.6700  0.5963 -0.3653
 1780TIP3    H126831   0.605   4.476  13.666 -1.1395 -0.0023 -1.4413
 1780TIP3    H226832   0.573   4.431  13.807 -0.3186  2.8317 -0.2850
 1781TIP3   OH226833   6.167   5.989   3.110  0.1650  0.2947 -0.2396
 1781TIP3    H126834   6.107   5.977   3.036  1.7864 -0.7376 -1.4503
 1781TIP3    H226835   6.134   5.930   3.177  0.3279 -0.9766 -1.2396
 1782TIP3   OH226836   5.746   6.802   0.891  0.1597  0.5521 -0.1872
 1782TIP3    H126837   5.689   6.868   0.932 -1.1345 -0.2425 -0.6313
 1782TIP3    H226838   5.815   6.787   0.956  0.0163  1.7388  0.2664
 1783TIP3   OH226839   3.521   5.482  14.410  0.3867 -0.0763  0.1709
 1783TIP3    H126840   3.514   5.386  14.415 -1.3011 -0.0503 -0.8770
 1783TIP3    H226841   3.554   5.499  14.322  1.4336  0.3033  0.6232
 1784TIP3   OH226842   6.567   6.524   5.707  0.3163 -0.2271  0.5263
 1784TIP3    H126843   6.490   6.475   5.735 -0.0616 -0.8013 -1.3717
 1784TIP3    H226844   6.532   6.598   5.657  0.9597 -0.1652  0.1570
 1785TIP3   OH226845   6.420   0.828   5.451  0.3316  0.2858  0.2670
 1785TIP3    H126846   6.365   0.749   5.443 -0.6621  0.8037  1.5717
 1785TIP3    H226847   6.504   0.795   5.484 -0.6110 -0.1033  2.4484
 1786TIP3   OH226848   1.692   6.165   3.087  0.4028 -0.3312 -0.3823
 1786TIP3    H126849   1.787   6.158   3.086  0.5091  0.9314 -0.8341
 1786TIP3    H226850   1.673   6.220   3.163 -0.0160 -1.0365  0.0373
 1787TIP3   OH226851   1.351   6.068  16.003  0.1067  0.5739 -0.2227
 1787TIP3    H126852   1.320   6.158  15.995 -0.8582  0.6361  2.7215
 1787TIP3    H226853   1.376   6.060  16.095 -1.5211 -2.6186  0.0918
 1788TIP3   OH226854   1.356   2.033  14.361  0.1361  0.0104  0.5220
 1788TIP3    H126855   1.304   2.045  14.282  1.6631  1.8768 -0.2914
 1788TIP3    H226856   1.447   2.040  14.331  0.7534  0.8186  2.4203
 1789TIP3   OH226857   5.998   5.507  10.755  0.1867  0.0651 -0.4719
 1789TIP3    H126858   6.084   5.468  10.768  0.2527 -0.4716 -2.2642
 1789TIP3    H226859   5.936   5.440  10.784  0.3505 -0.4550 -1.2898
 1790TIP3   OH226860   6.401   5.389  11.827 -0.0856  0.2204 -0.0326
 1790TIP3    H126861   6.343   5.336  11.882 -0.3815 -0.2306 -0.7646
 1790TIP3    H226862   6.369   5.478  11.838 -0.2723  0.1083  0.3631
 1791TIP3   OH226863   2.592   0.876   0.058  0.0373  0.7599 -0.2575
 1791TIP3    H126864   2.619   0.829  -0.021  0.5788  0.4074  0.1280
 1791TIP3    H226865   2.555   0.808   0.114 -3.1511  1.4215 -1.3510
 1792TIP3   OH226866   3.445   3.465   1.427  0.2288  0.5721  0.1364
 1792TIP3    H126867   3.450   3.553   1.465 -0.4674  0.8418 -0.3738
 1792TIP3    H226868   3.535   3.433   1.430  0.1744  0.4721  2.2188
 1793TIP3   OH226869   5.418   4.445  13.765  0.2517 -0.2164  0.0424
 1793TIP3    H126870   5.414   4.526  13.715  0.4127  0.1576  0.6295
 1793TIP3    H226871   5.511   4.420  13.762  0.0969 -0.7203 -0.6739
 1794TIP3   OH226872   1.336   0.527   2.568 -0.0343  0.0613 -0.5493
 1794TIP3    H126873   1.329   0.481   2.652  2.4939  0.1732 -0.2194
 1794TIP3    H226874   1.248   0.519   2.530 -0.5977 -2.1171  0.9891
 1795TIP3   OH226875   2.778   6.478  12.406 -0.2537  0.7142 -0.1303
 1795TIP3    H126876   2.765   6.485  12.500 -1.6071 -1.4368 -0.1024
 1795TIP3    H226877   2.872   6.492  12.394  0.1973 -0.3781  1.7052
 1796TIP3   OH226878   3.730   6.546  15.980  0.0912 -0.2566  0.0092
 1796TIP3    H126879   3.745   6.483  16.051 -0.4215 -0.8157 -0.3689
 1796TIP3    H226880   3.643   6.525  15.947 -0.7386  1.6027  0.8359
 1797TIP3   OH226881   6.664   0.063  13.957 -0.1898  0.0052  0.3611
 1797TIP3    H126882   6.589   0.056  13.898  0.0396 -0.0927  0.0802
 1797TIP3    H226883   6.659  -0.015  14.012  0.5733 -0.7883 -0.6726
 1798TIP3   OH226884   3.629   0.196  10.355  0.0384 -0.0760  0.4526
 1798TIP3    H126885   3.546   0.213  10.400 -0.0458 -1.4828  0.8761
 1798TIP3    H226886   3.665   0.120  10.401  0.9970 -0.2041 -0.4920
 1799TIP3   OH226887   5.241   6.323  15.024  0.3653 -0.1753  0.6539
 1799TIP3    H126888   5.209   6.236  14.999 -0.5526  0.1514  0.6791
 1799TIP3    H226889   5.180   6.384  14.983  2.2422  0.5694 -1.2554
 1800TIP3   OH226890   6.420   2.631  16.698 -0.0307 -0.1339  0.0025
 1800TIP3    H126891   6.409   2.726  16.693 -1.6860 -0.3646 -2.2037
 1800TIP3    H226892   6.344   2.601  16.749 -0.8349 -0.4197 -1.3141
 1801TIP3   OH226893   3.759   2.620   0.562 -0.6009 -0.5189 -0.2619
 1801TIP3    H126894   3.788   2.580   0.644  0.2596  1.8189  0.6525
 1801TIP3    H226895   3.681   2.670   0.586 -0.6212 -0.1930 -0.9693
 1802TIP3   OH226896   4.554   6.660   2.464  0.1569  0.3814  0.5661
 1802TIP3    H126897   4.552   6.573   2.503 -0.0752 -0.5061 -1.3177
 1802TIP3    H226898   4.641   6.694   2.485  0.4974 -0.5728  0.7368
 1803TIP3   OH226899   6.593   6.129  15.867  0.3379  0.1519  0.1102
 1803TIP3    H126900   6.528   6.064  15.841 -0.4593  0.2486  1.7454
 1803TIP3    H226901   6.648   6.083  15.931  0.7115  0.6359  0.1433
 1804TIP3   OH226902   1.156   5.493   0.471 -0.1072 -0.5311 -0.1662
 1804TIP3    H126903   1.227   5.493   0.407  0.2982 -0.6355  0.2791
 1804TIP3    H226904   1.190   5.544   0.545 -0.9168  0.3922 -0.4031
 1805TIP3   OH226905   6.228   4.131  15.900  0.4671 -0.0335 -0.7899
 1805TIP3    H126906   6.207   4.147  15.808 -0.2377  0.0028 -0.6277
 1805TIP3    H226907   6.283   4.206  15.925  1.4237 -0.5048 -1.4167
 1806TIP3   OH226908   3.021   3.269   0.662 -0.1353 -0.2211  0.1060
 1806TIP3    H126909   3.022   3.362   0.683  1.8960  0.1498 -1.2563
 1806TIP3    H226910   2.990   3.226   0.741  0.2989  1.5202  1.2634
 1807TIP3   OH226911   4.771   2.793  16.359  0.0220 -0.1105  0.7575
 1807TIP3    H126912   4.804   2.796  16.269  0.8741  0.6405  1.0795
 1807TIP3    H226913   4.769   2.884  16.387 -1.7371 -0.1931  0.9868
 1808TIP3   OH226914   0.469   3.365   5.818 -0.0833 -0.4154  0.2860
 1808TIP3    H126915   0.482   3.332   5.730 -1.4458 -1.8560  0.5896
 1808TIP3    H226916   0.534   3.435   5.827  0.5647 -0.7256 -1.5819
 1809TIP3   OH226917   3.741   3.976  11.568  0.5625 -0.3005  0.3000
 1809TIP3    H126918   3.654   4.012  11.556  0.5212  0.2603  2.0602
 1809TIP3    H226919   3.762   3.993  11.660  2.5681 -0.3263 -0.1132
 1810TIP3   OH226920   4.063   6.221  11.332 -0.1312  0.4329  0.2088
 1810TIP3    H126921   3.998   6.195  11.397  1.6507 -1.9472  1.2026
 1810TIP3    H226922   4.072   6.144  11.275  1.0183  1.0970 -0.5499
 1811TIP3   OH226923   1.162   2.983  16.771  0.0654 -0.1690  0.2579
 1811TIP3    H126924   1.070   2.959  16.782 -0.5639  1.6752 -0.6211
 1811TIP3    H226925   1.181   3.039  16.846  0.0941  0.4343 -0.1911
 1812TIP3   OH226926   2.537   2.006  11.531 -0.3454 -0.4172 -0.0622
 1812TIP3    H126927   2.619   1.987  11.486 -0.3019 -1.1030  0.2861
 1812TIP3    H226928   2.560   2.074  11.595  0.2701 -1.5503  0.9566
 1813TIP3   OH226929   5.425   2.104   3.108 -0.7633  0.1001  0.3565
 1813TIP3    H126930   5.354   2.151   3.063 -1.0564 -1.7122 -1.2004
 1813TIP3    H226931   5.498   2.166   3.109 -0.6609  0.2103 -2.9015
 1814TIP3   OH226932   1.936   2.326   5.174 -0.1658  0.3101 -0.5135
 1814TIP3    H126933   1.920   2.342   5.267  1.8117 -1.0781  0.1226
 1814TIP3    H226934   1.926   2.231   5.164  2.6621 -0.0169 -0.9930
 1815TIP3   OH226935   3.280   0.890   3.240  0.4642 -0.2831  0.2108
 1815TIP3    H126936   3.270   0.919   3.149  2.1101 -0.2766  0.0067
 1815TIP3    H226937   3.370   0.912   3.263  1.2885 -3.6249  0.6209
 1816TIP3   OH226938   2.241   5.569   6.723 -0.2316 -0.0519 -0.5538
 1816TIP3    H126939   2.155   5.539   6.751  0.0831 -0.0261  0.4702
 1816TIP3    H226940   2.297   5.492   6.729  0.3545  0.4690  1.1246
 1817TIP3   OH226941   2.848   4.967   4.924 -0.2182  0.3727  0.3771
 1817TIP3    H126942   2.807   5.011   4.998 -0.1784 -0.7271  1.0769
 1817TIP3    H226943   2.789   4.894   4.904  0.4942 -0.1743  0.2449
 1818TIP3   OH226944   6.703   0.099   1.536  0.3815 -0.3083  0.0906
 1818TIP3    H126945   6.793   0.120   1.512  0.3507  0.3482  0.5299
 1818TIP3    H226946   6.660   0.078   1.453  0.1055  2.5550 -0.5755
 1819TIP3   OH226947   4.803   4.943   3.987  0.0477  0.4575  0.4876
 1819TIP3    H126948   4.871   4.917   4.048  0.9222  0.6261 -0.3932
 1819TIP3    H226949   4.850   4.965   3.907 -1.1511 -0.8034 -0.6078
 1820TIP3   OH226950   6.038   0.592  15.888  0.5016 -0.3130  0.9326
 1820TIP3    H126951   6.107   0.577  15.952  0.2239 -1.9809  0.8724
 1820TIP3    H226952   5.991   0.669  15.921  2.7531  1.2860  0.6203
 1821TIP3   OH226953   0.191   4.267   5.676  0.0298 -0.3889  0.5256
 1821TIP3    H126954   0.195   4.217   5.757  0.6773 -1.2280 -0.0140
 1821TIP3    H226955   0.138   4.214   5.617 -0.9322  0.4906  0.5699
 1822TIP3   OH226956   2.445   2.905  13.035 -0.0070 -0.1665  0.0510
 1822TIP3    H126957   2.387   2.886  13.109 -0.4782 -0.7257 -0.4494
 1822TIP3    H226958   2.501   2.828  13.028 -0.2329 -0.2884 -0.4215
 1823TIP3   OH226959   6.804   4.106   5.499 -0.8058 -0.0677  0.5292
 1823TIP3    H126960   6.739   4.110   5.569  0.4344  0.3891  1.7019
 1823TIP3    H226961   6.825   4.013   5.492 -0.6372 -0.0714  1.0545
 1824TIP3   OH226962   4.910   1.817   5.431 -0.6761 -0.3029 -0.2540
 1824TIP3    H126963   4.898   1.798   5.338  1.3570  2.0282 -1.0851
 1824TIP3    H226964   4.879   1.907   5.441  4.1969  1.6148 -0.0289
 1825TIP3   OH226965   3.331   0.126  15.088 -0.1854  0.3044 -0.2057
 1825TIP3    H126966   3.393   0.142  15.017  0.0446 -0.1067 -0.1002
 1825TIP3    H226967   3.298   0.212  15.111  0.0975  0.4901 -0.4897
 1826TIP3   OH226968   0.479   6.555   4.906 -0.1642 -0.6586  0.1358
 1826TIP3    H126969   0.482   6.560   4.810  1.3770  0.0887  0.1844
 1826TIP3    H226970   0.393   6.520   4.926 -0.1648 -1.7222 -1.5639
 1827TIP3   OH226971   0.987   6.812  14.661  0.4600 -0.0879  0.4208
 1827TIP3    H126972   0.920   6.825  14.594  2.3613  0.1657 -1.5385
 1827TIP3    H226973   1.069   6.806  14.612  1.8520 -0.7546  2.6883
 1828TIP3   OH226974   5.557   0.306  13.374  0.1017 -0.2743  0.2334
 1828TIP3    H126975   5.555   0.392  13.334  1.7945 -0.5704 -0.5800
 1828TIP3    H226976   5.475   0.300  13.424 -1.1225  0.8886 -1.5423
 1829TIP3   OH226977   4.067   3.803  16.166 -0.3406  0.0930  0.1665
 1829TIP3    H126978   4.039   3.824  16.076 -0.5189 -0.9082 -0.0209
 1829TIP3    H226979   4.052   3.709  16.174  0.1988  0.0793  1.0695
 1830TIP3   OH226980   3.805   3.868   2.894 -0.4498  0.0717  0.0137
 1830TIP3    H126981   3.727   3.833   2.852 -0.9108  1.3128 -0.2112
 1830TIP3    H226982   3.785   3.961   2.909  0.3070  0.0140  1.5591
 1831TIP3   OH226983   0.137   4.434  15.626 -0.0342  0.2804  0.1657
 1831TIP3    H126984   0.051   4.438  15.668  0.0975 -0.3234  0.5058
 1831TIP3    H226985   0.119   4.400  15.538 -0.1488  0.1742  0.2292
 1832TIP3   OH226986   4.259   1.795  16.110  0.5487  0.4768 -0.1383
 1832TIP3    H126987   4.220   1.866  16.161 -1.5674 -0.9043  0.3225
 1832TIP3    H226988   4.305   1.742  16.175 -1.6035 -0.9269  0.3395
 1833TIP3   OH226989   0.376   1.642  15.736 -0.6011 -0.6522 -0.7124
 1833TIP3    H126990   0.286   1.676  15.736 -0.3522  0.0217 -1.3140
 1833TIP3    H226991   0.417   1.684  15.811 -0.7423 -0.8698 -0.5071
 1834TIP3   OH226992   2.330   0.903  15.200  0.2275 -0.6001 -0.7754
 1834TIP3    H126993   2.287   0.980  15.238  1.6756 -0.8062  1.3961
 1834TIP3    H226994   2.263   0.834  15.204  0.3917 -0.6829  1.7146
 1835TIP3   OH226995   0.285   4.229  12.696  0.4008 -0.0986  0.0409
 1835TIP3    H126996   0.335   4.180  12.760  1.5512 -0.5623 -1.1661
 1835TIP3    H226997   0.303   4.321  12.715  1.5214 -0.2563 -0.2134
 1836TIP3   OH226998   0.900   5.352   6.062  1.0116 -0.5378 -0.1783
 1836TIP3    H126999   0.840   5.313   5.999 -0.3875  1.2314 -0.0352
 1836TIP3    H227000   0.987   5.339   6.025  0.1891  1.3340 -3.0366
 1837TIP3   OH227001   2.682   1.133  15.263 -0.1935 -0.0147  0.1021
 1837TIP3    H127002   2.708   1.102  15.350 -0.7854  2.4633  1.2496
 1837TIP3    H227003   2.594   1.098  15.251 -0.8002  1.0129  1.3084
 1838TIP3   OH227004   4.503   5.718   5.790 -0.0620  0.0599  0.1097
 1838TIP3    H127005   4.541   5.665   5.720 -0.1260  0.0460  0.0854
 1838TIP3    H227006   4.547   5.687   5.870  0.8255  0.8374 -0.0511
 1839TIP3   OH227007   0.376   4.583  11.970 -0.1583  0.1699 -0.5227
 1839TIP3    H127008   0.391   4.547  11.883 -0.3795 -0.7443 -0.1880
 1839TIP3    H227009   0.282   4.602  11.973 -1.3128 -4.5459  1.1975
 1840TIP3   OH227010   5.818   5.519  14.524  0.2893 -0.7219  0.2204
 1840TIP3    H127011   5.882   5.467  14.475  0.7840 -0.1048  0.2056
 1840TIP3    H227012   5.868   5.560  14.594 -0.2271 -0.7938  0.6350
 1841TIP3   OH227013   0.577   2.216   2.269 -0.0327  0.4166 -0.1699
 1841TIP3    H127014   0.488   2.250   2.260  0.1177  0.5587 -1.1962
 1841TIP3    H227015   0.567   2.135   2.319 -0.6734  0.6998  0.1720
 1842TIP3   OH227016   3.390   1.522  10.885  0.1805  0.3178 -0.4637
 1842TIP3    H127017   3.310   1.573  10.874 -0.5271 -0.7273 -0.3626
 1842TIP3    H227018   3.365   1.451  10.944  0.8628 -0.6805 -1.3410
 1843TIP3   OH227019   3.262   1.271   1.810 -0.4097 -0.0674 -0.3928
 1843TIP3    H127020   3.305   1.225   1.882  1.6914  0.3483 -1.3093
 1843TIP3    H227021   3.250   1.360   1.842 -0.1952 -0.0859 -0.2542
 1844TIP3   OH227022   2.869   2.999  13.674  0.1030 -0.5024  0.4463
 1844TIP3    H127023   2.953   2.987  13.630  0.5443  0.6136  0.9594
 1844TIP3    H227024   2.891   3.030  13.761 -0.8045 -1.6914  1.1411
 1845TIP3   OH227025   1.574   1.006  10.899 -0.5692 -0.1027  0.3494
 1845TIP3    H127026   1.562   0.933  10.960 -1.5426 -1.6131 -1.5000
 1845TIP3    H227027   1.617   0.966  10.823  0.9310  1.7689  0.1596
 1846TIP3   OH227028   0.234   2.049  16.344  0.0559 -0.2934  0.6058
 1846TIP3    H127029   0.215   1.958  16.321 -0.3525 -0.8628  2.9200
 1846TIP3    H227030   0.330   2.054  16.344  0.0734 -0.5795  0.0211
 1847TIP3   OH227031   5.064   5.292  11.509  0.2287 -0.2920  0.1752
 1847TIP3    H127032   5.090   5.240  11.434  1.2466  0.4381 -0.0020
 1847TIP3    H227033   5.115   5.257  11.582  2.1767  1.4435 -0.2645
 1848TIP3   OH227034   0.617   3.364  16.252  0.4120 -0.2249 -0.0949
 1848TIP3    H127035   0.657   3.412  16.324 -0.1693  1.8159 -1.0687
 1848TIP3    H227036   0.688   3.353  16.188 -0.1020  2.0472 -1.1553
 1849TIP3   OH227037   0.136   2.837   6.356 -0.3385 -0.0935  0.5655
 1849TIP3    H127038   0.096   2.767   6.305 -0.9148 -0.3795  1.3853
 1849TIP3    H227039   0.230   2.830   6.339 -0.5637  0.2257 -0.9375
 1850TIP3   OH227040   1.826   6.166   4.158 -0.1446  0.1208 -0.6541
 1850TIP3    H127041   1.783   6.093   4.201 -0.1147  1.0782  1.0965
 1850TIP3    H227042   1.780   6.176   4.075 -2.8230  0.5701  0.7613
 1851TIP3   OH227043   0.390   3.928  12.308  0.0104  0.2740  0.0604
 1851TIP3    H127044   0.401   3.915  12.402  0.3456 -0.1838 -0.0357
 1851TIP3    H227045   0.448   4.000  12.286 -1.5907  1.7759  0.5429
 1852TIP3   OH227046   6.194   0.306   4.088 -0.8049 -0.2764  0.0048
 1852TIP3    H127047   6.103   0.336   4.086 -0.0697  2.1935  0.9798
 1852TIP3    H227048   6.246   0.385   4.097  1.5764 -1.4829 -1.8170
 1853TIP3   OH227049   0.860   5.792   2.433  0.1763 -0.5316 -0.1653
 1853TIP3    H127050   0.872   5.730   2.505  0.6972  0.1769  0.3717
 1853TIP3    H227051   0.810   5.743   2.368  1.3104 -1.7943 -0.1270
 1854TIP3   OH227052   5.281   2.224  13.848  0.9288 -0.1000 -0.0632
 1854TIP3    H127053   5.330   2.292  13.894  0.7312  0.3413 -0.4968
 1854TIP3    H227054   5.291   2.146  13.903  0.5205  0.4676  0.8417
 1855TIP3   OH227055   3.571   3.035  14.997  0.2397 -0.4442  0.0399
 1855TIP3    H127056   3.570   3.102  15.065  0.0136 -0.2530 -0.1530
 1855TIP3    H227057   3.660   3.039  14.962 -0.4122  1.4083 -1.5963
 1856TIP3   OH227058   4.013   3.823  15.112 -0.1783 -0.2904  0.1850
 1856TIP3    H127059   4.084   3.760  15.123  0.6718  0.5874 -0.1121
 1856TIP3    H227060   4.055   3.901  15.075 -1.3454  0.1461 -0.2919
 1857TIP3   OH227061   5.528   4.484  16.099  0.3082 -0.4259 -0.0478
 1857TIP3    H127062   5.458   4.500  16.036  2.4727  0.4625 -2.4056
 1857TIP3    H227063   5.591   4.430  16.051  1.3957 -0.9432  1.8772
 1858TIP3   OH227064   4.591   4.538   0.741  0.8419 -0.3449  0.0779
 1858TIP3    H127065   4.573   4.525   0.834 -0.0225  1.3434  0.1934
 1858TIP3    H227066   4.620   4.629   0.734  2.6583 -0.9527 -1.0998
 1859TIP3   OH227067   1.326   0.502   0.343  0.5899  0.3289 -0.4483
 1859TIP3    H127068   1.279   0.430   0.300  0.0961  0.4798 -0.1618
 1859TIP3    H227069   1.295   0.501   0.433 -1.0426  2.2241 -0.9200
 1860TIP3   OH227070   1.700   3.640   1.553 -0.6907  0.1000  0.1036
 1860TIP3    H127071   1.632   3.645   1.621 -0.4787 -0.9988  0.4218
 1860TIP3    H227072   1.660   3.590   1.482 -0.5106  0.1990 -0.0680
 1861TIP3   OH227073   2.583   3.331  14.054  0.4276 -0.1880  0.2989
 1861TIP3    H127074   2.530   3.275  14.110  1.2416  0.2288  1.5093
 1861TIP3    H227075   2.535   3.413  14.050 -0.0344 -0.4727 -0.3026
 1862TIP3   OH227076   4.113   3.994  14.669 -0.0830  0.6106 -0.2475
 1862TIP3    H127077   4.095   3.996  14.575 -0.0534 -1.4562 -0.3287
 1862TIP3    H227078   4.026   3.990  14.710 -0.0516 -0.4454 -0.2751
 1863TIP3   OH227079   0.418   1.979  14.902  0.5636  0.0802 -0.5801
 1863TIP3    H127080   0.409   1.884  14.908 -1.2025  0.1320 -1.5707
 1863TIP3    H227081   0.457   2.006  14.985 -3.9947 -0.9856  2.2733
 1864TIP3   OH227082   4.109   1.492  11.038  0.7768  0.8111 -0.1745
 1864TIP3    H127083   4.199   1.491  11.006  1.0509  0.5924  0.5809
 1864TIP3    H227084   4.064   1.424  10.987  1.0674  0.8379 -0.4651
 1865TIP3   OH227085   2.531   6.183   2.173  0.1754  0.3937 -0.2208
 1865TIP3    H127086   2.579   6.182   2.090 -0.3521  1.2462 -0.5437
 1865TIP3    H227087   2.585   6.236   2.232  0.1660  0.4371 -0.2514
 1866TIP3   OH227088   2.344   3.820  11.534  0.4737 -0.1505 -0.6863
 1866TIP3    H127089   2.361   3.826  11.440 -0.5566  1.1213 -0.8224
 1866TIP3    H227090   2.256   3.857  11.544 -0.9203 -3.3673  0.3504
 1867TIP3   OH227091   5.251   1.268   3.153 -0.4757  0.6210  0.1294
 1867TIP3    H127092   5.181   1.246   3.215 -0.8032  2.1459  0.3381
 1867TIP3    H227093   5.205   1.304   3.077  0.0831  2.1638  0.4923
 1868TIP3   OH227094   4.197   5.778   3.303 -0.7199 -0.3913  0.1347
 1868TIP3    H127095   4.115   5.805   3.260 -0.3876 -0.0597 -0.2972
 1868TIP3    H227096   4.169   5.745   3.388 -1.3526 -0.6979 -0.1824
 1869TIP3   OH227097   3.578   0.097  15.500  0.6095  0.2070 -0.7069
 1869TIP3    H127098   3.511   0.090  15.432 -0.5534 -1.6047  0.5486
 1869TIP3    H227099   3.555   0.175  15.549  0.0015  0.1395 -0.8801
 1870TIP3   OH227100   2.261   1.591  11.570  0.1449 -0.1646 -0.0359
 1870TIP3    H127101   2.181   1.632  11.537  0.9158  1.8612  0.4828
 1870TIP3    H227102   2.311   1.662  11.609  2.9448 -1.0344 -1.7153
 1871TIP3   OH227103   1.087   0.483  11.362  0.4130 -0.1363  0.3101
 1871TIP3    H127104   1.056   0.556  11.308 -1.1692  0.0578  1.3980
 1871TIP3    H227105   1.160   0.519  11.412 -0.0223  0.5734  0.4557
 1872TIP3   OH227106   0.388   1.339   3.192 -0.4760 -0.1071  0.5148
 1872TIP3    H127107   0.421   1.366   3.278  1.6079  0.3221 -0.3647
 1872TIP3    H227108   0.437   1.259   3.172  0.5708  0.9153 -1.1436
 1873TIP3   OH227109   0.961   2.706  14.086 -0.4891  0.3481 -0.3567
 1873TIP3    H127110   0.968   2.794  14.125 -2.3624  0.7412 -0.8349
 1873TIP3    H227111   0.958   2.722  13.992 -2.0286 -0.0942 -0.4144
 1874TIP3   OH227112   2.436   1.076   4.164 -0.3821  0.5888  0.1932
 1874TIP3    H127113   2.387   0.994   4.158  0.0790  0.2249  1.0739
 1874TIP3    H227114   2.481   1.084   4.080 -0.8514  0.2190 -0.0996
 1875TIP3   OH227115   6.740   0.335   4.863  0.1563  0.2685 -0.1790
 1875TIP3    H127116   6.774   0.393   4.795  1.7609  0.1369  0.4627
 1875TIP3    H227117   6.785   0.362   4.943 -1.4670  0.2240  0.7945
 1876TIP3   OH227118   5.129   2.977   3.264 -0.0468  0.5732 -0.3389
 1876TIP3    H127119   5.180   2.908   3.222 -1.2304  1.2373 -3.0586
 1876TIP3    H227120   5.195   3.036   3.302  1.0523 -0.4815 -0.5417
 1877TIP3   OH227121   6.618   1.694  15.646 -0.1925  0.4079 -0.0530
 1877TIP3    H127122   6.627   1.612  15.693  4.3557  0.7208  0.0343
 1877TIP3    H227123   6.582   1.669  15.561  1.0550 -1.7066 -0.0257
 1878TIP3   OH227124   0.361   0.888  12.016  0.3118 -0.2792 -0.1901
 1878TIP3    H127125   0.415   0.833  12.073  0.3244 -2.3765 -2.1045
 1878TIP3    H227126   0.295   0.829  11.980 -1.0620  1.4613 -0.6513
 1879TIP3   OH227127   4.219   1.798  15.125 -0.1754  0.1142 -0.8127
 1879TIP3    H127128   4.285   1.734  15.097 -0.5161 -0.2396 -0.8182
 1879TIP3    H227129   4.202   1.775  15.217  0.5540  0.9363 -0.4613
 1880TIP3   OH227130   6.097   2.030  12.516  0.1953 -0.2645  0.2809
 1880TIP3    H127131   6.130   2.043  12.427  2.1261  0.5247  1.0424
 1880TIP3    H227132   6.120   2.111  12.562  0.3766 -1.1416  1.8082
 1881TIP3   OH227133   6.723   3.168   2.209 -0.0331  0.2993  0.4495
 1881TIP3    H127134   6.752   3.255   2.237  0.0213  0.8665 -1.2320
 1881TIP3    H227135   6.803   3.125   2.179 -0.3144  0.3773 -0.4427
 1882TIP3   OH227136   2.086   2.922   2.646 -0.2398 -0.0525 -0.4172
 1882TIP3    H127137   2.119   3.009   2.667  0.8494 -0.7874  1.1467
 1882TIP3    H227138   2.028   2.935   2.571 -1.3636  2.2322  0.7590
 1883TIP3   OH227139   2.501   0.877  12.202 -0.0079 -0.3557 -0.4121
 1883TIP3    H127140   2.520   0.892  12.295  0.1991 -0.3767 -0.4493
 1883TIP3    H227141   2.565   0.930  12.155 -0.7441  0.4215 -0.5467
 1884TIP3   OH227142   4.638   5.341  14.767  0.1263 -0.4697  0.3460
 1884TIP3    H127143   4.584   5.410  14.728  0.2921  0.0811  1.0760
 1884TIP3    H227144   4.575   5.279  14.804 -0.0208 -0.6792 -0.2378
 1885TIP3   OH227145   4.351   0.991   5.683  0.3438 -0.3679 -0.2679
 1885TIP3    H127146   4.256   1.002   5.678  0.3198  0.1443  1.0673
 1885TIP3    H227147   4.383   1.077   5.710  0.8600 -1.3900  2.7572
 1886TIP3   OH227148   2.095   0.017   3.296 -0.2415  0.5896  0.1238
 1886TIP3    H127149   2.148   0.096   3.280  0.4077  0.0398 -0.5589
 1886TIP3    H227150   2.140  -0.027   3.368  0.9632 -0.4632 -1.2036
 1887TIP3   OH227151   4.287   1.164   0.792 -0.2895  0.0776 -0.1551
 1887TIP3    H127152   4.249   1.251   0.792 -0.4828 -0.0084 -0.4742
 1887TIP3    H227153   4.317   1.151   0.883 -1.7255 -0.1708  0.3095
 1888TIP3   OH227154   6.829   2.859   6.062 -0.6408  0.1946  0.1350
 1888TIP3    H127155   6.741   2.880   6.095  0.2122  1.1119  1.9666
 1888TIP3    H227156   6.851   2.776   6.105 -0.6668 -0.1448 -0.4908
 1889TIP3   OH227157   0.895   0.355   2.648 -0.1383  0.4906 -0.3515
 1889TIP3    H127158   0.806   0.384   2.630 -0.1167  0.8476  0.1006
 1889TIP3    H227159   0.894   0.261   2.631 -0.1128  0.7827 -2.2236
 1890TIP3   OH227160   1.533   3.459   1.319  0.0727 -0.2609  0.4307
 1890TIP3    H127161   1.472   3.430   1.386 -0.2093 -1.2348 -0.2319
 1890TIP3    H227162   1.492   3.538   1.282  0.8046  0.9931  2.1746
 1891TIP3   OH227163   6.596   2.628   5.697  0.1192  0.4103 -0.1979
 1891TIP3    H127164   6.627   2.711   5.734  1.2528  0.4421 -1.1662
 1891TIP3    H227165   6.518   2.607   5.748  2.2984 -0.2810  3.2089
 1892TIP3   OH227166   5.395   6.068  14.256  0.5523  0.4699 -0.2219
 1892TIP3    H127167   5.445   6.033  14.330  0.7006  1.4075  0.1266
 1892TIP3    H227168   5.426   6.018  14.180  0.5975 -0.3118  0.2975
 1893TIP3   OH227169   4.120   4.348  11.062  0.6269 -0.0357 -0.6357
 1893TIP3    H127170   4.029   4.338  11.088  0.7751  1.2100  0.4735
 1893TIP3    H227171   4.156   4.259  11.065 -0.2736 -0.3876 -0.0074
 1894TIP3   OH227172   4.219   6.543   1.639  0.1963 -0.1228  0.6234
 1894TIP3    H127173   4.265   6.479   1.585 -1.2613 -1.0045  0.3879
 1894TIP3    H227174   4.162   6.589   1.577 -1.2362 -0.9065  1.3161
 1895TIP3   OH227175   3.211   6.484   2.731  0.1059  0.7015 -0.0649
 1895TIP3    H127176   3.127   6.477   2.684 -1.0249 -0.7406  2.0190
 1895TIP3    H227177   3.272   6.434   2.678 -0.8496  0.0793 -0.6130
 1896TIP3   OH227178   2.815   2.139   4.271  0.0166 -0.2167  0.4436
 1896TIP3    H127179   2.788   2.060   4.317  1.7841 -0.1616  1.6900
 1896TIP3    H227180   2.798   2.120   4.178 -1.4776 -1.2299  0.8959
 1897TIP3   OH227181   6.032   4.961   3.007 -0.3665  0.0945  0.1821
 1897TIP3    H127182   6.058   4.920   3.090 -1.0661  1.3731  1.0733
 1897TIP3    H227183   5.939   4.939   2.998 -0.4165  0.3821 -0.0040
 1898TIP3   OH227184   3.611   4.330  16.648  0.5747  0.0951  0.3295
 1898TIP3    H127185   3.705   4.329  16.630  1.0002  2.3289  1.9662
 1898TIP3    H227186   3.604   4.299  16.738 -0.0550  1.4552  0.7719
 1899TIP3   OH227187   3.064   4.200   1.320  0.5284  0.4100 -0.3237
 1899TIP3    H127188   2.980   4.155   1.332  0.5900 -0.0531 -1.4777
 1899TIP3    H227189   3.040   4.290   1.296  0.3760  0.5171  0.2258
 1900TIP3   OH227190   1.946   2.991  11.207  0.2798  0.0550 -0.6500
 1900TIP3    H127191   1.964   3.049  11.133 -0.9333  0.6901 -0.4840
 1900TIP3    H227192   1.912   3.049  11.275  0.3980 -0.6631  0.0339
 1901TIP3   OH227193   4.429   0.940  16.878 -0.3244 -0.2927  0.0399
 1901TIP3    H127194   4.364   0.872  16.859  1.4010 -2.0190 -0.0097
 1901TIP3    H227195   4.401   1.016  16.827 -1.3738 -1.5337 -1.3029
 1902TIP3   OH227196   2.050   3.562   6.109 -0.3852 -0.4069 -0.1126
 1902TIP3    H127197   2.120   3.548   6.174 -2.0568 -3.3222  1.2688
 1902TIP3    H227198   2.084   3.631   6.052  3.3389 -1.2018  0.8431
 1903TIP3   OH227199   5.581   2.559  14.583  0.3880 -0.1036 -0.2815
 1903TIP3    H127200   5.543   2.622  14.522 -0.1472 -0.6052 -0.4771
 1903TIP3    H227201   5.610   2.612  14.658 -4.3690  0.0089  1.8086
 1904TIP3   OH227202   5.103   0.893  13.106  0.1199  0.4936  0.1110
 1904TIP3    H127203   5.163   0.829  13.146  0.2121  0.1463 -0.5733
 1904TIP3    H227204   5.038   0.839  13.061  0.0934  0.8876 -0.3224
 1905TIP3   OH227205   0.732   2.158   3.908  0.1065 -0.3152 -0.1514
 1905TIP3    H127206   0.664   2.187   3.847  0.1859  1.0747  0.4003
 1905TIP3    H227207   0.771   2.239   3.941 -1.5709 -0.8804  3.6439
 1906TIP3   OH227208   5.725   0.891  16.280  0.2078  0.2080 -0.7013
 1906TIP3    H127209   5.789   0.909  16.348 -0.2732 -0.1268 -0.1533
 1906TIP3    H227210   5.727   0.796  16.270  1.1950  0.3380 -2.0711
 1907TIP3   OH227211   3.682   5.784  13.668  0.1253  0.0948  1.0974
 1907TIP3    H127212   3.685   5.778  13.764  1.2907  1.3343  1.1598
 1907TIP3    H227213   3.706   5.874  13.649  0.3920 -0.2736 -0.4003
 1908TIP3   OH227214   3.431   0.405   0.337 -0.6020  0.3985  0.2087
 1908TIP3    H127215   3.372   0.480   0.331 -0.6790  0.7506  3.4033
 1908TIP3    H227216   3.511   0.440   0.377  0.7486 -0.6187 -1.4424
 1909TIP3   OH227217   1.223   6.317  12.273  0.3199  0.2816  0.0661
 1909TIP3    H127218   1.251   6.406  12.252  0.9282 -0.3338 -1.9067
 1909TIP3    H227219   1.127   6.323  12.275  0.2566  0.6325 -1.9481
 1910TIP3   OH227220   2.168   0.179  12.520 -0.3015 -0.0223 -0.4158
 1910TIP3    H127221   2.182   0.266  12.558  0.6302  0.1477 -1.0903
 1910TIP3    H227222   2.092   0.144  12.566 -1.1434  1.4428 -0.6231
 1911TIP3   OH227223   0.816   5.391  12.501  0.1440  0.0272  0.2398
 1911TIP3    H127224   0.795   5.477  12.538 -2.5109 -0.3327 -0.2205
 1911TIP3    H227225   0.792   5.399  12.408  0.6598 -0.9975  0.0069
 1912TIP3   OH227226   2.692   0.182   3.120 -0.0888 -0.6402 -0.3596
 1912TIP3    H127227   2.729   0.113   3.065 -2.5915 -1.4476 -1.1435
 1912TIP3    H227228   2.650   0.136   3.192 -0.1741  0.1836  0.1256
 1913TIP3   OH227229   3.020   5.732   0.010  0.2817 -0.4906 -0.2061
 1913TIP3    H127230   3.096   5.706  -0.042  0.0910 -1.2066 -0.1330
 1913TIP3    H227231   3.028   5.683   0.092  1.0891  1.3332  0.8721
 1914TIP3   OH227232   5.462   4.590  17.022 -0.0344 -0.2637 -0.2180
 1914TIP3    H127233   5.431   4.667  16.975  0.3253 -0.6246 -1.0580
 1914TIP3    H227234   5.385   4.557  17.069 -0.4912 -0.1209 -0.8611
 1915TIP3   OH227235   1.450   0.587   5.770  0.4779 -0.0615 -0.0791
 1915TIP3    H127236   1.520   0.644   5.736 -2.4970  3.0217 -1.7269
 1915TIP3    H227237   1.446   0.515   5.707  0.0795  1.5296 -2.0026
 1916TIP3   OH227238   6.497   4.092  14.354 -0.1878 -0.0905 -0.0339
 1916TIP3    H127239   6.583   4.106  14.315  0.2463 -0.3985  0.8095
 1916TIP3    H227240   6.491   4.156  14.425 -1.2060  0.8520 -0.9317
 1917TIP3   OH227241   2.647   4.356   1.290  0.7322 -0.5095  0.8186
 1917TIP3    H127242   2.706   4.414   1.241 -0.1582  0.3464  0.7388
 1917TIP3    H227243   2.562   4.366   1.247 -0.0546  0.1931  2.4607
 1918TIP3   OH227244   0.763   1.035   1.611  0.0862  0.0616 -0.2208
 1918TIP3    H127245   0.793   0.989   1.689 -2.2083  0.9221  1.2772
 1918TIP3    H227246   0.672   1.060   1.631 -0.5295  0.5041 -3.0888
 1919TIP3   OH227247   5.622   6.405  14.371  0.2651 -0.2531  0.0010
 1919TIP3    H127248   5.644   6.485  14.419  0.1906  0.1192 -0.5849
 1919TIP3    H227249   5.683   6.339  14.407  1.1364  0.3431 -0.3430
 1920TIP3   OH227250   3.600   0.989  17.077 -0.6806  0.2401 -0.0775
 1920TIP3    H127251   3.554   1.035  17.147  0.2876  0.3184  0.5201
 1920TIP3    H227252   3.537   0.987  17.005 -1.4230  0.8160  0.5324
 1921TIP3   OH227253   0.824   3.258  12.899 -0.0209  0.8163 -0.3266
 1921TIP3    H127254   0.870   3.176  12.884 -1.4925  0.2813 -2.3833
 1921TIP3    H227255   0.840   3.309  12.820 -1.7121  1.1805 -0.4670
 1922TIP3   OH227256   6.498   3.359  16.158  0.0666 -0.1202 -0.4125
 1922TIP3    H127257   6.539   3.391  16.239  0.7719 -1.5037 -0.1808
 1922TIP3    H227258   6.562   3.379  16.090 -0.8374  1.7060 -0.8009
 1923TIP3   OH227259   5.903   3.242   6.088  0.3076  0.2668  0.1253
 1923TIP3    H127260   5.920   3.290   6.007  0.3177  0.4290  0.2235
 1923TIP3    H227261   5.984   3.192   6.103  1.3763  2.2819  1.4644
 1924TIP3   OH227262   2.421   3.844   5.426 -0.2913 -0.8294  0.4046
 1924TIP3    H127263   2.486   3.803   5.368 -0.8806 -0.6112 -0.4253
 1924TIP3    H227264   2.343   3.790   5.416 -0.6087 -0.3846  0.4614
 1925TIP3   OH227265   3.230   5.358   0.811 -0.2536  0.5956  0.3343
 1925TIP3    H127266   3.301   5.296   0.798  0.6665  1.7127 -0.2354
 1925TIP3    H227267   3.150   5.306   0.804  0.4323 -0.2853 -1.5701
 1926TIP3   OH227268   3.855   2.983  15.436  0.0054 -0.1177  0.4591
 1926TIP3    H127269   3.787   2.933  15.482 -1.5505 -0.0367 -1.6113
 1926TIP3    H227270   3.915   2.917  15.402 -1.4957 -0.5749 -1.4215
 1927TIP3   OH227271   1.950   6.558  11.849  0.0805  0.2615  0.2082
 1927TIP3    H127272   1.999   6.638  11.830  1.0893 -0.3060  0.3048
 1927TIP3    H227273   1.909   6.575  11.934  1.8983 -0.0098  1.2019
 1928TIP3   OH227274   2.094   3.570   2.735  0.4073 -0.0508 -0.2589
 1928TIP3    H127275   2.086   3.522   2.653 -1.3639 -0.5968  0.1818
 1928TIP3    H227276   2.023   3.537   2.790  1.7885 -0.0014  1.6760
 1929TIP3   OH227277   0.096   4.812  12.573 -0.0779 -0.5004  0.4745
 1929TIP3    H127278   0.139   4.795  12.657 -2.7208  2.0009  2.5478
 1929TIP3    H227279   0.005   4.787  12.587 -0.0998 -2.9429 -2.8098
 1930TIP3   OH227280   2.194   4.184   0.210 -0.2935  0.1625  0.0701
 1930TIP3    H127281   2.125   4.222   0.157  0.4087 -0.9798 -1.7635
 1930TIP3    H227282   2.149   4.138   0.280 -1.3466  0.2210 -0.5584
 1931TIP3   OH227283   1.556   3.295  10.517  0.3872  0.4502  0.0667
 1931TIP3    H127284   1.606   3.337  10.587 -1.8979  2.6754  0.5404
 1931TIP3    H227285   1.604   3.315  10.437  2.5288 -1.2990  0.8124
 1932TIP3   OH227286   2.913   0.706  11.904  0.2182  0.2323 -0.5595
 1932TIP3    H127287   2.890   0.666  11.988  0.8194 -0.6006 -0.7761
 1932TIP3    H227288   2.830   0.739  11.870 -0.9308 -3.3328 -1.6730
 1933TIP3   OH227289   5.099   6.551  14.965  0.2863  0.6102 -0.2703
 1933TIP3    H127290   5.047   6.578  14.889 -0.4456 -0.8195 -0.3111
 1933TIP3    H227291   5.044   6.573  15.040 -0.1933 -0.4152 -0.2930
 1934TIP3   OH227292   6.085   3.999  12.380  0.6232  0.3543  0.2023
 1934TIP3    H127293   6.163   4.046  12.407  1.1389  0.5993 -1.5919
 1934TIP3    H227294   6.112   3.948  12.303 -0.7119 -0.3840  0.1833
 1935TIP3   OH227295   3.987   4.003  11.095 -1.0336 -0.0320 -0.4902
 1935TIP3    H127296   4.022   4.060  11.027  0.0429 -1.7243 -1.3959
 1935TIP3    H227297   3.949   4.064  11.159  0.5256  1.7197 -1.1475
 1936TIP3   OH227298   3.265   1.930  15.910  0.2368 -0.5244 -0.1505
 1936TIP3    H127299   3.219   1.858  15.867 -0.3726  1.2283 -2.6409
 1936TIP3    H227300   3.210   2.006  15.896  1.1211  0.6008  1.9482
 1937TIP3   OH227301   1.498   2.280  13.171 -0.4627 -0.6333  0.0586
 1937TIP3    H127302   1.541   2.244  13.249  0.4996  0.4932  0.0657
 1937TIP3    H227303   1.404   2.274  13.191 -0.2368  0.9058  1.9186
 1938TIP3   OH227304   5.050   0.517   0.013  0.0171 -0.2379  0.3438
 1938TIP3    H127305   5.140   0.520   0.045 -0.1313  1.2892  0.7158
 1938TIP3    H227306   4.997   0.507   0.092 -0.2081  0.7477  0.3392
 1939TIP3   OH227307   1.719   5.584  10.552  0.2833  0.6100  0.1371
 1939TIP3    H127308   1.743   5.662  10.601  0.9392  0.2625  0.3874
 1939TIP3    H227309   1.647   5.611  10.496 -0.0208  1.1882  0.8036
 1940TIP3   OH227310   0.137   1.320   6.463 -0.5979  0.2244 -0.3389
 1940TIP3    H127311   0.069   1.261   6.431  0.7835 -0.8339 -1.4088
 1940TIP3    H227312   0.173   1.275   6.540 -0.3007  0.2182 -0.4829
 1941TIP3   OH227313   2.807   4.360  15.628 -0.1954  0.4270 -0.5696
 1941TIP3    H127314   2.764   4.422  15.686 -1.6756  0.4232 -1.5924
 1941TIP3    H227315   2.742   4.290  15.615  1.3072 -1.2147  0.3107
 1942TIP3   OH227316   6.778   5.268   1.699  0.1065 -0.1057  0.3518
 1942TIP3    H127317   6.700   5.301   1.656 -0.5770  0.2109  1.7688
 1942TIP3    H227318   6.746   5.226   1.779  1.3133 -0.7591  0.5283
 1943TIP3   OH227319   6.254   5.044   2.872 -0.0346 -0.3220  0.4338
 1943TIP3    H127320   6.168   5.019   2.907 -0.6675  1.0681 -0.0484
 1943TIP3    H227321   6.296   5.091   2.944 -0.0315 -0.2611  0.3926
 1944TIP3   OH227322   4.481   5.273  13.380 -0.2199  0.1763 -0.2571
 1944TIP3    H127323   4.556   5.307  13.428  1.0169 -0.0326 -1.9736
 1944TIP3    H227324   4.406   5.319  13.418  1.0370  2.3651 -0.2840
 1945TIP3   OH227325   1.883   1.099  15.501 -0.9439 -0.1362 -0.6452
 1945TIP3    H127326   1.932   1.173  15.463  0.3280 -0.4433  0.3336
 1945TIP3    H227327   1.884   1.033  15.431 -0.9999  0.3040 -1.0730
 1946TIP3   OH227328   1.030   4.614   1.490  0.3458 -0.3162 -0.1948
 1946TIP3    H127329   1.080   4.666   1.553  2.1281 -2.6592  0.4844
 1946TIP3    H227330   1.069   4.636   1.405 -0.2275  0.8275 -0.1802
 1947TIP3   OH227331   2.363   0.655   0.951  0.0974 -0.0640 -0.0175
 1947TIP3    H127332   2.284   0.640   1.002  0.0410  2.0208  0.6185
 1947TIP3    H227333   2.434   0.653   1.014  0.3346 -0.0655 -0.2814
 1948TIP3   OH227334   6.036   5.953  14.579  0.3937  0.0762 -0.2486
 1948TIP3    H127335   5.946   5.985  14.582  0.1593 -0.6484  1.0169
 1948TIP3    H227336   6.028   5.858  14.575  1.1041 -0.0304  0.6035
 1949TIP3   OH227337   3.099   5.484  16.129 -0.0630  0.3702  0.3290
 1949TIP3    H127338   3.127   5.566  16.089 -0.0885  0.7981  1.1700
 1949TIP3    H227339   3.038   5.447  16.067 -0.4624  1.2549  0.1774
 1950TIP3   OH227340   0.036   4.684  10.857  0.3960 -0.5151  0.5228
 1950TIP3    H127341  -0.024   4.678  10.782 -0.3683  0.5159  1.0369
 1950TIP3    H227342   0.081   4.767  10.845  1.6834 -1.2209  0.2048
 1951TIP3   OH227343   3.322   4.755  12.537  0.3871  0.1559 -0.3885
 1951TIP3    H127344   3.295   4.666  12.559  0.7312  0.5324  1.6879
 1951TIP3    H227345   3.240   4.800  12.516 -0.0395 -0.0716  0.7331
 1952TIP3   OH227346   3.370   2.106  16.180  0.5998  0.4054  0.0176
 1952TIP3    H127347   3.388   2.127  16.272  1.2530 -0.6912  0.1498
 1952TIP3    H227348   3.337   2.016  16.182  0.6673  0.3580 -0.8247
 1953TIP3   OH227349   0.947   0.957   6.078  0.1955 -0.2488  0.0885
 1953TIP3    H127350   0.999   0.896   6.026  0.4309 -0.4852  0.5895
 1953TIP3    H227351   1.012   1.018   6.114  0.1561 -0.6523  0.8645
 1954TIP3   OH227352   2.201   3.013  16.298 -0.2712  0.3958  0.1565
 1954TIP3    H127353   2.291   2.986  16.317  0.5476  2.7046 -0.0860
 1954TIP3    H227354   2.206   3.108  16.291 -2.8946  0.6436  0.8178
 1955TIP3   OH227355   5.103   5.915  15.725 -0.2378  0.4640  0.9039
 1955TIP3    H127356   5.192   5.901  15.692 -0.1906  1.9688  0.3100
 1955TIP3    H227357   5.094   6.010  15.729 -1.7693  0.3336  1.1261
 1956TIP3   OH227358   2.512   3.645   0.230  0.2175  0.1992 -0.0845
 1956TIP3    H127359   2.584   3.648   0.167 -1.0638  1.1750 -1.5735
 1956TIP3    H227360   2.445   3.593   0.186 -1.0781  1.7248  0.0213
 1957TIP3   OH227361   6.287   1.793   5.151 -0.4916  0.5239 -0.2917
 1957TIP3    H127362   6.378   1.795   5.181 -0.4342  0.4489 -0.4554
 1957TIP3    H227363   6.236   1.771   5.229 -0.4121  0.9922 -0.1055
 1958TIP3   OH227364   6.775   5.326   3.145 -0.1984  0.6384 -0.8729
 1958TIP3    H127365   6.866   5.296   3.152  0.1106  1.7566  0.0987
 1958TIP3    H227366   6.780   5.407   3.095 -0.4734  1.4893  0.4376
 1959TIP3   OH227367   3.819   1.668  17.035  0.0511  0.3365 -0.3001
 1959TIP3    H127368   3.782   1.581  17.021 -1.1760  0.8564 -0.4342
 1959TIP3    H227369   3.743   1.722  17.056  0.5804  1.7198 -1.7988
 1960TIP3   OH227370   0.600   4.864  15.869 -0.1104 -0.1180  0.2070
 1960TIP3    H127371   0.527   4.866  15.808 -0.1702  0.0626  0.2819
 1960TIP3    H227372   0.560   4.848  15.955  0.0355 -1.0463  0.1126
 1961TIP3   OH227373   2.968   1.958  15.267 -0.4482 -0.0876 -0.6341
 1961TIP3    H127374   2.917   2.029  15.307  0.0346 -1.3213  2.4965
 1961TIP3    H227375   3.058   1.992  15.264 -0.5125  0.0675 -0.8042
 1962TIP3   OH227376   5.987   5.883  13.553 -0.9644  0.3609 -0.0405
 1962TIP3    H127377   5.895   5.861  13.538 -0.8883 -0.0136  0.0352
 1962TIP3    H227378   5.993   5.896  13.647 -0.6040 -1.2099  0.1735
 1963TIP3   OH227379   6.802   0.416   1.369 -0.8960  0.0973  1.0331
 1963TIP3    H127380   6.851   0.495   1.392  3.3770 -1.8324 -0.3806
 1963TIP3    H227381   6.786   0.425   1.275 -0.2328 -0.7433  0.8330
 1964TIP3   OH227382   0.950   3.990   2.453  0.1377  0.1242  0.8035
 1964TIP3    H127383   0.966   4.074   2.409 -2.2005  0.9223  1.3562
 1964TIP3    H227384   1.000   3.997   2.534  0.5342  0.6886  0.5223
 1965TIP3   OH227385   4.280   5.984  10.794  0.0406  0.4218  0.2781
 1965TIP3    H127386   4.361   6.034  10.786 -0.8086  1.7638 -0.3514
 1965TIP3    H227387   4.237   6.021  10.871 -0.4444  0.4559 -0.0019
 1966TIP3   OH227388   0.301   2.254   0.165  0.1960 -0.4793 -0.1268
 1966TIP3    H127389   0.219   2.244   0.118  1.3312 -1.1102 -2.0815
 1966TIP3    H227390   0.307   2.348   0.183 -1.9607 -0.6616  2.1014
 1967TIP3   OH227391   6.530   1.253   5.414  0.3485  0.1558 -0.3815
 1967TIP3    H127392   6.494   1.337   5.385 -0.6276 -0.3253 -0.5890
 1967TIP3    H227393   6.483   1.187   5.363  0.3962 -0.5797  0.4959
 1968TIP3   OH227394   6.324   4.717  12.788  0.1352 -0.3431 -0.3185
 1968TIP3    H127395   6.314   4.644  12.849  0.7137 -0.0975  0.0827
 1968TIP3    H227396   6.281   4.790  12.831 -0.0414 -0.3355 -0.5086
 1969TIP3   OH227397   6.222   4.761  16.014  0.4470  0.1051  0.4165
 1969TIP3    H127398   6.166   4.685  16.032 -2.0379  0.6424 -3.6047
 1969TIP3    H227399   6.190   4.828  16.074 -0.9073 -0.6053  0.5469
 1970TIP3   OH227400   0.436   3.221   2.133 -0.9303 -0.0933 -0.2804
 1970TIP3    H127401   0.454   3.258   2.219 -0.8247 -3.6614  1.3977
 1970TIP3    H227402   0.505   3.256   2.077 -0.2497  1.3189  1.3527
 1971TIP3   OH227403   3.072   1.230  15.934  0.0021  0.8362 -0.4411
 1971TIP3    H127404   3.080   1.239  15.839 -0.4249  2.1779 -0.3660
 1971TIP3    H227405   2.978   1.221  15.949  0.1202 -0.0237 -0.1866
 1972TIP3   OH227406   5.470   2.809   2.632 -0.2057  0.5877  0.0142
 1972TIP3    H127407   5.470   2.905   2.640  3.3438  0.7435 -0.0390
 1972TIP3    H227408   5.552   2.790   2.586 -2.3132 -2.3504 -2.9666
 1973TIP3   OH227409   6.232   3.488   4.552 -0.1115  0.9656 -0.6342
 1973TIP3    H127410   6.230   3.518   4.642  0.8123 -0.6164 -0.0469
 1973TIP3    H227411   6.319   3.511   4.520 -0.6252  2.0278 -1.3366
 1974TIP3   OH227412   3.580   0.365  16.043 -0.0128  0.1284 -0.4604
 1974TIP3    H127413   3.621   0.279  16.041  1.3242  0.7380 -3.2873
 1974TIP3    H227414   3.488   0.348  16.066  0.8056 -1.6734  1.8568
 1975TIP3   OH227415   0.290   6.595   3.718  0.1370  0.0716  0.5486
 1975TIP3    H127416   0.247   6.668   3.765 -1.3834 -2.1363  2.8661
 1975TIP3    H227417   0.239   6.585   3.638  1.3757  2.5045 -0.6391
 1976TIP3   OH227418   6.055   1.777  13.320  0.5967  0.4464 -0.8108
 1976TIP3    H127419   5.975   1.770  13.268  0.6537  0.6862 -0.9304
 1976TIP3    H227420   6.107   1.844  13.276  0.3149  1.2229 -0.0009
 1977TIP3   OH227421   2.472   1.698  15.752  0.5727  0.0593 -0.2415
 1977TIP3    H127422   2.566   1.700  15.770  0.3629 -1.6522  1.2236
 1977TIP3    H227423   2.459   1.617  15.703 -0.0370  0.7669 -1.2976
 1978TIP3   OH227424   6.069   1.787   1.159 -0.6039  0.9415 -0.7287
 1978TIP3    H127425   6.000   1.852   1.144 -0.0368  1.7402 -0.0015
 1978TIP3    H227426   6.104   1.769   1.072 -0.3359  2.1066 -0.8809
 1979TIP3   OH227427   4.049   4.227   4.499 -0.5261 -0.1407  0.1805
 1979TIP3    H127428   3.958   4.257   4.499  0.6048  3.8786  0.0400
 1979TIP3    H227429   4.084   4.255   4.414  0.7696 -2.0751  0.0133
 1980TIP3   OH227430   4.607   2.181   2.508  0.0956  0.2828 -0.1717
 1980TIP3    H127431   4.655   2.105   2.542  0.9423  0.5868 -0.6528
 1980TIP3    H227432   4.520   2.148   2.488  0.1052 -0.2973  0.6942
 1981TIP3   OH227433   2.419   5.575  11.317 -0.4079 -0.3457 -0.4436
 1981TIP3    H127434   2.482   5.638  11.350 -1.1153  0.5561 -0.7957
 1981TIP3    H227435   2.355   5.627  11.268 -1.5087 -1.2081  0.0244
 1982TIP3   OH227436   4.277   2.319  11.903 -0.3636 -0.0994 -0.7201
 1982TIP3    H127437   4.186   2.324  11.873 -0.3670 -0.6938 -0.8118
 1982TIP3    H227438   4.292   2.404  11.945 -1.7351 -0.8571  1.5042
 1983TIP3   OH227439   3.478   2.133   4.438 -0.3067  0.6959 -0.1115
 1983TIP3    H127440   3.534   2.207   4.417  1.5467 -0.6644 -0.2025
 1983TIP3    H227441   3.466   2.139   4.533  0.1176  0.9225 -0.0699
 1984TIP3   OH227442   4.803   0.067   3.620 -0.5762  0.2804 -0.7292
 1984TIP3    H127443   4.861  -0.004   3.651  0.4597  1.2817 -0.2864
 1984TIP3    H227444   4.853   0.109   3.550 -1.4413  0.2125 -1.4008
 1985TIP3   OH227445   6.449   1.391  14.944 -0.1776 -0.8551  0.4274
 1985TIP3    H127446   6.520   1.456  14.943  0.9491 -2.0452 -0.6059
 1985TIP3    H227447   6.457   1.345  14.861 -1.7041 -1.5470  0.6223
 1986TIP3   OH227448   2.492   2.711   3.705 -0.1070 -0.1861  0.3099
 1986TIP3    H127449   2.516   2.693   3.796 -2.4591 -2.3663  0.6065
 1986TIP3    H227450   2.486   2.625   3.664 -0.6855  0.6609 -1.5077
 1987TIP3   OH227451   5.254   1.175  11.102 -0.4305 -0.0479  0.0233
 1987TIP3    H127452   5.338   1.131  11.114 -0.5739 -0.6189 -0.9675
 1987TIP3    H227453   5.203   1.115  11.048 -1.8165 -0.1233  1.3514
 1988TIP3   OH227454   0.543   0.794  14.508  0.8487  0.1277  0.4414
 1988TIP3    H127455   0.538   0.763  14.598  2.0421  0.0237  0.4843
 1988TIP3    H227456   0.557   0.888  14.515  1.3074  0.0657  0.3704
 1989TIP3   OH227457   0.480   6.498   4.644 -0.4502  0.1723  0.1982
 1989TIP3    H127458   0.503   6.572   4.588 -1.1995  0.4090  0.1808
 1989TIP3    H227459   0.555   6.439   4.640 -1.1183 -0.6144 -2.3633
 1990TIP3   OH227460   3.978   5.271  16.342  0.9462 -0.2142 -0.2194
 1990TIP3    H127461   3.910   5.264  16.409  0.2528 -0.5874 -0.9298
 1990TIP3    H227462   4.053   5.308  16.387  0.3277  0.0369  0.6383
 1991TIP3   OH227463   1.048   1.099   3.519  0.1459  0.3928  0.4458
 1991TIP3    H127464   1.080   1.162   3.454 -0.9474  0.4184 -0.0817
 1991TIP3    H227465   1.099   1.020   3.503  1.7250  1.1737  1.2815
 1992TIP3   OH227466   3.960   3.125   5.567  0.0568 -0.3413 -0.2650
 1992TIP3    H127467   4.015   3.131   5.489  0.2985 -1.7767 -0.2203
 1992TIP3    H227468   3.931   3.215   5.582  0.7372  0.1053 -1.4750
 1993TIP3   OH227469   1.133   4.802  10.453  0.2692  0.3169  0.3454
 1993TIP3    H127470   1.120   4.722  10.504  0.3495 -0.1776 -0.3890
 1993TIP3    H227471   1.225   4.825  10.468  0.3592  0.0387  0.2454
 1994TIP3   OH227472   3.015   2.177   6.481 -0.5866 -0.2356  0.4617
 1994TIP3    H127473   3.029   2.106   6.417 -1.6265  0.7376 -0.9043
 1994TIP3    H227474   3.072   2.247   6.451 -0.2201 -0.1712  1.2975
 1995TIP3   OH227475   2.705   5.162  16.631  0.3929  0.6024  0.4505
 1995TIP3    H127476   2.722   5.237  16.575  0.5773 -0.9921 -1.7698
 1995TIP3    H227477   2.620   5.128  16.602  0.8920 -0.7720  0.5091
 1996TIP3   OH227478   3.283   5.398   1.607  0.5241 -0.5495 -0.0032
 1996TIP3    H127479   3.189   5.382   1.605  0.4413  0.0228 -1.2395
 1996TIP3    H227480   3.296   5.459   1.679 -0.1153 -0.2423 -0.1481
 1997TIP3   OH227481   4.808   0.977   5.028 -0.2826 -0.1199  0.3333
 1997TIP3    H127482   4.869   0.904   5.015 -1.0223 -0.5875 -0.7074
 1997TIP3    H227483   4.829   1.011   5.114 -0.8041 -2.4567  1.4728
 1998TIP3   OH227484   1.382   4.006  14.198 -0.1933 -0.4237 -0.0038
 1998TIP3    H127485   1.465   3.974  14.164 -1.2593 -2.1224 -1.1575
 1998TIP3    H227486   1.376   3.971  14.287  1.2409  1.5032  0.9102
 1999TIP3   OH227487   4.595   1.534   1.532 -0.1894 -0.0830 -0.0839
 1999TIP3    H127488   4.631   1.580   1.608 -0.0578  0.0791 -0.2446
 1999TIP3    H227489   4.503   1.562   1.529 -0.2777 -0.3460  0.2108
 2000TIP3   OH227490   4.017   2.603  15.663  0.0952 -1.0188 -0.1564
 2000TIP3    H127491   4.095   2.632  15.710 -0.9508  0.3686  0.8435
 2000TIP3    H227492   4.030   2.634  15.573  0.1849  0.2832  0.2854
 2001TIP3   OH227493   1.107   2.829  12.653  0.1156 -0.4194 -0.6303
 2001TIP3    H127494   1.136   2.762  12.715 -0.7736 -1.6917 -1.5299
 2001TIP3    H227495   1.170   2.825  12.581  0.1543 -0.1680 -0.6113
 2002TIP3   OH227496   6.621   4.812  13.661 -0.1204  0.1929  0.1011
 2002TIP3    H127497   6.630   4.805  13.566  0.0980 -1.4201  0.2078
 2002TIP3    H227498   6.545   4.869  13.674  0.4771  1.2676 -1.0169
 2003TIP3   OH227499   6.468   2.532  11.352  0.1832  0.0908 -0.4573
 2003TIP3    H127500   6.459   2.517  11.446 -0.1768  1.3009 -0.2794
 2003TIP3    H227501   6.558   2.506  11.331  0.1736 -0.4527  0.1598
 2004TIP3   OH227502   5.514   4.442  15.473  0.5082 -0.1037 -0.9116
 2004TIP3    H127503   5.550   4.520  15.431  2.0105 -0.5607 -0.5337
 2004TIP3    H227504   5.421   4.461  15.482  0.6419  1.1706 -1.8496
 2005TIP3   OH227505   6.144   4.989  16.143 -0.7453  0.3990  0.9490
 2005TIP3    H127506   6.152   5.083  16.160 -1.4462  0.5730  0.3909
 2005TIP3    H227507   6.055   4.979  16.109 -0.0075 -0.1695 -0.9001
 2006TIP3   OH227508   3.055   4.260  16.048 -0.2155 -0.2682 -0.4256
 2006TIP3    H127509   3.057   4.218  15.962  0.6347 -0.0080 -0.5472
 2006TIP3    H227510   3.132   4.224  16.093  1.2730  2.0486 -0.9806
 2007TIP3   OH227511   0.972   1.622   0.741  0.3066 -0.1906 -0.3362
 2007TIP3    H127512   1.018   1.563   0.800  2.7385  0.6497 -1.2774
 2007TIP3    H227513   1.031   1.633   0.666 -2.0139 -0.0507 -2.2680
 2008TIP3   OH227514   0.751   2.366  13.824  0.1763  0.4527 -1.0351
 2008TIP3    H127515   0.828   2.424  13.824 -0.8383  1.8708 -0.3118
 2008TIP3    H227516   0.702   2.392  13.902 -0.4186 -1.2976 -0.7870
 2009TIP3   OH227517   3.763   4.239   1.591  0.0490  0.0700  0.7406
 2009TIP3    H127518   3.675   4.239   1.629 -0.0842  1.1226  0.4819
 2009TIP3    H227519   3.821   4.248   1.667 -0.0661 -0.6305  0.9129
 2010TIP3   OH227520   5.998   4.034  15.385  0.2922 -0.5599  0.0596
 2010TIP3    H127521   6.083   4.077  15.380 -1.1085  2.9046  2.4580
 2010TIP3    H227522   6.010   3.966  15.451  0.7804  1.3286  2.0160
 2011TIP3   OH227523   1.034   1.854  14.306  0.0071  0.6528  0.3211
 2011TIP3    H127524   0.959   1.795  14.313  0.4793 -0.2712 -1.5291
 2011TIP3    H227525   1.107   1.803  14.341  0.1175  0.7686  0.2585
 2012TIP3   OH227526   5.244   2.706  10.819  0.8087 -0.5701  0.6374
 2012TIP3    H127527   5.250   2.722  10.725  4.3343 -3.4166  0.2011
 2012TIP3    H227528   5.160   2.661  10.830  0.5754 -0.6646 -1.1952
 2013TIP3   OH227529   4.990   2.646   5.847 -0.5462 -0.2074 -0.5678
 2013TIP3    H127530   5.070   2.640   5.900 -1.9945  0.7825  1.8877
 2013TIP3    H227531   4.954   2.558   5.847  0.1023 -0.4794 -0.9816
 2014TIP3   OH227532   6.452   4.382  10.756  0.3445 -0.2903 -0.1822
 2014TIP3    H127533   6.529   4.419  10.798  1.1541 -2.2477  0.1418
 2014TIP3    H227534   6.433   4.302  10.805 -1.2981 -0.3858 -0.8888
 2015TIP3   OH227535   1.126   0.672   5.715  0.2012 -0.0132 -0.3687
 2015TIP3    H127536   1.113   0.678   5.810 -1.6366 -4.1079 -0.1509
 2015TIP3    H227537   1.070   0.741   5.679 -0.6885  0.3215  1.5171
 2016TIP3   OH227538   3.038   2.936  14.693  0.3814  0.4650 -0.4514
 2016TIP3    H127539   3.119   2.896  14.723  0.0887  0.0923 -0.1509
 2016TIP3    H227540   3.054   2.957  14.601  1.8555  3.0448  0.2925
 2017TIP3   OH227541   0.094   5.771   4.890 -0.1741 -0.0295 -0.0878
 2017TIP3    H127542   0.123   5.834   4.823  0.5253  1.1658  1.2857
 2017TIP3    H227543   0.137   5.689   4.865  2.2675  1.0396  0.3462
 2018TIP3   OH227544   5.856   4.496  14.626 -0.4308 -0.4740 -0.4807
 2018TIP3    H127545   5.902   4.418  14.658  0.0527  0.0835  0.2063
 2018TIP3    H227546   5.895   4.512  14.540  0.8409  0.1078  0.1751
 2019TIP3   OH227547   4.537   2.507  14.458  0.3912  0.5932 -0.0767
 2019TIP3    H127548   4.508   2.472  14.374 -1.6996  0.8738  0.4580
 2019TIP3    H227549   4.608   2.449  14.485  0.2707 -0.2500 -1.4529
 2020TIP3   OH227550   4.640   5.235  15.941 -0.2538 -0.1611 -0.4242
 2020TIP3    H127551   4.720   5.183  15.950 -0.1742  0.1333  0.7309
 2020TIP3    H227552   4.569   5.171  15.945 -0.0857 -0.3926 -1.1467
 2021TIP3   OH227553   4.230   2.675   4.357 -0.0190 -0.3087  0.4049
 2021TIP3    H127554   4.253   2.743   4.294 -0.7313 -1.5323 -1.2556
 2021TIP3    H227555   4.134   2.677   4.360 -0.0019  0.5522  2.4659
 2022TIP3   OH227556   6.492   3.081  16.148 -0.2855 -0.2581 -0.4312
 2022TIP3    H127557   6.512   3.174  16.144 -1.1871 -0.0709 -0.6626
 2022TIP3    H227558   6.518   3.047  16.062  2.2410 -0.6934  0.4260
 2023TIP3   OH227559   0.454   5.040  13.722 -0.0921  0.2229 -0.6402
 2023TIP3    H127560   0.530   4.984  13.740 -1.4473 -1.3616  0.3846
 2023TIP3    H227561   0.470   5.119  13.773  1.1011  0.1196 -0.8277
 2024TIP3   OH227562   0.157   2.885  14.889 -0.1627 -0.1110  0.7318
 2024TIP3    H127563   0.104   2.885  14.969 -1.2164  0.9882  0.0742
 2024TIP3    H227564   0.134   2.967  14.845 -0.7357 -1.3195 -1.3994
 2025TIP3   OH227565   5.783   0.264  12.878  0.8484  0.5276  0.0410
 2025TIP3    H127566   5.764   0.174  12.905  0.5270  0.5866  0.0101
 2025TIP3    H227567   5.699   0.308  12.880  1.1261  1.0564  0.8836
 2026TIP3   OH227568   6.201   0.149   2.100  0.0489 -0.0180  0.4810
 2026TIP3    H127569   6.203   0.056   2.076 -0.3138 -0.1394  0.8947
 2026TIP3    H227570   6.238   0.195   2.024 -0.4076 -0.4436 -0.0043
 2027TIP3   OH227571   5.012   2.956  15.825  0.7976  0.5586  0.2088
 2027TIP3    H127572   5.039   2.867  15.802 -2.4042 -0.8882  1.5380
 2027TIP3    H227573   4.919   2.960  15.803  0.1048  2.5360  2.9958
 2028TIP3   OH227574   4.905   2.853  15.225  0.3042  0.1703  0.2595
 2028TIP3    H127575   4.916   2.786  15.292 -1.1082  0.3323  0.6878
 2028TIP3    H227576   4.926   2.809  15.143  0.7562 -0.3949  0.6704
 2029TIP3   OH227577   1.368   6.476   2.186 -0.1548  0.6149  0.0068
 2029TIP3    H127578   1.460   6.484   2.163 -0.1101 -0.7137 -0.3921
 2029TIP3    H227579   1.320   6.500   2.107 -0.0992 -0.1280 -0.2624
 2030TIP3   OH227580   6.690   3.015  15.969 -0.7446 -0.6109 -0.0598
 2030TIP3    H127581   6.765   3.047  16.019 -0.5825 -0.1714 -0.5777
 2030TIP3    H227582   6.721   2.932  15.930 -1.0234 -1.1901  0.9284
 2031TIP3   OH227583   5.446   2.317  12.407 -0.1649  0.3588 -0.2221
 2031TIP3    H127584   5.520   2.377  12.404  0.4071 -0.3621 -1.1639
 2031TIP3    H227585   5.453   2.276  12.493  0.4544  0.4068 -0.2397
 2032TIP3   OH227586   5.310   6.480  15.596 -0.2048  0.1045  0.4915
 2032TIP3    H127587   5.371   6.516  15.531  1.7235 -3.5784 -0.0167
 2032TIP3    H227588   5.361   6.473  15.676 -0.5372 -1.2120  0.6111
 2033TIP3   OH227589   3.627   2.098   0.417 -0.1553 -0.4944 -0.0033
 2033TIP3    H127590   3.615   2.174   0.361  2.4682 -1.4443 -2.0478
 2033TIP3    H227591   3.601   2.024   0.361  0.1016 -1.3149  0.9424
 2034TIP3   OH227592   4.718   4.506   1.941  0.4400 -0.1641 -0.0335
 2034TIP3    H127593   4.656   4.557   1.890  2.4833  1.6859 -0.8320
 2034TIP3    H227594   4.781   4.475   1.876 -0.1166 -2.8549  0.6017
 2035TIP3   OH227595   0.659   0.931  14.896 -0.3993 -0.3493 -0.3656
 2035TIP3    H127596   0.683   0.896  14.982 -0.9033 -3.2585 -1.2830
 2035TIP3    H227597   0.567   0.955  14.906 -0.4387 -0.6115 -0.0456
 2036TIP3   OH227598   5.956   4.862  12.712  0.1801 -0.0945 -0.2591
 2036TIP3    H127599   5.872   4.892  12.747 -0.1297 -0.5179 -0.6238
 2036TIP3    H227600   6.006   4.943  12.697 -0.2874  0.1826 -0.3432
 2037TIP3   OH227601   3.696   5.983  11.831 -0.1254  0.3351  0.2312
 2037TIP3    H127602   3.650   5.913  11.785  0.6908  0.0471 -0.1771
 2037TIP3    H227603   3.687   5.962  11.923 -1.6161  0.8039  0.2154
 2038TIP3   OH227604   5.234   5.086  11.411 -0.1998 -0.2214 -0.2740
 2038TIP3    H127605   5.300   5.026  11.447 -1.7583 -0.5386  2.2622
 2038TIP3    H227606   5.160   5.030  11.388 -1.9718  0.6347  2.8218
 2039TIP3   OH227607   4.393   3.576  13.921 -0.1717 -0.1895 -0.2487
 2039TIP3    H127608   4.340   3.631  13.863 -1.1072  0.4300  1.1166
 2039TIP3    H227609   4.398   3.492  13.877 -2.3801 -0.2960 -0.4286
 2040TIP3   OH227610   2.726   0.774  12.678 -0.7996 -0.0275  0.1307
 2040TIP3    H127611   2.633   0.757  12.668 -1.4653  3.1593 -0.2111
 2040TIP3    H227612   2.735   0.808  12.767 -0.4625  2.0233 -0.6311
 2041TIP3   OH227613   0.821   0.835  13.932  0.0591 -0.0597  0.0944
 2041TIP3    H127614   0.733   0.873  13.940 -0.7550 -2.1693  2.8490
 2041TIP3    H227615   0.810   0.763  13.869  0.0327  0.2524 -0.2573
 2042TIP3   OH227616   3.112   3.531  10.763  0.1878 -0.3219  0.2038
 2042TIP3    H127617   3.076   3.459  10.711 -1.3482  1.1586 -0.8811
 2042TIP3    H227618   3.054   3.535  10.840  0.4765 -0.4548  0.4280
 2043TIP3   OH227619   0.468   1.736   2.240  0.5472 -0.7729  0.0884
 2043TIP3    H127620   0.562   1.719   2.249  0.4368 -0.6517  1.6763
 2043TIP3    H227621   0.435   1.658   2.196  1.2356 -1.3070  0.4877
 2044TIP3   OH227622   1.084   6.183   4.435 -0.4514 -0.3870  0.0213
 2044TIP3    H127623   1.141   6.156   4.363 -0.5316  0.7070 -0.4739
 2044TIP3    H227624   1.017   6.238   4.394 -0.3847  0.4268  0.9397
 2045TIP3   OH227625   3.283   5.437   6.344 -0.2335 -0.3174  0.4742
 2045TIP3    H127626   3.319   5.496   6.278 -0.7369 -0.0076  0.4699
 2045TIP3    H227627   3.193   5.420   6.315 -0.8641  0.7825  1.6982
 2046TIP3   OH227628   4.343   6.479  16.173  0.0617 -0.3474  0.0973
 2046TIP3    H127629   4.362   6.386  16.181  1.7751 -0.1929 -1.4232
 2046TIP3    H227630   4.284   6.485  16.098  1.5866 -0.1119 -1.1489
 2047TIP3   OH227631   0.566   0.293   4.149 -1.0678 -0.3763 -0.0789
 2047TIP3    H127632   0.643   0.336   4.114 -1.9120 -0.1131 -1.6763
 2047TIP3    H227633   0.600   0.217   4.197  0.2371  0.4729  0.3699
 2048TIP3   OH227634   1.885   4.094  13.490  0.1249  0.9330 -0.2587
 2048TIP3    H127635   1.853   4.057  13.407 -2.0872  2.2723 -0.0747
 2048TIP3    H227636   1.955   4.154  13.464  1.8466 -1.1668 -0.7907
 2049TIP3   OH227637   6.403   4.222  11.976  0.0476 -0.0791 -0.6442
 2049TIP3    H127638   6.383   4.261  12.061 -2.4319  0.5866 -1.4499
 2049TIP3    H227639   6.318   4.207  11.935  1.1172 -1.3837 -2.5962
 2050TIP3   OH227640   3.367   5.572   2.321  0.0310  0.6177 -0.9138
 2050TIP3    H127641   3.371   5.626   2.242 -2.3507 -1.6547 -2.7612
 2050TIP3    H227642   3.285   5.596   2.363  0.6218  0.8184  0.1698
 2051TIP3   OH227643   1.722   5.783  16.515 -0.0962 -0.4396 -0.2527
 2051TIP3    H127644   1.681   5.775  16.429  0.2331 -1.4215 -0.3283
 2051TIP3    H227645   1.800   5.836  16.499 -0.7866  0.5859 -0.2883
 2052TIP3   OH227646   0.537   5.597  11.221 -0.2352  0.3837 -0.4991
 2052TIP3    H127647   0.628   5.593  11.193 -0.5332 -3.3922 -1.3910
 2052TIP3    H227648   0.488   5.622  11.142 -0.3208 -2.6341 -1.5454
 2053TIP3   OH227649   6.116   4.812  16.531  0.1403  0.1314  0.3675
 2053TIP3    H127650   6.211   4.808  16.536  0.2499  1.9795  0.4384
 2053TIP3    H227651   6.096   4.905  16.520 -1.6974 -0.0439  1.6236
 2054TIP3   OH227652   1.312   5.222   0.745 -0.1550 -0.2040  0.1341
 2054TIP3    H127653   1.271   5.143   0.780  0.6705 -0.1958  1.1700
 2054TIP3    H227654   1.283   5.226   0.654 -0.4265 -1.5465  0.1419
 2055TIP3   OH227655   0.788   2.003  11.577  0.6550  0.8192  0.1086
 2055TIP3    H127656   0.742   2.020  11.659  0.6137 -0.5083  0.3674
 2055TIP3    H227657   0.749   2.066  11.515 -0.8281  0.3833  0.5654
 2056TIP3   OH227658   2.729   5.389   1.574  0.1148  0.3625  0.4395
 2056TIP3    H127659   2.645   5.347   1.592 -0.2632  0.9119 -0.0014
 2056TIP3    H227660   2.770   5.335   1.506 -0.7472  1.1580 -0.7503
 2057TIP3   OH227661   6.193   4.973   3.583  0.3418  0.4321  0.0741
 2057TIP3    H127662   6.282   4.975   3.619  0.1838 -0.1349  0.5140
 2057TIP3    H227663   6.190   4.895   3.529 -0.1226  0.0046  0.6988
 2058TIP3   OH227664   5.895   5.614   3.091 -0.0444 -0.2873  0.7248
 2058TIP3    H127665   5.803   5.595   3.110 -0.3152  1.5726  1.5246
 2058TIP3    H227666   5.893   5.655   3.005  0.0534 -0.3546  0.6905
 2059TIP3   OH227667   3.825   3.025   4.403 -0.3968 -0.1740 -0.1895
 2059TIP3    H127668   3.903   3.051   4.453 -0.9886  1.0060  0.1543
 2059TIP3    H227669   3.762   2.997   4.469 -0.0381 -1.8345 -0.5152
 2060TIP3   OH227670   1.300   2.303  11.630  0.2068 -0.3829 -0.5012
 2060TIP3    H127671   1.242   2.317  11.555  0.5473 -0.8726 -0.8652
 2060TIP3    H227672   1.367   2.242  11.597 -0.4488 -1.7564  0.6088
 2061TIP3   OH227673   2.718   3.681  12.387  0.4370 -0.2607  0.2381
 2061TIP3    H127674   2.795   3.626  12.372 -0.1235 -1.2397  0.8905
 2061TIP3    H227675   2.684   3.699  12.299  1.1605 -0.1557 -0.0299
 2062TIP3   OH227676   2.705   2.668   5.436  0.2924  0.0550  0.4560
 2062TIP3    H127677   2.673   2.758   5.423  1.2273  0.0558 -2.8510
 2062TIP3    H227678   2.794   2.679   5.469  2.1955  0.7630 -4.1253
 2063TIP3   OH227679   3.438   2.080  11.974 -0.1684 -0.6424 -0.6632
 2063TIP3    H127680   3.467   2.016  12.040 -1.4361 -0.0254  0.5571
 2063TIP3    H227681   3.401   2.027  11.904 -0.2053 -1.2766 -0.1762
 2064TIP3   OH227682   1.768   2.498  13.759  0.0957  0.3417  0.1550
 2064TIP3    H127683   1.821   2.548  13.821 -1.0669  0.6906  0.9008
 2064TIP3    H227684   1.726   2.565  13.705 -0.7305  0.1558  0.5456
 2065TIP3   OH227685   6.706   6.294   6.700 -0.6703  0.1706 -0.2915
 2065TIP3    H127686   6.763   6.256   6.634  0.4190 -0.2714  0.8697
 2065TIP3    H227687   6.765   6.331   6.766 -1.7171  0.3708  0.5765
 2066TIP3   OH227688   5.137   4.354  11.384  0.1758 -0.1916 -0.6843
 2066TIP3    H127689   5.171   4.442  11.401 -0.6613  0.5051 -2.3528
 2066TIP3    H227690   5.195   4.319  11.316 -0.2861 -0.4147 -0.9636
 2067TIP3   OH227691   2.926   0.741   2.736  0.1040 -0.2393  0.1432
 2067TIP3    H127692   2.977   0.677   2.786  1.3250 -0.8531 -1.7470
 2067TIP3    H227693   2.972   0.747   2.652 -2.9668 -0.8434 -1.7309
 2068TIP3   OH227694   0.692   3.418   4.242  0.1556 -0.1272 -0.6919
 2068TIP3    H127695   0.616   3.467   4.208 -0.0810  0.9407  1.2471
 2068TIP3    H227696   0.748   3.407   4.166 -0.0932  2.6234 -1.4150
 2069TIP3   OH227697   3.792   6.317  13.215 -0.3197  0.0895  0.6279
 2069TIP3    H127698   3.713   6.333  13.267 -1.2293  0.4006 -0.7894
 2069TIP3    H227699   3.782   6.228  13.183 -1.3418  0.9237 -1.5394
 2070TIP3   OH227700   0.167   3.862  16.776  0.2291 -0.3283 -0.2173
 2070TIP3    H127701   0.168   3.768  16.761  0.5965 -0.6086  1.3993
 2070TIP3    H227702   0.217   3.874  16.856 -0.8586  1.1199  0.2919
 2071TIP3   OH227703   6.566   4.863   1.338  0.3228 -0.1118  0.2478
 2071TIP3    H127704   6.610   4.948   1.327  0.5398 -0.2932 -0.3083
 2071TIP3    H227705   6.570   4.823   1.252  3.1372 -2.0829  1.1251
 2072TIP3   OH227706   2.115   4.105  12.637 -0.1595  0.5116 -0.0752
 2072TIP3    H127707   2.197   4.130  12.679  0.9955  1.0205 -2.4651
 2072TIP3    H227708   2.091   4.022  12.679  0.7966  1.0525  1.6347
 2073TIP3   OH227709   1.485   2.064  13.736 -0.0994 -0.2602  0.2741
 2073TIP3    H127710   1.554   2.125  13.712 -0.9657  0.5771 -0.1543
 2073TIP3    H227711   1.463   2.085  13.826 -0.5944  0.2640  0.0352
 2074TIP3   OH227712   5.066   1.998  15.854 -0.0969 -0.0858  0.2483
 2074TIP3    H127713   5.021   1.915  15.838  0.5405 -0.6290  1.1894
 2074TIP3    H227714   4.996   2.060  15.873 -0.6061 -0.3092 -0.7854
 2075TIP3   OH227715   5.650   0.649   5.563 -0.8758 -0.3117 -0.0778
 2075TIP3    H127716   5.621   0.650   5.654  1.0322  1.0444  0.5729
 2075TIP3    H227717   5.585   0.700   5.516 -1.3991 -0.2662  0.6825
 2076TIP3   OH227718   5.235   2.929  12.071 -0.3720 -0.3619 -0.2603
 2076TIP3    H127719   5.318   2.952  12.113  0.0098 -1.6526 -0.2499
 2076TIP3    H227720   5.253   2.933  11.977 -0.0666 -1.3125 -0.2612
 2077TIP3   OH227721   3.893   5.205  15.310 -0.4204  0.7708 -0.1282
 2077TIP3    H127722   3.918   5.247  15.228  0.3116  1.8861  0.6393
 2077TIP3    H227723   3.869   5.116  15.285 -1.4661  1.4518 -1.7279
 2078TIP3   OH227724   3.174   5.180  15.662 -0.4116  0.2996 -0.4314
 2078TIP3    H127725   3.087   5.141  15.667  0.3712 -1.4644  0.0666
 2078TIP3    H227726   3.194   5.181  15.569 -0.8588  0.4750 -0.5294
 2079TIP3   OH227727   4.174   4.467  15.637  0.5571 -0.2663 -0.3381
 2079TIP3    H127728   4.136   4.457  15.724  3.3764 -0.5335  0.9814
 2079TIP3    H227729   4.164   4.381  15.596 -1.4377  0.0681 -0.6179
 2080TIP3   OH227730   3.718   5.158   4.024  0.4075 -0.1090 -0.3038
 2080TIP3    H127731   3.801   5.150   4.070  0.2385 -1.9016 -0.2540
 2080TIP3    H227732   3.652   5.141   4.092 -0.0555  1.8876 -0.2083
 2081TIP3   OH227733   3.710   5.209  11.593 -0.1079  0.1237 -0.0440
 2081TIP3    H127734   3.640   5.145  11.586 -1.0333  0.9501  1.1982
 2081TIP3    H227735   3.790   5.160  11.576 -0.5969 -1.8187  2.6071
 2082TIP3   OH227736   1.359   2.574  11.458  0.0940  0.0331 -0.7561
 2082TIP3    H127737   1.297   2.617  11.517  0.8552 -0.0272  0.1070
 2082TIP3    H227738   1.304   2.515  11.405 -0.9300  1.7980 -1.7626
 2083TIP3   OH227739   0.251   1.308  10.814 -0.7875 -0.0768  0.4424
 2083TIP3    H127740   0.176   1.265  10.774 -0.2790 -1.1019  0.5420
 2083TIP3    H227741   0.272   1.380  10.756 -0.7428 -0.8772 -0.5609
 2084TIP3   OH227742   6.400   3.805  14.739  0.3363 -0.2654  0.1042
 2084TIP3    H127743   6.333   3.851  14.789  0.8592 -0.3994  0.9433
 2084TIP3    H227744   6.360   3.790  14.653 -1.2288 -1.5512  0.9978
 2085TIP3   OH227745   1.289   6.781  12.583  0.3557  0.0837 -0.4282
 2085TIP3    H127746   1.271   6.784  12.677  1.6969 -1.3871 -0.0819
 2085TIP3    H227747   1.229   6.715  12.548  0.8060 -0.3782 -0.3438
 2086TIP3   OH227748   4.257   6.652  12.122  0.1887  0.1174 -0.6265
 2086TIP3    H127749   4.345   6.676  12.091  0.8847  0.6015  1.5236
 2086TIP3    H227750   4.236   6.572  12.075  1.9892 -0.2647 -0.8721
 2087TIP3   OH227751   5.793   0.948   3.557 -0.2383 -0.4602  0.2255
 2087TIP3    H127752   5.825   0.927   3.469  0.3303 -1.3249  0.6244
 2087TIP3    H227753   5.796   1.043   3.561 -0.5324 -0.3981 -0.7901
 2088TIP3   OH227754   5.674   0.080   4.210 -0.4126  0.0751  0.8457
 2088TIP3    H127755   5.638   0.002   4.168 -0.2408 -0.9358  2.4548
 2088TIP3    H227756   5.769   0.065   4.211 -0.3051  0.6936  0.4414
 2089TIP3   OH227757   0.048   4.422   3.118 -0.6166 -0.4524  0.4140
 2089TIP3    H127758  -0.029   4.366   3.107  0.0740 -1.3633  0.1091
 2089TIP3    H227759   0.102   4.375   3.181  0.0521 -0.2059  0.0286
 2090TIP3   OH227760   0.371   2.385  13.948 -0.3525 -0.2714 -0.4813
 2090TIP3    H127761   0.318   2.377  13.869  0.1477 -1.4591 -0.7225
 2090TIP3    H227762   0.309   2.375  14.020 -0.3838 -2.8615 -0.7489
 2091TIP3   OH227763   4.746   5.407  15.171  0.0616 -0.5601  0.1424
 2091TIP3    H127764   4.708   5.428  15.256 -0.6919 -1.7465  0.1202
 2091TIP3    H227765   4.816   5.345  15.191  1.9332  1.4089  0.1573
 2092TIP3   OH227766   4.404   1.229  15.623 -0.2147  0.2009 -0.2151
 2092TIP3    H127767   4.321   1.271  15.599 -0.5352  1.1413  2.2409
 2092TIP3    H227768   4.377   1.148  15.666 -0.0300  1.3767  2.2578
 2093TIP3   OH227769   5.685   5.543   5.299 -0.0389 -0.2116 -0.4106
 2093TIP3    H127770   5.659   5.559   5.389 -0.4341  2.3613 -0.9068
 2093TIP3    H227771   5.615   5.487   5.264 -0.0837 -0.9052  0.7259
 2094TIP3   OH227772   6.735   5.391   1.461  0.0915  0.1661 -0.4412
 2094TIP3    H127773   6.767   5.429   1.380  3.7981 -0.4070  0.5570
 2094TIP3    H227774   6.807   5.403   1.523 -1.6921 -1.4134  2.1236
 2095TIP3   OH227775   3.555   2.008   5.004 -0.2877  0.2138  0.5137
 2095TIP3    H127776   3.604   1.981   4.926 -0.9398  0.1183  0.1312
 2095TIP3    H227777   3.590   2.095   5.024 -0.5727  0.5187 -0.2803
 2096TIP3   OH227778   3.106   0.722  13.622  0.3882  0.1318  0.0983
 2096TIP3    H127779   3.189   0.723  13.574  0.3361 -0.1670  0.0039
 2096TIP3    H227780   3.093   0.631  13.647  0.5690  0.3308  0.9593
 2097TIP3   OH227781   4.330   1.616  10.465  0.0190 -0.3192  0.2724
 2097TIP3    H127782   4.339   1.542  10.405 -0.6354 -1.4223  1.4785
 2097TIP3    H227783   4.417   1.657  10.466  0.2305 -0.7061 -0.8501
 2098TIP3   OH227784   3.759   4.903   1.655 -0.0899 -0.6334 -0.0733
 2098TIP3    H127785   3.765   4.834   1.721  0.8124  0.5152  1.1249
 2098TIP3    H227786   3.850   4.929   1.640 -0.1769 -1.5767 -2.6069
 2099TIP3   OH227787   5.074   1.057   5.671  0.0183  0.1643  0.6271
 2099TIP3    H127788   4.996   1.045   5.725 -0.0277  0.1550  0.5585
 2099TIP3    H227789   5.120   0.973   5.677 -0.6452 -0.3081 -0.3998
 2100TIP3   OH227790   4.530   2.518   5.050 -0.1829 -0.7869 -0.2866
 2100TIP3    H127791   4.617   2.495   5.016  0.2223  0.7902 -0.4417
 2100TIP3    H227792   4.471   2.506   4.976  0.2814  0.1841 -0.8449
 2101TIP3   OH227793   6.391   4.746  15.552  0.3204 -0.0033  0.4181
 2101TIP3    H127794   6.372   4.778  15.640  0.3949  1.0699  0.0580
 2101TIP3    H227795   6.436   4.819  15.509 -1.2353  0.1421 -1.0631
 2102TIP3   OH227796   0.893   2.100  14.734  0.5347 -0.5679  0.2423
 2102TIP3    H127797   0.964   2.058  14.783  0.9290  0.4918  0.6077
 2102TIP3    H227798   0.906   2.193  14.749 -1.6537 -0.3783  1.3338
 2103TIP3   OH227799   2.583   3.141  12.454  0.2743  0.2034  0.1310
 2103TIP3    H127800   2.643   3.169  12.384 -2.6883 -0.7042 -3.0436
 2103TIP3    H227801   2.520   3.212  12.461 -0.5457 -0.5546  0.5682
 2104TIP3   OH227802   2.986   2.917   2.180 -0.1229 -0.0110  0.0497
 2104TIP3    H127803   3.041   2.860   2.233 -0.1287 -0.1673 -0.1111
 2104TIP3    H227804   3.020   3.005   2.195 -1.8281  0.3299  2.4976
 2105TIP3   OH227805   3.616   1.885  15.495 -0.0918 -0.4169 -0.5794
 2105TIP3    H127806   3.554   1.879  15.567 -1.0564  2.7260 -0.9918
 2105TIP3    H227807   3.684   1.821  15.516 -1.1305 -0.7076  2.2674
 2106TIP3   OH227808   6.455   5.250  14.194  0.0431 -0.1370 -0.2929
 2106TIP3    H127809   6.470   5.257  14.100  3.4930  0.2410  0.1592
 2106TIP3    H227810   6.539   5.223  14.230 -1.2209 -0.5018  2.6966
 2107TIP3   OH227811   5.089   6.166   4.623 -0.2897  0.0588  0.8736
 2107TIP3    H127812   5.098   6.239   4.683 -0.6996  1.4721 -0.7196
 2107TIP3    H227813   5.027   6.106   4.666  0.4516  0.3719  2.4220
 2108TIP3   OH227814   3.025   4.369  16.989  0.0679  0.0804  0.3931
 2108TIP3    H127815   3.100   4.428  16.987  0.1531  0.3067  4.0803
 2108TIP3    H227816   3.063   4.282  16.980  0.3791  0.3321 -0.9242
 2109TIP3   OH227817   6.389   5.242   6.379  0.0983  0.5389 -0.6573
 2109TIP3    H127818   6.451   5.313   6.397 -0.2249  0.4363  0.9939
 2109TIP3    H227819   6.444   5.169   6.350  1.0008 -0.0376  2.2142
 2110TIP3   OH227820   0.941   3.604  13.342 -0.2108 -0.6140 -0.3623
 2110TIP3    H127821   0.869   3.594  13.280 -0.5201 -0.4499 -0.0330
 2110TIP3    H227822   0.932   3.529  13.401 -0.8216  0.0389  0.3888
 2111TIP3   OH227823   1.152   0.550   3.929 -0.5728  0.3706  0.1122
 2111TIP3    H127824   1.118   0.552   4.018 -0.0428  0.3247  0.3211
 2111TIP3    H227825   1.129   0.464   3.896 -3.0414  1.2586 -0.7198
 2112TIP3   OH227826   0.668   4.953   5.112  0.1511  0.4717 -0.5608
 2112TIP3    H127827   0.699   4.865   5.089  2.6274  1.6852 -2.4373
 2112TIP3    H227828   0.700   4.967   5.201 -1.2909 -0.8891  0.2163
 2113TIP3   OH227829   1.388   1.576  15.886 -0.8223  0.4083  0.1585
 2113TIP3    H127830   1.429   1.522  15.818 -1.3624 -1.2807  1.1181
 2113TIP3    H227831   1.303   1.536  15.900 -0.0961 -0.3303  2.9716
 2114TIP3   OH227832   3.401   1.678  11.328  0.1926 -0.6577  0.3979
 2114TIP3    H127833   3.461   1.730  11.275 -0.6890 -0.5686 -0.5235
 2114TIP3    H227834   3.324   1.665  11.273  0.3803 -2.9593  0.5626
 2115TIP3   OH227835   2.790   6.398  14.773 -0.0809 -0.0696  0.3466
 2115TIP3    H127836   2.883   6.421  14.784  0.2949 -0.6066 -1.4641
 2115TIP3    H227837   2.786   6.355  14.688 -2.2322  1.1051 -0.1992
 2116TIP3   OH227838   4.162   2.795  10.674  0.1233 -0.7101 -0.0991
 2116TIP3    H127839   4.236   2.832  10.626  0.2540 -1.4395 -0.4794
 2116TIP3    H227840   4.122   2.869  10.719  1.2912 -0.3631  0.3879
 2117TIP3   OH227841   1.807   1.318   5.281  0.5983 -0.4425  0.1130
 2117TIP3    H127842   1.759   1.286   5.205 -0.2459  0.0988  0.4037
 2117TIP3    H227843   1.896   1.334   5.248  0.3732 -0.6745 -0.6358
 2118TIP3   OH227844   2.278   6.053   2.094  0.5865  0.0430 -0.3927
 2118TIP3    H127845   2.356   6.092   2.131  0.6622  0.5662 -1.0786
 2118TIP3    H227846   2.281   5.961   2.121  2.0252 -0.2170 -1.3358
 2119TIP3   OH227847   6.762   0.400  16.762 -0.0530  0.0907 -0.2556
 2119TIP3    H127848   6.820   0.432  16.830 -1.2024 -0.5244  1.0833
 2119TIP3    H227849   6.798   0.433  16.680  1.6168  0.4859  0.6171
 2120TIP3   OH227850   1.309   6.221   0.172 -0.1684  0.6520  0.1471
 2120TIP3    H127851   1.290   6.278   0.098 -3.3542 -1.9704 -1.3051
 2120TIP3    H227852   1.387   6.172   0.146 -0.1634  1.0643 -0.6304
 2121TIP3   OH227853   6.546   4.406   1.658 -0.1552 -0.0780  0.2017
 2121TIP3    H127854   6.484   4.455   1.713 -0.4920 -1.1425  0.8077
 2121TIP3    H227855   6.579   4.470   1.596 -0.8579  0.8285  0.7369
 2122TIP3   OH227856   3.462   0.340   5.477  0.1432  0.4900 -0.0881
 2122TIP3    H127857   3.512   0.263   5.504  1.1629  0.7462 -1.1582
 2122TIP3    H227858   3.503   0.368   5.396 -0.7162  1.7087 -0.1332
 2123TIP3   OH227859   6.396   2.772  16.398 -0.2370 -0.0643 -0.6993
 2123TIP3    H127860   6.490   2.762  16.385 -0.1868 -1.1958  0.3810
 2123TIP3    H227861   6.359   2.771  16.310  0.8751  2.0032 -1.2582
 2124TIP3   OH227862   5.307   6.278  12.705 -0.0219 -0.0733 -0.0030
 2124TIP3    H127863   5.244   6.217  12.745  0.9556 -2.0022 -1.2466
 2124TIP3    H227864   5.332   6.336  12.777 -0.9019 -1.2219  1.3050
 2125TIP3   OH227865   3.626   1.658   2.544 -0.7313  0.2756 -0.6508
 2125TIP3    H127866   3.683   1.653   2.621 -2.1995 -0.1542  0.4647
 2125TIP3    H227867   3.543   1.692   2.578 -0.3627  3.6032 -2.7164
 2126TIP3   OH227868   3.360   1.809  13.632 -0.1160  0.2599 -0.1272
 2126TIP3    H127869   3.390   1.839  13.546  1.8182 -0.1923  0.3433
 2126TIP3    H227870   3.297   1.875  13.660  1.7482  2.3005 -0.4606
 2127TIP3   OH227871   3.836   6.293   4.772  0.5337 -0.3788  0.1932
 2127TIP3    H127872   3.881   6.350   4.709  2.1772 -0.7932  0.9479
 2127TIP3    H227873   3.885   6.303   4.853 -0.2670 -1.4867  0.8422
 2128TIP3   OH227874   2.180   2.495  12.786 -0.2235 -0.3954  0.2660
 2128TIP3    H127875   2.259   2.530  12.745  0.9920 -0.0517  2.7421
 2128TIP3    H227876   2.109   2.524  12.728  1.2273  1.5337 -0.6672
 2129TIP3   OH227877   3.638   5.007  15.834 -0.2128 -0.1224  0.4019
 2129TIP3    H127878   3.546   5.031  15.828  0.2701  1.6923 -0.3164
 2129TIP3    H227879   3.673   5.062  15.904  0.4088 -0.5437  0.4319
 2130TIP3   OH227880   4.905   3.536   2.421  0.8646  0.5804 -0.4422
 2130TIP3    H127881   4.834   3.491   2.466  1.6424  1.0916  1.3740
 2130TIP3    H227882   4.860   3.600   2.365 -0.1352  0.1568 -0.1589
 2131TIP3   OH227883   5.048   4.809  12.944  0.3685 -0.3138 -0.4133
 2131TIP3    H127884   5.053   4.825  12.850  0.6848  2.0385 -0.0535
 2131TIP3    H227885   5.099   4.729  12.958 -1.9253 -2.3063 -2.5139
 2132TIP3   OH227886   1.510   2.745   5.266  0.1939  0.1060 -0.2850
 2132TIP3    H127887   1.480   2.663   5.227 -0.5946  0.2076  0.0924
 2132TIP3    H227888   1.542   2.720   5.353 -1.3298  0.3686  0.3904
 2133TIP3   OH227889   5.151   5.277   6.148  0.1643  0.2832  0.1037
 2133TIP3    H127890   5.123   5.186   6.159  2.5350 -0.5586 -0.2680
 2133TIP3    H227891   5.183   5.303   6.235  0.3406  0.4471 -0.0091
 2134TIP3   OH227892   4.801   3.932  10.422 -0.8352 -0.1594 -0.0005
 2134TIP3    H127893   4.786   3.967  10.334  0.0821  0.0873 -0.0720
 2134TIP3    H227894   4.751   3.850  10.423 -1.4570  0.2009 -0.4859
 2135TIP3   OH227895   1.061   5.585   5.703  0.5181 -0.1351  0.6205
 2135TIP3    H127896   1.155   5.601   5.713  1.0579 -2.4436 -0.0075
 2135TIP3    H227897   1.028   5.583   5.793  1.3452 -0.5837  0.9344
 2136TIP3   OH227898   4.692   5.691  16.932 -0.1724  0.0172  0.1632
 2136TIP3    H127899   4.628   5.729  16.872  0.4320  1.2782  0.2963
 2136TIP3    H227900   4.777   5.709  16.891  0.2809  1.2327  1.5475
 2137TIP3   OH227901   6.506   5.435  10.916 -0.0093 -0.0758  0.1244
 2137TIP3    H127902   6.511   5.510  10.857  0.7330  0.1583  0.4661
 2137TIP3    H227903   6.537   5.469  11.000  1.6027 -1.0527 -0.0191
 2138TIP3   OH227904   0.376   2.380   3.213 -0.0346 -0.8412 -0.2080
 2138TIP3    H127905   0.356   2.455   3.157 -0.1444 -1.1622 -0.5993
 2138TIP3    H227906   0.368   2.304   3.156  1.5550 -1.0513 -0.1921
 2139TIP3   OH227907   1.765   5.116   5.912  0.1793 -0.2681 -0.7900
 2139TIP3    H127908   1.826   5.045   5.894 -0.3006 -0.8425 -0.1786
 2139TIP3    H227909   1.820   5.187   5.945  0.4151 -1.1837  0.8881
 2140TIP3   OH227910   6.460   4.831  16.619 -0.3299  0.3001 -0.3828
 2140TIP3    H127911   6.451   4.740  16.646  0.4487  0.6864  1.2594
 2140TIP3    H227912   6.546   4.858  16.649 -1.3916  2.2219  1.2076
 2141TIP3   OH227913   3.653   4.174  15.486  0.4877  0.6454  0.6021
 2141TIP3    H127914   3.744   4.160  15.512  0.4116  0.2931  0.6872
 2141TIP3    H227915   3.602   4.147  15.562  0.2553 -0.6226  0.0247
 2142TIP3   OH227916   6.044   3.135   4.512  0.3682  0.0041 -0.0127
 2142TIP3    H127917   6.122   3.085   4.488 -0.2361 -0.7853 -0.3990
 2142TIP3    H227918   6.009   3.166   4.429 -0.7628 -1.2621 -0.0506
 2143TIP3   OH227919   5.132   3.095  16.283  0.3261 -0.0743 -0.2108
 2143TIP3    H127920   5.168   3.065  16.367 -0.3851 -2.0509 -0.5479
 2143TIP3    H227921   5.201   3.150  16.246  0.7536  0.6260  1.5386
 2144TIP3   OH227922   3.222   2.639  17.046  0.0915 -0.1485  0.1039
 2144TIP3    H127923   3.224   2.544  17.041 -1.8516 -0.1752 -1.0477
 2144TIP3    H227924   3.142   2.665  17.000 -0.9963  1.8758  2.8358
 2145TIP3   OH227925   5.559   5.872   2.252  0.3442 -0.1162 -0.2376
 2145TIP3    H127926   5.581   5.965   2.250  0.0981  0.0194  1.4568
 2145TIP3    H227927   5.508   5.857   2.173  0.0156  1.2933 -0.3210
 2146TIP3   OH227928   3.293   4.500   2.984  0.6006  0.1873  0.0729
 2146TIP3    H127929   3.372   4.552   2.998  0.9420 -0.3969  0.3388
 2146TIP3    H227930   3.230   4.562   2.947  1.7921  0.2325 -2.0431
 2147TIP3   OH227931   4.334   0.064   3.682 -0.0371  0.0065 -0.5690
 2147TIP3    H127932   4.369  -0.011   3.634 -0.8562 -0.2501 -0.7708
 2147TIP3    H227933   4.410   0.099   3.729  0.3752 -0.8986 -0.5347
 2148TIP3   OH227934   5.438   3.106   5.610 -0.0798  0.1810 -0.4376
 2148TIP3    H127935   5.363   3.166   5.611 -1.8171 -1.8295  1.3805
 2148TIP3    H227936   5.426   3.054   5.531  2.0952  2.8121 -2.6792
 2149TIP3   OH227937   3.076   3.568  14.643 -0.3378 -0.0833 -0.0336
 2149TIP3    H127938   3.084   3.500  14.575  1.4103 -0.6329  0.6686
 2149TIP3    H227939   3.088   3.521  14.725 -0.3473  0.8915  0.5332
 2150TIP3   OH227940   6.763   6.558  16.830  0.4356  0.3278 -0.1965
 2150TIP3    H127941   6.855   6.548  16.856  0.8429  1.4817 -1.1045
 2150TIP3    H227942   6.734   6.637  16.876  0.2244  0.5817 -0.7578
 2151TIP3   OH227943   1.064   5.955  12.196 -0.5881  1.1341  0.3880
 2151TIP3    H127944   1.102   6.001  12.271 -0.6972 -0.4686  1.4970
 2151TIP3    H227945   1.135   5.899  12.164 -0.9447  0.7815  0.1953
 2152TIP3   OH227946   2.753   4.379   5.373  0.0753  0.2416 -0.6875
 2152TIP3    H127947   2.671   4.332   5.392  1.0647 -1.1053  0.5023
 2152TIP3    H227948   2.733   4.470   5.391 -1.1710 -0.0575 -0.4376
 2153TIP3   OH227949   0.195   2.663  15.983  0.4300 -0.1771 -0.1243
 2153TIP3    H127950   0.190   2.581  15.935  1.4811 -1.0616  1.1752
 2153TIP3    H227951   0.279   2.702  15.957  0.9383 -0.5913  0.8244
 2154TIP3   OH227952   0.102   6.073   1.407 -0.0207  0.3110  0.1231
 2154TIP3    H127953   0.050   6.150   1.386 -0.5429 -0.6964 -2.7922
 2154TIP3    H227954   0.192   6.100   1.388  0.0004  0.6923  0.7459
 2155TIP3   OH227955   2.286   6.545  11.693 -0.0628  0.4820  0.3401
 2155TIP3    H127956   2.323   6.631  11.673 -1.4608  0.8836 -0.6611
 2155TIP3    H227957   2.363   6.489  11.708  0.9183  1.5488 -0.5120
 2156TIP3   OH227958   4.010   4.676   5.379  0.2186  0.2407 -0.9863
 2156TIP3    H127959   4.016   4.648   5.288 -1.2015  0.3551 -1.1279
 2156TIP3    H227960   3.918   4.699   5.392  0.0883 -1.0794  0.8576
 2157TIP3   OH227961   5.730   4.599   3.913  0.0392 -0.3350 -0.5421
 2157TIP3    H127962   5.820   4.570   3.930  0.8661  1.7771 -1.0024
 2157TIP3    H227963   5.679   4.562   3.985  1.5829 -0.2668  0.6465
 2158TIP3   OH227964   3.558   2.633   0.065 -0.0993  0.0177  0.0186
 2158TIP3    H127965   3.573   2.724   0.041  1.1269 -0.2947 -0.5342
 2158TIP3    H227966   3.538   2.634   0.158 -3.5106  1.1473 -0.5954
 2159TIP3   OH227967   4.682   6.293  13.716  0.4548  0.5224 -0.5521
 2159TIP3    H127968   4.683   6.348  13.794  0.0732 -0.0262 -0.1566
 2159TIP3    H227969   4.589   6.289  13.691  0.2435 -1.2376  0.3591
 2160TIP3   OH227970   1.900   2.455   4.707 -0.0754 -0.6474  0.4716
 2160TIP3    H127971   1.885   2.512   4.783  1.3510 -1.1630  1.1763
 2160TIP3    H227972   1.896   2.367   4.743  2.1213 -0.8738  0.2917
 2161TIP3   OH227973   1.981   1.781  12.972 -0.5724  0.2453  0.9679
 2161TIP3    H127974   2.051   1.754  12.912 -0.0874 -1.1436  2.0846
 2161TIP3    H227975   2.017   1.766  13.059 -0.6139  3.8590  1.7526
 2162TIP3   OH227976   3.861   1.567  15.804 -0.3227 -0.1771 -0.0241
 2162TIP3    H127977   3.896   1.629  15.740 -1.4723  0.3345 -0.1806
 2162TIP3    H227978   3.805   1.508  15.753 -1.3981  0.3449  0.5110
 2163TIP3   OH227979   5.799   0.308   1.869 -0.4631 -0.1056  0.1498
 2163TIP3    H127980   5.835   0.308   1.957  1.0673  2.1023 -0.3772
 2163TIP3    H227981   5.854   0.248   1.819 -1.0123 -0.9646  0.5671
 2164TIP3   OH227982   0.087   1.922  11.174  0.2902 -0.1367  0.4337
 2164TIP3    H127983   0.160   1.925  11.112  1.4070  0.3506  1.7204
 2164TIP3    H227984   0.121   1.874  11.250 -0.4937  0.6606  1.3311
 2165TIP3   OH227985   0.396   5.253   3.607 -0.1072 -0.3014 -0.5422
 2165TIP3    H127986   0.448   5.223   3.682 -2.4802 -0.1017  1.2920
 2165TIP3    H227987   0.350   5.175   3.577 -0.2464 -0.0936 -0.8673
 2166TIP3   OH227988   5.485   3.361   4.159 -0.3588  0.2818  0.1771
 2166TIP3    H127989   5.537   3.385   4.083  1.1579  2.0926  1.6810
 2166TIP3    H227990   5.517   3.274   4.184  0.1332  0.2922 -0.4047
 2167TIP3   OH227991   0.213   3.529   1.602  0.3769  0.4617 -0.0927
 2167TIP3    H127992   0.121   3.540   1.623  0.6169  1.3407  0.5623
 2167TIP3    H227993   0.251   3.487   1.680  0.7503  1.2286  0.1521
 2168TIP3   OH227994   3.019   1.082  11.070 -0.7091 -0.1580 -0.0805
 2168TIP3    H127995   3.053   1.102  10.983  1.6029 -0.0174  0.7961
 2168TIP3    H227996   3.010   0.987  11.070  1.8469 -0.4663  0.3301
 2169TIP3   OH227997   2.772   1.471   1.497  0.6000  0.5945  0.2448
 2169TIP3    H127998   2.836   1.485   1.427  1.1383 -1.7867  0.1483
 2169TIP3    H227999   2.802   1.527   1.569  2.7932 -0.3622  0.1659
 2170TIP3   OH228000   1.507   6.195   2.294 -0.0695 -0.3883 -0.0082
 2170TIP3    H128001   1.560   6.161   2.366  0.1921 -1.6314 -0.7596
 2170TIP3    H228002   1.417   6.194   2.328  0.0183 -1.2076  0.2163
 2171TIP3   OH228003   4.048   4.680  14.025  0.4007  0.2561  0.0286
 2171TIP3    H128004   4.092   4.755  13.984  1.3351 -0.7930 -0.9797
 2171TIP3    H228005   4.062   4.692  14.119 -0.6973  2.0640  0.0027
 2172TIP3   OH228006   6.030   1.054  12.418 -0.2206 -0.1156 -0.1358
 2172TIP3    H128007   6.013   1.056  12.512  0.2316 -2.6352  0.0597
 2172TIP3    H228008   6.125   1.055  12.410 -0.2509  1.3102 -0.6628
 2173TIP3   OH228009   3.448   4.440  12.573 -0.2479  0.5215 -0.2299
 2173TIP3    H128010   3.485   4.381  12.639 -2.6182 -0.9587 -0.1272
 2173TIP3    H228011   3.415   4.382  12.505  0.0160  1.9259 -1.6191
 2174TIP3   OH228012   6.484   0.048  13.095  0.8868 -0.4916  0.2462
 2174TIP3    H128013   6.402  -0.001  13.098  0.6011 -0.1678 -1.3230
 2174TIP3    H228014   6.547  -0.009  13.139 -0.3106 -0.3782  2.2615
 2175TIP3   OH228015   6.364   0.756   1.946  0.7702 -0.6156 -0.1554
 2175TIP3    H128016   6.306   0.767   2.021  1.0920  1.1851 -0.1042
 2175TIP3    H228017   6.389   0.664   1.947  0.1171 -0.8077  1.4584
 2176TIP3   OH228018   3.748   4.809   6.556 -0.3288  0.1416  0.0057
 2176TIP3    H128019   3.808   4.839   6.625 -0.0232 -2.0441  0.7488
 2176TIP3    H228020   3.801   4.753   6.500 -0.8442  1.0503 -1.4381
 2177TIP3   OH228021   1.543   0.002   1.268 -0.0370 -0.3785 -0.2430
 2177TIP3    H128022   1.561   0.026   1.359 -0.2519  2.3883 -0.8316
 2177TIP3    H228023   1.448  -0.004   1.262 -0.1819  1.6425 -0.6911
 2178TIP3   OH228024   5.432   3.917  12.594 -0.0687 -0.3696 -0.1928
 2178TIP3    H128025   5.402   3.923  12.684 -0.9833 -2.4930 -0.3081
 2178TIP3    H228026   5.518   3.876  12.600 -1.1546 -2.8221 -0.3624
 2179TIP3   OH228027   5.986   0.429  12.992 -0.0489  0.3708 -0.0745
 2179TIP3    H128028   5.962   0.506  12.941  1.7342  1.1457  0.1855
 2179TIP3    H228029   5.951   0.355  12.942 -3.4072  1.3212  0.5643
 2180TIP3   OH228030   0.667   6.544  15.984  0.2092  0.0160 -0.4338
 2180TIP3    H128031   0.703   6.469  16.032  0.7909  1.2958  1.2595
 2180TIP3    H228032   0.730   6.614  16.000 -0.9759  1.2132 -0.8626
 2181TIP3   OH228033   1.297   5.839  14.205 -0.5739 -0.0062  0.0509
 2181TIP3    H128034   1.314   5.747  14.184 -0.3368  0.3110 -1.2311
 2181TIP3    H228035   1.250   5.872  14.128 -0.3846  1.0188  0.3713
 2182TIP3   OH228036   5.133   2.262   5.032 -0.1282 -0.1681 -0.5430
 2182TIP3    H128037   5.124   2.273   4.937 -0.3597  0.9334 -0.4135
 2182TIP3    H228038   5.221   2.296   5.051 -0.7211  1.2491 -0.1668
 2183TIP3   OH228039   1.460   3.031   4.647  0.6222  0.1681 -0.1393
 2183TIP3    H128040   1.383   3.001   4.599  0.1497 -1.6119  1.6076
 2183TIP3    H228041   1.503   3.093   4.588 -1.4776  0.2831 -1.6377
 2184TIP3   OH228042   2.175   5.920   1.743 -0.0423 -0.1697 -0.4882
 2184TIP3    H128043   2.099   5.951   1.693 -0.2789  1.2062  0.6364
 2184TIP3    H228044   2.245   5.914   1.679 -0.7017  0.0916 -1.2628
 2185TIP3   OH228045   3.775   2.654  14.694  0.3924  0.5482  0.1229
 2185TIP3    H128046   3.794   2.568  14.733 -1.9270 -0.9009 -1.7045
 2185TIP3    H228047   3.842   2.664  14.627  0.8351  0.3081  0.5184
 2186TIP3   OH228048   0.320   3.920  15.272 -0.1348  0.7792 -0.0571
 2186TIP3    H128049   0.346   3.830  15.293 -0.2746  0.4129 -1.3762
 2186TIP3    H228050   0.273   3.913  15.189  0.8971  2.2122 -0.8173
 2187TIP3   OH228051   6.308   4.175  12.858  0.4380  0.4738 -0.3707
 2187TIP3    H128052   6.288   4.263  12.826 -1.5198  0.4385  0.5942
 2187TIP3    H228053   6.226   4.144  12.897  1.4620 -1.2344  0.5745
 2188TIP3   OH228054   0.817   5.645   0.152 -0.0713 -0.2040  0.0049
 2188TIP3    H128055   0.747   5.582   0.137 -0.5838  0.6265 -1.3394
 2188TIP3    H228056   0.852   5.662   0.065  2.1386 -0.9377  0.7073
 2189TIP3   OH228057   0.774   3.404   2.732  0.3708 -0.5305  0.2781
 2189TIP3    H128058   0.685   3.433   2.711  0.8475 -0.4736 -1.8961
 2189TIP3    H228059   0.801   3.460   2.805 -1.3092 -0.4788  0.9084
 2190TIP3   OH228060   0.546   3.019   5.133  0.4565  0.2904  0.3776
 2190TIP3    H128061   0.536   2.936   5.180  0.1035  0.0199 -0.1755
 2190TIP3    H228062   0.600   3.072   5.191  0.3680 -0.1892  0.9086
 2191TIP3   OH228063   6.360   2.489  15.808  0.0941 -0.3073  0.2184
 2191TIP3    H128064   6.319   2.409  15.841 -0.4530 -0.0035  0.2922
 2191TIP3    H228065   6.295   2.557  15.825  0.2669  0.0341 -0.4737
 2192TIP3   OH228066   2.041   2.623  12.063  0.0109 -0.0420  0.5434
 2192TIP3    H128067   1.965   2.586  12.018 -0.1079 -0.5880  1.1816
 2192TIP3    H228068   2.116   2.579  12.023 -0.0932 -0.5129  0.8642
 2193TIP3   OH228069   2.136   1.060  15.761  0.6932  0.1888  0.0570
 2193TIP3    H128070   2.169   0.992  15.702  0.5170  0.4655 -0.3689
 2193TIP3    H228071   2.048   1.030  15.784 -0.5272  1.5880 -2.3610
 2194TIP3   OH228072   6.229   2.172   0.693 -0.5808  0.3986 -0.1744
 2194TIP3    H128073   6.151   2.147   0.644  0.2601 -0.3545 -1.1931
 2194TIP3    H228074   6.301   2.133   0.643  0.4373  1.0500  0.7550
 2195TIP3   OH228075   3.798   2.177  11.595 -0.2088 -0.0441 -0.2786
 2195TIP3    H128076   3.716   2.217  11.622 -0.1948 -2.6589  4.7215
 2195TIP3    H228077   3.773   2.098  11.548 -0.6720 -1.0948  1.6618
 2196TIP3   OH228078   3.495   4.321  15.309  0.2468 -0.5675 -0.0384
 2196TIP3    H128079   3.408   4.341  15.345  0.2705  0.3560 -0.4532
 2196TIP3    H228080   3.549   4.300  15.385 -0.0998 -0.1941  0.3184
 2197TIP3   OH228081   2.286   3.493  11.271  0.2795  0.2042  0.4631
 2197TIP3    H128082   2.238   3.560  11.222 -0.6427 -0.5496  0.3076
 2197TIP3    H228083   2.331   3.441  11.205 -1.1511 -0.9568  0.3485
 2198TIP3   OH228084   0.221   1.538   1.115 -0.3687  0.5168  0.4048
 2198TIP3    H128085   0.150   1.519   1.177  0.2122 -0.5224  0.7908
 2198TIP3    H228086   0.228   1.633   1.115 -2.2079  0.6926 -0.1684
 2199TIP3   OH228087   5.300   6.760  12.547  0.0855 -0.3135 -0.0124
 2199TIP3    H128088   5.217   6.729  12.511  0.5342 -1.6778  0.0843
 2199TIP3    H228089   5.301   6.853  12.527 -1.1001 -0.4341 -0.7348
 2200TIP3   OH228090   1.775   1.203  15.745  0.2209 -0.2806  0.3307
 2200TIP3    H128091   1.769   1.298  15.750  0.8390 -0.2558  0.6519
 2200TIP3    H228092   1.805   1.185  15.656 -1.4205 -0.2635 -0.2661
 2201TIP3   OH228093   2.425   0.141   0.668  0.6916  0.4467 -0.2142
 2201TIP3    H128094   2.357   0.209   0.663 -2.0096 -2.0343  0.3542
 2201TIP3    H228095   2.444   0.134   0.762 -0.2291 -0.6305 -0.0945
 2202TIP3   OH228096   0.651   3.923  16.932  0.2089 -1.1243 -0.5219
 2202TIP3    H128097   0.673   4.012  16.906 -1.0808 -0.7660 -0.4578
 2202TIP3    H228098   0.645   3.927  17.028  0.8126 -1.4449 -0.4685
 2203TIP3   OH228099   5.982   2.065   4.344 -0.1619  0.0029 -0.7760
 2203TIP3    H128100   5.908   2.034   4.395 -0.3290  4.5114  2.2840
 2203TIP3    H228101   6.059   2.030   4.388 -0.4200  0.8673  0.4233
 2204TIP3   OH228102   2.770   6.385  13.785 -0.2270 -0.3976  0.1698
 2204TIP3    H128103   2.751   6.376  13.691  1.3149 -0.2677 -0.1862
 2204TIP3    H228104   2.694   6.347  13.829 -1.0255 -0.3538 -1.1331
 2205TIP3   OH228105   0.345   0.697  16.880  0.0000 -0.1278  1.0198
 2205TIP3    H128106   0.274   0.702  16.817  1.1786 -0.4384 -0.4032
 2205TIP3    H228107   0.403   0.770  16.856  0.4117 -0.1849  1.8046
 2206TIP3   OH228108   1.104   1.407   1.744 -0.3143 -0.3259  0.4630
 2206TIP3    H128109   1.117   1.336   1.806 -1.3763 -1.3000 -0.3894
 2206TIP3    H228110   1.114   1.367   1.658  1.4682  1.0701 -0.0372
 2207TIP3   OH228111   4.184   1.365   5.588  0.3354  0.3627  0.4548
 2207TIP3    H128112   4.195   1.448   5.636  1.4191  0.3236  0.2917
 2207TIP3    H228113   4.208   1.298   5.652  0.2841  0.2220  0.3245
 2208TIP3   OH228114   1.990   1.993   5.636  0.6827 -0.0254 -0.0121
 2208TIP3    H128115   1.924   1.924   5.638 -0.1718  0.7921  0.1701
 2208TIP3    H228116   1.983   2.032   5.549  3.2291 -2.0905 -1.3081
 2209TIP3   OH228117   4.528   5.325   2.749 -0.4970 -0.7279  0.1268
 2209TIP3    H128118   4.502   5.414   2.770  0.9169 -0.3397  0.3448
 2209TIP3    H228119   4.467   5.270   2.797 -0.3469  0.1364  1.3474
 2210TIP3   OH228120   3.689   3.747  16.015 -0.3453  0.0617  0.0345
 2210TIP3    H128121   3.658   3.810  15.949 -1.2041 -0.3322  0.0421
 2210TIP3    H228122   3.702   3.666  15.966  1.6869  0.4640 -0.1618
 2211TIP3   OH228123   5.348   3.873   3.372 -0.4376  0.3444  1.0197
 2211TIP3    H128124   5.306   3.873   3.286  0.8169  0.1155  0.3875
 2211TIP3    H228125   5.355   3.965   3.396 -0.8171  0.4068  0.9013
 2212TIP3   OH228126   5.123   2.257   3.693  0.1193  0.3381 -0.6878
 2212TIP3    H128127   5.166   2.343   3.690  0.8033 -0.0013 -0.8894
 2212TIP3    H228128   5.158   2.211   3.616 -0.2600 -0.1131 -0.5914
 2213TIP3   OH228129   6.156   0.485  16.802  0.2773 -0.5534  0.6192
 2213TIP3    H128130   6.223   0.471  16.870  0.8350  0.6211  0.3409
 2213TIP3    H228131   6.206   0.488  16.721 -0.0483  0.7952  0.4533
 2214TIP3   OH228132   0.471   2.364  16.751 -0.3219  0.4756 -0.3530
 2214TIP3    H128133   0.459   2.440  16.695 -0.3769 -0.3127 -1.4490
 2214TIP3    H228134   0.565   2.360  16.766 -0.2767  0.5384 -0.6167
 2215TIP3   OH228135   0.199   6.090   3.283 -0.2299  0.0211 -0.6518
 2215TIP3    H128136   0.203   6.117   3.375 -0.3947  2.6335 -1.3384
 2215TIP3    H228137   0.243   6.005   3.281  1.3237  0.6925  1.5541
 2216TIP3   OH228138   4.538   1.653   4.462 -0.5120  0.3575  0.2082
 2216TIP3    H128139   4.503   1.591   4.398  0.5853 -1.2109  1.0460
 2216TIP3    H228140   4.576   1.723   4.409  0.9136 -1.1898 -0.9526
 2217TIP3   OH228141   3.264   6.506  12.829 -0.1205 -0.3319  0.6977
 2217TIP3    H128142   3.283   6.509  12.923 -1.3665 -0.2263  0.9677
 2217TIP3    H228143   3.350   6.501  12.787  0.4709  0.0016  1.8255
 2218TIP3   OH228144   2.785   5.181   3.414 -0.2237 -0.0761 -0.0293
 2218TIP3    H128145   2.880   5.180   3.429 -0.3626  0.2337  0.9604
 2218TIP3    H228146   2.748   5.208   3.498 -1.2216 -0.7169 -0.2481
 2219TIP3   OH228147   6.257   4.049   5.064  0.5460  0.1345 -0.0830
 2219TIP3    H128148   6.174   4.096   5.053  1.0211  0.6137 -1.9576
 2219TIP3    H228149   6.306   4.102   5.128 -0.7898 -0.4997  1.5377
 2220TIP3   OH228150   1.972   1.478   2.617 -0.3773 -0.2637  0.3015
 2220TIP3    H128151   1.904   1.510   2.559  0.3151 -1.0257 -0.9848
 2220TIP3    H228152   2.048   1.465   2.560  0.3664 -0.9331  1.3984
 2221TIP3   OH228153   6.629   5.565  13.123 -0.1676  0.1310 -0.3484
 2221TIP3    H128154   6.625   5.477  13.086 -2.9968 -0.9895  2.1723
 2221TIP3    H228155   6.623   5.623  13.047  0.5217 -1.8322 -2.0042
 2222TIP3   OH228156   4.054   2.652   3.375  0.0668  0.3062  0.2136
 2222TIP3    H128157   4.055   2.684   3.465 -0.3569  0.5012  0.1518
 2222TIP3    H228158   3.987   2.705   3.331  1.3343  1.2989 -0.6224
 2223TIP3   OH228159   6.620   2.500  16.497 -0.3519 -0.0255 -0.2851
 2223TIP3    H128160   6.703   2.524  16.455  0.0341  2.4439  1.6770
 2223TIP3    H228161   6.553   2.529  16.436  0.2058  0.4056 -0.7104
 2224TIP3   OH228162   4.072   6.139  14.966 -0.3883  0.1069  0.4040
 2224TIP3    H128163   4.155   6.099  14.993  0.4471  1.5553  0.1009
 2224TIP3    H228164   4.098   6.209  14.906 -1.8481  0.5133  0.2163
 2225TIP3   OH228165   2.765   3.376  11.239 -0.4360  0.1734  0.0848
 2225TIP3    H128166   2.677   3.368  11.202 -0.3713 -0.0635 -0.0178
 2225TIP3    H228167   2.795   3.285  11.248 -0.2974  0.2440  0.3463
 2226TIP3   OH228168   5.067   1.491  15.009  0.4607  0.3481 -0.3303
 2226TIP3    H128169   5.109   1.573  14.984 -0.9768  1.0231 -0.6247
 2226TIP3    H228170   5.084   1.482  15.103  2.9707 -0.4551 -0.8004
 2227TIP3   OH228171   0.200   0.679  16.648  0.1068 -0.3212  0.1308
 2227TIP3    H128172   0.131   0.741  16.622 -1.8514 -1.5304  2.1088
 2227TIP3    H228173   0.200   0.614  16.578 -1.7913 -1.0381  0.7310
 2228TIP3   OH228174   2.661   4.067   2.652  0.2686 -0.2666  0.0023
 2228TIP3    H128175   2.677   4.055   2.559  1.1150 -0.9592  0.2250
 2228TIP3    H228176   2.576   4.110   2.656  0.4839  0.2990 -1.1059
 2229TIP3   OH228177   6.383   3.644   6.240  0.2807 -0.1672  0.2661
 2229TIP3    H128178   6.326   3.695   6.298  0.6722 -0.0268  0.5333
 2229TIP3    H228179   6.455   3.615   6.297 -0.0117 -1.1459  0.1613
 2230TIP3   OH228180   0.534   0.520  11.283 -0.3465  0.5895  0.1651
 2230TIP3    H128181   0.534   0.453  11.352 -2.8743 -1.0841 -1.3295
 2230TIP3    H228182   0.623   0.517  11.247 -0.2196 -1.5403  0.5535
 2231TIP3   OH228183   0.414   2.951   4.304  0.0218 -0.4317 -0.6324
 2231TIP3    H128184   0.479   2.996   4.250  1.7097 -1.0148  0.7896
 2231TIP3    H228185   0.411   2.862   4.269 -0.3433 -0.2878 -0.9697
 2232TIP3   OH228186   4.059   2.814   5.966 -0.9635  0.9686  0.2077
 2232TIP3    H128187   4.000   2.786   6.036 -0.8493 -0.3510 -0.1984
 2232TIP3    H228188   4.003   2.821   5.889 -1.0132  2.0272  0.3267
 2233TIP3   OH228189   0.884   1.607  16.858  0.3997  0.0164 -0.0139
 2233TIP3    H128190   0.953   1.671  16.872  1.0720 -0.3783 -1.2886
 2233TIP3    H228191   0.834   1.641  16.784  0.1378 -0.4166 -0.0439
 2234TIP3   OH228192   6.815   1.671   4.938  0.1640  0.2558 -0.0819
 2234TIP3    H128193   6.865   1.746   4.908  0.4957 -0.4637 -1.4076
 2234TIP3    H228194   6.880   1.601   4.948 -0.2680 -0.1048  0.2638
 2235TIP3   OH228195   0.182   2.536  11.903  0.0654 -0.4386 -0.5913
 2235TIP3    H128196   0.275   2.515  11.898  0.2241  0.2495 -0.6666
 2235TIP3    H228197   0.137   2.452  11.897  0.5837 -0.6064 -3.3365
 2236TIP3   OH228198   2.199   3.261  14.469  0.3920 -0.0795  0.3485
 2236TIP3    H128199   2.177   3.173  14.498  0.4323  0.6715  2.8983
 2236TIP3    H228200   2.258   3.294  14.537  0.6247  1.8003 -0.7122
 2237TIP3   OH228201   3.963   4.412  12.236  0.4124 -0.1517 -0.6063
 2237TIP3    H128202   3.886   4.387  12.287  1.5030 -2.3549  0.0906
 2237TIP3    H228203   3.992   4.494  12.275 -0.5284 -0.2417  0.3320
 2238TIP3   OH228204   4.146   0.424  13.923 -0.8607  0.2571  0.5016
 2238TIP3    H128205   4.122   0.388  13.837 -2.1135 -0.7040  1.2247
 2238TIP3    H228206   4.091   0.503  13.932 -1.9448 -0.5367  1.0778
 2239TIP3   OH228207   4.546   5.400   6.199  0.0149 -0.0788  0.1207
 2239TIP3    H128208   4.551   5.366   6.288 -0.3616 -0.1587  0.1156
 2239TIP3    H228209   4.467   5.360   6.163 -0.5528  0.9499  0.1805
 2240TIP3   OH228210   4.076   3.522  16.208  0.7241 -0.6527 -0.0675
 2240TIP3    H128211   4.032   3.455  16.261  0.0657  0.0205  0.2711
 2240TIP3    H228212   4.142   3.559  16.267  2.3756 -2.2319 -0.8418
 2241TIP3   OH228213   3.772   4.632  13.998 -0.4725  0.5027 -0.6281
 2241TIP3    H128214   3.810   4.544  14.006 -0.6440  0.3591 -1.3003
 2241TIP3    H228215   3.848   4.691  14.004 -0.6319  0.5760  3.2147
 2242TIP3   OH228216   4.342   6.017  14.084  0.8155  0.1778 -0.4227
 2242TIP3    H128217   4.334   6.038  13.991 -0.9049 -0.4806 -0.4740
 2242TIP3    H228218   4.359   5.923  14.085 -0.6722 -0.1233 -0.0947
 2243TIP3   OH228219   4.801   3.164   3.407  0.3278 -0.2546  0.7702
 2243TIP3    H128220   4.806   3.235   3.344  0.1937  1.4455  2.5897
 2243TIP3    H228221   4.708   3.157   3.428  0.1325 -2.0464 -0.5192
 2244TIP3   OH228222   2.475   0.195   5.891 -0.1894 -0.1160 -0.1669
 2244TIP3    H128223   2.463   0.168   5.800 -0.0739  1.2009 -0.5825
 2244TIP3    H228224   2.402   0.154   5.937 -0.2768 -0.7567 -0.8518
 2245TIP3   OH228225   5.420   6.459   6.173  0.0509  0.4295 -0.4640
 2245TIP3    H128226   5.376   6.402   6.110 -0.0508  0.6083 -0.5529
 2245TIP3    H228227   5.426   6.406   6.253  1.9554 -0.5750 -1.1785
 2246TIP3   OH228228   1.670   4.379  15.756  0.1905  0.0100  0.3489
 2246TIP3    H128229   1.696   4.313  15.692 -1.7082 -0.5086  0.0443
 2246TIP3    H228230   1.751   4.423  15.781  0.9758  0.4816 -2.6757
 2247TIP3   OH228231   6.061   0.174   1.762 -0.6048 -0.2691 -0.3121
 2247TIP3    H128232   6.141   0.201   1.807  0.5269 -2.2853 -0.9827
 2247TIP3    H228233   6.025   0.104   1.818  0.4961 -2.3843 -2.1028
 2248TIP3   OH228234   3.657   0.189  13.203  0.2776 -0.0987  0.4918
 2248TIP3    H128235   3.725   0.124  13.222 -0.4269 -1.4264 -1.2259
 2248TIP3    H228236   3.704   0.263  13.167  0.8737 -0.8486 -0.3128
 2249TIP3   OH228237   5.345   2.201  17.096 -0.1795  0.5014 -0.6835
 2249TIP3    H128238   5.276   2.222  17.160 -0.3988  0.7821 -1.0074
 2249TIP3    H228239   5.422   2.181  17.150 -0.2146  1.2615 -0.3283
 2250TIP3   OH228240   4.155   3.576  15.063 -0.1561  0.0350 -0.0557
 2250TIP3    H128241   4.177   3.583  14.970 -0.4410  1.8936 -0.0157
 2250TIP3    H228242   4.070   3.532  15.064 -0.3553  0.3900 -0.7065
 2251TIP3   OH228243   5.003   2.500  15.939  0.0609 -0.1645  0.1073
 2251TIP3    H128244   5.092   2.466  15.935 -0.7548 -2.7222  1.0795
 2251TIP3    H228245   5.002   2.557  16.015  0.8849 -0.0755  0.0609
 2252TIP3   OH228246   5.795   6.710   2.594 -0.8487 -0.2505 -0.6777
 2252TIP3    H128247   5.847   6.756   2.660 -0.4078  2.1696 -2.5916
 2252TIP3    H228248   5.848   6.634   2.571  0.3099  0.4085 -0.2573
 2253TIP3   OH228249   4.371   3.196   4.202  0.5741 -0.2146  0.1379
 2253TIP3    H128250   4.330   3.178   4.118  0.1218  0.9589  0.0877
 2253TIP3    H228251   4.298   3.216   4.261  0.8826 -1.0598  0.8316
 2254TIP3   OH228252   1.842   3.416   5.906  0.0126 -0.1199  0.1945
 2254TIP3    H128253   1.893   3.470   5.966  2.0548  1.3583 -2.6452
 2254TIP3    H228254   1.844   3.329   5.945  1.8231  0.6048  1.9177
 2255TIP3   OH228255   1.632   2.465   1.517  0.2424  0.7009  0.5631
 2255TIP3    H128256   1.719   2.476   1.555  0.5872  1.4345 -0.3938
 2255TIP3    H228257   1.575   2.444   1.591  1.4949 -1.3301  1.0118
 2256TIP3   OH228258   2.612   5.220   0.492  0.3318  0.0778  0.1180
 2256TIP3    H128259   2.689   5.188   0.538 -0.1953 -1.3404  0.0543
 2256TIP3    H228260   2.562   5.141   0.471 -1.1978  0.9760  0.2553
 2257TIP3   OH228261   5.985   5.735  14.978 -0.0024 -0.4276  0.1874
 2257TIP3    H128262   5.977   5.829  14.995  0.9297 -0.3744  0.4009
 2257TIP3    H228263   5.895   5.702  14.981 -0.4276  0.5827 -0.6833
 2258TIP3   OH228264   3.901   2.721   1.543  0.4333  0.1631 -0.1697
 2258TIP3    H128265   3.886   2.676   1.460  1.3517 -0.6782  0.1098
 2258TIP3    H228266   3.916   2.651   1.607 -0.5649  0.7823  0.7836
 2259TIP3   OH228267   3.045   6.006  10.843  0.1383  0.2476 -0.0296
 2259TIP3    H128268   3.108   6.052  10.788 -0.2189  2.4430  1.2618
 2259TIP3    H228269   2.983   6.074  10.869 -2.8776 -1.8099 -1.2963
 2260TIP3   OH228270   4.268   2.119  11.168 -0.3661  0.2271 -0.1162
 2260TIP3    H128271   4.212   2.048  11.136 -0.3119  0.3261 -0.4226
 2260TIP3    H228272   4.263   2.187  11.101 -1.3281  0.9942  0.6854
 2261TIP3   OH228273   2.926   6.243  15.630 -0.8793  0.0304 -0.6892
 2261TIP3    H128274   2.965   6.158  15.652  0.4710  0.7300 -0.2075
 2261TIP3    H228275   2.911   6.285  15.715  0.2234  0.9944 -0.9340
 2262TIP3   OH228276   1.988   5.019   0.210  0.2352  0.1583  0.6738
 2262TIP3    H128277   1.989   5.108   0.174 -0.2053  0.5162  1.4970
 2262TIP3    H228278   2.002   5.032   0.304  3.9046 -0.8973  0.4188
 2263TIP3   OH228279   3.989   3.378  14.200  0.0365 -0.1773 -0.0265
 2263TIP3    H128280   3.929   3.399  14.128  0.9954  1.1684 -0.4711
 2263TIP3    H228281   4.064   3.338  14.156 -0.2983 -1.4180  0.4811
 2264TIP3   OH228282   4.417   2.795  14.884  0.4853  0.5503 -0.0432
 2264TIP3    H128283   4.393   2.882  14.917 -0.0358 -0.1552  1.5445
 2264TIP3    H228284   4.473   2.813  14.808 -0.2827  2.2579 -0.2669
 2265TIP3   OH228285   2.387   6.821  14.907  0.3435 -0.2569 -0.1023
 2265TIP3    H128286   2.345   6.900  14.942 -1.1600 -0.3857 -1.4779
 2265TIP3    H228287   2.437   6.786  14.980  1.6283  2.3229  0.3895
 2266TIP3   OH228288   3.108   2.190   1.436 -0.4143  0.4524 -0.1308
 2266TIP3    H128289   3.046   2.254   1.402 -1.1199 -0.9825 -1.6581
 2266TIP3    H228290   3.087   2.184   1.529 -1.2446  1.4116 -0.2378
 2267TIP3   OH228291   0.914   6.409  16.399  0.3582  0.6975  0.3577
 2267TIP3    H128292   0.819   6.400  16.409  0.4473  0.2257  0.8407
 2267TIP3    H228293   0.925   6.439  16.309 -0.1575 -1.5751 -0.5458
 2268TIP3   OH228294   6.008   6.009  16.854 -0.1006  0.0438  0.1908
 2268TIP3    H128295   5.968   5.922  16.846  0.2548 -0.2013  0.9865
 2268TIP3    H228296   5.934   6.068  16.866 -0.2644 -0.3410  1.1515
 2269TIP3   OH228297   4.515   0.655  12.323 -0.1027 -0.0182 -0.5428
 2269TIP3    H128298   4.610   0.668  12.325 -0.2527  1.2704 -0.7189
 2269TIP3    H228299   4.486   0.677  12.412 -0.3240  0.4334 -0.7232
 2270TIP3   OH228300   2.321   5.429  16.487  0.1540 -0.2540 -0.1851
 2270TIP3    H128301   2.272   5.363  16.438  1.1163 -0.4164 -0.9570
 2270TIP3    H228302   2.320   5.397  16.577 -1.0239 -0.3202 -0.2030
 2271TIP3   OH228303   3.865   0.495  12.211  0.3245 -0.3111  0.4651
 2271TIP3    H128304   3.781   0.540  12.207  0.4397  0.0032  1.3636
 2271TIP3    H228305   3.850   0.412  12.166 -0.1893  0.1526 -0.2383
 2272TIP3   OH228306   6.064   6.745  14.390  0.2145 -0.2417 -0.0628
 2272TIP3    H128307   6.101   6.656  14.381  0.8527  0.0808 -0.7757
 2272TIP3    H228308   6.137   6.803  14.368  0.1617  0.5131  1.5918
 2273TIP3   OH228309   3.402   6.552   3.049  0.0015 -0.2695 -0.4093
 2273TIP3    H128310   3.400   6.621   2.982 -0.0696 -1.7214 -1.9500
 2273TIP3    H228311   3.495   6.537   3.066  0.0432  1.5289  1.4359
 2274TIP3   OH228312   3.961   0.825   4.928 -0.1783  0.0156 -0.1675
 2274TIP3    H128313   4.043   0.776   4.934  1.0469  1.3979 -3.3645
 2274TIP3    H228314   3.912   0.782   4.858 -1.4475  0.2094  0.5748
 2275TIP3   OH228315   1.945   3.155  14.349  0.3474  0.2530 -0.0889
 2275TIP3    H128316   1.974   3.066  14.372 -0.4236 -0.1463 -0.6213
 2275TIP3    H228317   1.934   3.198  14.434 -0.3724 -0.5280  0.2379
 2276TIP3   OH228318   0.597   2.017  15.141  0.5149 -0.0399  0.2779
 2276TIP3    H128319   0.612   2.063  15.224 -0.0282  0.1488  0.2728
 2276TIP3    H228320   0.681   2.021  15.096  0.4634  0.9983  0.2580
 2277TIP3   OH228321   0.916   4.638   0.355  0.0353 -0.7019 -0.1795
 2277TIP3    H128322   0.883   4.712   0.305  0.8594 -0.6088 -0.6031
 2277TIP3    H228323   0.857   4.566   0.333 -1.5268  0.0892  1.1772
 2278TIP3   OH228324   1.730   2.002  17.111 -0.1150 -0.2554 -0.2161
 2278TIP3    H128325   1.661   2.032  17.052 -1.8010 -1.2790  1.1463
 2278TIP3    H228326   1.751   2.079  17.164 -2.2299 -0.5617  1.1935
 2279TIP3   OH228327   3.152   2.113   2.109  0.1631 -0.1874 -0.1352
 2279TIP3    H128328   3.057   2.107   2.122 -0.0755 -0.5388 -1.7882
 2279TIP3    H228329   3.165   2.199   2.068  0.6505  0.1307  0.6663
 2280TIP3   OH228330   0.002   0.169  12.646  0.2569 -0.1012 -0.3079
 2280TIP3    H128331   0.033   0.223  12.719 -1.4447 -1.3022  1.3894
 2280TIP3    H228332   0.075   0.110  12.627  1.6429  1.8154 -1.3059
 2281TIP3   OH228333   0.420   0.530   4.127 -0.3810 -0.6229  0.0377
 2281TIP3    H128334   0.438   0.579   4.207 -1.8171 -0.8972  0.5601
 2281TIP3    H228335   0.466   0.447   4.138 -1.9884 -1.3850  1.4166
 2282TIP3   OH228336   3.722   5.833   1.310  0.1942 -0.2432 -0.1734
 2282TIP3    H128337   3.656   5.875   1.257  1.8622  1.1187 -1.2843
 2282TIP3    H228338   3.727   5.743   1.276  0.1274  0.1551 -1.2730
 2283TIP3   OH228339   4.975   3.159   3.936  0.4622 -0.3562 -0.1707
 2283TIP3    H128340   5.048   3.157   3.998  1.2763 -3.4871 -1.0316
 2283TIP3    H228341   5.017   3.154   3.850 -0.7444  0.6568 -0.8509
 2284TIP3   OH228342   1.277   3.070  17.024 -0.0272  0.5138  0.5727
 2284TIP3    H128343   1.334   3.000  17.055  0.0731  0.5031  0.3645
 2284TIP3    H228344   1.238   3.106  17.104 -0.2954  0.0407  0.6556
 2285TIP3   OH228345   1.686   6.203   2.798  0.0985  0.3846 -0.9858
 2285TIP3    H128346   1.678   6.190   2.893 -0.9996  0.3970 -1.0589
 2285TIP3    H228347   1.613   6.261   2.776  0.2824  0.2944 -1.8586
 2286TIP3   OH228348   3.265   5.266  14.920  0.3049  0.0664 -0.2623
 2286TIP3    H128349   3.337   5.271  14.858 -1.3609  2.0112 -2.1820
 2286TIP3    H228350   3.304   5.292  15.004  2.0164  0.0758 -1.0171
 2287TIP3   OH228351   5.296   3.941  13.849  0.4196  0.4601  0.6772
 2287TIP3    H128352   5.271   3.989  13.928 -2.2638  0.4860 -0.0870
 2287TIP3    H228353   5.389   3.961  13.837  0.5815  1.5127  3.0553
 2288TIP3   OH228354   3.840   5.804   1.013  0.1227 -0.7174 -0.3508
 2288TIP3    H128355   3.925   5.848   1.009  0.9179 -2.2604 -2.7137
 2288TIP3    H228356   3.854   5.730   1.072  0.5768 -1.2392 -1.1036
 2289TIP3   OH228357   4.725   4.010  13.491 -0.1667 -0.2156  0.4094
 2289TIP3    H128358   4.786   4.018  13.418  0.6710  2.1695  1.2616
 2289TIP3    H228359   4.639   3.997  13.450  0.3921  0.2466 -0.9581
 2290TIP3   OH228360   0.162   3.528  16.060  0.3310 -0.3074 -0.2019
 2290TIP3    H128361   0.239   3.548  16.113 -0.8988  3.6524  0.4147
 2290TIP3    H228362   0.172   3.582  15.981 -0.9060 -1.2360 -1.0486
 2291TIP3   OH228363   2.081   1.392   5.481  0.2666  0.0616 -0.5527
 2291TIP3    H128364   2.058   1.461   5.419 -1.0579  0.9793  0.8992
 2291TIP3    H228365   2.139   1.435   5.543 -0.2742 -0.2148  0.1535
 2292TIP3   OH228366   2.698   2.510   2.512  0.6766 -0.0561 -0.5565
 2292TIP3    H128367   2.614   2.516   2.466 -0.2536 -0.1974  1.0474
 2292TIP3    H228368   2.736   2.597   2.504  1.1052 -0.3865 -2.5611
 2293TIP3   OH228369   2.605   6.239   1.857 -0.2958  0.1004 -0.2277
 2293TIP3    H128370   2.558   6.320   1.879 -3.7737 -1.1065 -2.3654
 2293TIP3    H228371   2.691   6.268   1.827 -1.0482  2.8970  0.0421
 2294TIP3   OH228372   1.208   0.449   5.573 -0.1533  0.5602  0.2952
 2294TIP3    H128373   1.189   0.386   5.642  0.5526  0.2860  0.2499
 2294TIP3    H228374   1.192   0.535   5.613 -0.1964  0.3856  0.6539
 2295TIP3   OH228375   6.428   0.424  13.438 -0.6194 -0.0075  0.5223
 2295TIP3    H128376   6.408   0.353  13.499 -0.9990  2.4900  3.5835
 2295TIP3    H228377   6.433   0.382  13.352 -0.0540 -3.7943  2.2111
 2296TIP3   OH228378   6.718   5.820  15.573 -0.4312  0.0191 -0.6974
 2296TIP3    H128379   6.751   5.746  15.521  1.5812  0.9323 -0.8364
 2296TIP3    H228380   6.729   5.791  15.664 -1.9220 -0.7458 -0.7342
 2297TIP3   OH228381   0.385   5.416  16.674 -0.1893  0.4763  0.4160
 2297TIP3    H128382   0.305   5.365  16.661  0.9716 -1.6675  1.0463
 2297TIP3    H228383   0.379   5.488  16.611 -2.1827 -0.1395 -0.1625
 2298TIP3   OH228384   0.555   5.618   1.836  0.4587 -0.1243 -0.7377
 2298TIP3    H128385   0.643   5.581   1.835  0.8665  0.6500  1.4090
 2298TIP3    H228386   0.506   5.562   1.897 -0.3169 -0.0393 -1.2603
 2299TIP3   OH228387   5.388   1.314   3.784  0.1659  0.5298  0.2301
 2299TIP3    H128388   5.341   1.259   3.846  1.9731  1.1359  2.2856
 2299TIP3    H228389   5.325   1.382   3.759 -1.7305 -1.7175 -1.4866
 2300TIP3   OH228390   4.880   5.714   5.609 -0.1299 -0.0705 -0.2563
 2300TIP3    H128391   4.860   5.621   5.598  0.3364 -0.2697  0.5073
 2300TIP3    H228392   4.958   5.728   5.556 -1.0176  0.2248 -1.5257
 2301TIP3   OH228393   3.071   3.831  11.802  0.8286  0.2295 -0.4282
 2301TIP3    H128394   3.110   3.811  11.887  1.9228 -3.1689 -1.5903
 2301TIP3    H228395   3.080   3.751  11.751 -1.5716  1.4889 -3.1410
 2302TIP3   OH228396   6.683   5.661   0.589  0.3788 -0.3400  0.1865
 2302TIP3    H128397   6.635   5.662   0.671  0.2638  3.2144  0.2270
 2302TIP3    H228398   6.759   5.605   0.606  0.1455 -0.0106  2.5697
 2303TIP3   OH228399   0.859   0.774   5.581 -0.2827  0.0877  0.6558
 2303TIP3    H128400   0.806   0.853   5.579 -0.2550  0.0994  0.3595
 2303TIP3    H228401   0.798   0.705   5.608 -1.0194 -0.3180 -1.8399
 2304TIP3   OH228402   3.332   0.929   1.672  0.0506  0.4154 -0.0607
 2304TIP3    H128403   3.397   0.913   1.741  2.1903  1.1098 -1.7889
 2304TIP3    H228404   3.352   0.863   1.605 -2.5066 -0.7724  0.2215
 2305TIP3   OH228405   5.461   1.589   5.269  0.5443  0.3908  0.2576
 2305TIP3    H128406   5.371   1.606   5.297  0.8440  1.6790  0.5044
 2305TIP3    H228407   5.512   1.660   5.309  1.5958 -0.0601 -0.2558
 2306TIP3   OH228408   6.613   6.656   3.717 -0.0876 -0.0810 -0.2435
 2306TIP3    H128409   6.551   6.632   3.649 -0.3396 -0.1529  0.0084
 2306TIP3    H228410   6.558   6.676   3.793  0.1265  0.9492 -0.3378
 2307TIP3   OH228411   6.334   5.671   5.298 -0.0647  0.0474  0.1799
 2307TIP3    H128412   6.311   5.631   5.214 -2.3656  0.3701  0.5806
 2307TIP3    H228413   6.340   5.598   5.359 -3.3813  0.0482  0.7230
 2308TIP3   OH228414   5.730   2.497   4.576  0.4929  0.1993  0.0654
 2308TIP3    H128415   5.773   2.579   4.551  1.8381 -0.3719  0.4286
 2308TIP3    H228416   5.670   2.522   4.646  1.0181  0.8499  0.2980
 2309TIP3   OH228417   0.181   5.445   5.499 -0.0046  0.2531 -0.0342
 2309TIP3    H128418   0.199   5.353   5.520  0.3153  0.6501  1.5788
 2309TIP3    H228419   0.105   5.442   5.441 -0.7507 -0.9791  0.9642
 2310TIP3   OH228420   4.353   4.411  11.598 -0.3739 -0.2085  0.4963
 2310TIP3    H128421   4.379   4.354  11.526 -0.4434  0.0976  0.2264
 2310TIP3    H228422   4.258   4.414  11.592 -0.3566  0.1079  0.3754
 2311TIP3   OH228423   2.547   0.770   4.296  0.3080 -0.0544 -0.0572
 2311TIP3    H128424   2.465   0.788   4.250 -0.0615 -1.4214  0.0477
 2311TIP3    H228425   2.602   0.727   4.231  0.2577 -0.8106  0.3858
 2312TIP3   OH228426   3.131   5.676   2.074  0.4023 -0.3460  0.7888
 2312TIP3    H128427   3.135   5.591   2.032  1.4674 -1.3974  2.8633
 2312TIP3    H228428   3.098   5.658   2.162  1.0558  1.3079  1.4166
 2313TIP3   OH228429   0.208   1.039  12.347  0.2202 -0.2277  0.3919
 2313TIP3    H128430   0.144   1.109  12.357  1.7397  1.3290 -0.0889
 2313TIP3    H228431   0.160   0.968  12.304 -0.6533  1.7771 -2.1985
 2314TIP3   OH228432   6.633   6.728   2.901 -0.6060 -0.4198 -0.2834
 2314TIP3    H128433   6.676   6.668   2.962 -0.2582 -1.2676 -1.3394
 2314TIP3    H228434   6.588   6.791   2.958  1.0586 -0.1919  0.8715
 2315TIP3   OH228435   4.509   1.145  14.334 -0.3197 -0.1382  0.5275
 2315TIP3    H128436   4.565   1.165  14.409  0.1723 -1.0810  0.4215
 2315TIP3    H228437   4.443   1.214  14.335  0.5978  0.7673  0.8983
 2316TIP3   OH228438   5.647   0.751  16.793 -0.0344 -0.0380  0.1153
 2316TIP3    H128439   5.632   0.762  16.887 -1.6072  0.7560 -0.1891
 2316TIP3    H228440   5.724   0.695  16.787  1.3044  1.4783  1.8681
 2317TIP3   OH228441   1.246   1.491   1.111  0.4997  0.1740 -0.0891
 2317TIP3    H128442   1.243   1.433   1.188  0.3024  0.6006  0.2268
 2317TIP3    H228443   1.200   1.570   1.139  0.6862  0.4475 -0.5528
 2318TIP3   OH228444   5.510   3.501   2.067 -0.0762 -0.6493  0.0218
 2318TIP3    H128445   5.474   3.417   2.040 -0.4467 -1.1496  1.9778
 2318TIP3    H228446   5.434   3.553   2.093 -0.0190  0.8693 -2.4589
 2319TIP3   OH228447   4.820   4.095  11.106 -0.1554  0.0089  0.5844
 2319TIP3    H128448   4.853   4.184  11.108  1.5422 -0.5460 -0.7206
 2319TIP3    H228449   4.832   4.062  11.195  2.3460  0.0337  0.3161
 2320TIP3   OH228450   2.655   2.170   1.496  0.8123  0.0664  0.0709
 2320TIP3    H128451   2.703   2.250   1.518 -0.8417  1.2337 -0.4063
 2320TIP3    H228452   2.694   2.103   1.553  3.2266  0.8421 -0.5527
 2321TIP3   OH228453   3.429   4.128   3.517 -0.3803 -0.0649 -0.1742
 2321TIP3    H128454   3.459   4.086   3.598  1.1922 -0.3155 -0.8380
 2321TIP3    H228455   3.493   4.198   3.501 -1.5691  1.0098 -0.3888
 2322TIP3   OH228456   0.443   2.965   0.498 -0.1617 -0.5961 -0.0433
 2322TIP3    H128457   0.472   3.052   0.473 -0.8908  0.1163  1.4489
 2322TIP3    H228458   0.457   2.961   0.593  0.2411 -2.2518 -0.1486
 2323TIP3   OH228459   6.599   5.404   4.565 -0.0817  0.3884  0.0983
 2323TIP3    H128460   6.601   5.441   4.476 -1.6171  0.0808 -0.0966
 2323TIP3    H228461   6.660   5.330   4.561  2.8364  2.5800  0.4208
 2324TIP3   OH228462   4.524   2.639  16.597  0.1533  0.3022 -0.5265
 2324TIP3    H128463   4.514   2.592  16.514 -0.2592  0.5552 -0.6203
 2324TIP3    H228464   4.608   2.685  16.589 -0.0299  0.5650 -0.9182
 2325TIP3   OH228465   5.484   1.241   1.597  0.1066  0.5550 -0.3717
 2325TIP3    H128466   5.464   1.147   1.596  0.3860  0.5008 -0.7783
 2325TIP3    H228467   5.460   1.269   1.686 -0.8384  0.2874 -0.5272
 2326TIP3   OH228468   6.535   3.265  13.621 -0.2723  0.4789 -0.1953
 2326TIP3    H128469   6.523   3.348  13.575 -0.1307  0.8922  0.4897
 2326TIP3    H228470   6.530   3.289  13.714  0.7871 -0.1204  0.0321
 2327TIP3   OH228471   1.612   1.504   1.636  0.6521 -0.0061  0.6213
 2327TIP3    H128472   1.548   1.433   1.630  1.1600 -0.6012  1.9909
 2327TIP3    H228473   1.562   1.582   1.614 -0.4445 -0.5117  1.2129
 2328TIP3   OH228474   5.710   4.467  13.276 -0.3438 -0.2935 -0.1702
 2328TIP3    H128475   5.625   4.506  13.253 -0.8974 -1.4380 -0.1294
 2328TIP3    H228476   5.764   4.542  13.303 -1.6174  0.3733  0.6720
 2329TIP3   OH228477   1.921   3.101   3.519  0.7864 -0.5204  0.2696
 2329TIP3    H128478   1.830   3.080   3.540  0.1748  1.0009 -0.7064
 2329TIP3    H228479   1.958   3.019   3.487 -0.3160 -1.0808  0.3962
 2330TIP3   OH228480   6.394   3.094   0.944  0.6989 -0.0904  0.3266
 2330TIP3    H128481   6.434   3.007   0.955 -0.1538 -0.1816  4.0115
 2330TIP3    H228482   6.467   3.155   0.952  0.8690 -0.4320  1.8553
 2331TIP3   OH228483   0.872   2.657   2.015  0.0508 -0.4998 -0.1647
 2331TIP3    H128484   0.966   2.659   1.999  0.0603 -2.1069 -0.4950
 2331TIP3    H228485   0.848   2.748   2.033  1.9007 -0.2436  1.3183
 2332TIP3   OH228486   4.926   4.418  11.240 -0.3575  0.5196  0.2062
 2332TIP3    H128487   4.958   4.446  11.154 -0.0048 -2.9413 -0.9236
 2332TIP3    H228488   5.005   4.399  11.290 -0.5122 -1.5209 -0.2414
 2333TIP3   OH228489   3.049   5.020   5.972  0.4027  0.3591  0.1745
 2333TIP3    H128490   3.070   5.050   5.884 -0.6837 -0.6127 -0.4460
 2333TIP3    H228491   3.103   5.075   6.030 -0.4849  2.5587 -0.9514
 2334TIP3   OH228492   0.349   2.838   3.248  0.2122 -0.5133 -0.5640
 2334TIP3    H128493   0.255   2.850   3.234 -0.3193 -0.5963  2.3213
 2334TIP3    H228494   0.373   2.909   3.307  1.1423 -2.4268  1.5166
 2335TIP3   OH228495   4.594   0.186  16.170  0.5515 -0.2525  0.0226
 2335TIP3    H128496   4.630   0.273  16.154  1.7298 -0.6956  0.1148
 2335TIP3    H228497   4.606   0.172  16.264  2.6419 -1.4189 -0.3323
 2336TIP3   OH228498   5.194   6.810   0.825  0.1470  0.0853 -0.5014
 2336TIP3    H128499   5.142   6.890   0.818 -1.0921 -0.6470  0.0212
 2336TIP3    H228500   5.224   6.809   0.915  0.6138  0.2288 -0.6542
 2337TIP3   OH228501   5.762   6.162  16.967  0.1199 -0.1026 -0.8697
 2337TIP3    H128502   5.669   6.169  16.992 -0.1601 -0.4966 -1.7679
 2337TIP3    H228503   5.776   6.236  16.908  0.3220 -0.1804 -0.9190
 2338TIP3   OH228504   3.968   6.617   3.942 -0.5025 -0.6035 -0.0753
 2338TIP3    H128505   3.940   6.548   4.003  0.8580 -1.0362  0.0849
 2338TIP3    H228506   3.894   6.678   3.940 -1.9225 -2.2324 -0.5085
 2339TIP3   OH228507   2.269   6.123   3.838  0.0423 -0.1619 -0.0825
 2339TIP3    H128508   2.278   6.159   3.927 -1.8130  1.5343 -0.5023
 2339TIP3    H228509   2.235   6.034   3.851 -0.5533  0.1937  0.9310
 2340TIP3   OH228510   2.460   4.963   4.309 -0.4306 -0.2755 -0.3576
 2340TIP3    H128511   2.455   4.904   4.383  0.6865  0.9843  0.7858
 2340TIP3    H228512   2.375   4.955   4.265 -0.1549 -3.0168 -0.5395
 2341TIP3   OH228513   3.881   6.671   1.137  0.1290 -0.1330  0.2139
 2341TIP3    H128514   3.962   6.717   1.160 -0.1687 -0.0172  1.0399
 2341TIP3    H228515   3.821   6.689   1.209  0.1751 -2.2543  0.8375
 2342TIP3   OH228516   2.658   6.174  12.699 -0.3157 -0.1099  0.0834
 2342TIP3    H128517   2.586   6.140  12.752  0.4982 -2.1146 -0.0389
 2342TIP3    H228518   2.733   6.175  12.758  0.1418 -0.4765 -0.4884
 2343TIP3   OH228519   0.453   2.026   4.983 -0.6528 -0.2406 -0.3908
 2343TIP3    H128520   0.401   2.063   5.054 -0.8797  0.7863 -1.0738
 2343TIP3    H228521   0.543   2.032   5.014 -0.9172 -2.9477  1.2240
 2344TIP3   OH228522   5.690   2.772   6.464 -0.3346  0.3138 -0.1515
 2344TIP3    H128523   5.604   2.751   6.500 -0.5173  0.5607 -0.4385
 2344TIP3    H228524   5.672   2.832   6.391  0.0711  0.2874 -0.2778
 2345TIP3   OH228525   3.264   3.263   1.484  0.0587  0.3147 -0.0638
 2345TIP3    H128526   3.228   3.256   1.396 -0.1717  0.6619 -0.0006
 2345TIP3    H228527   3.294   3.354   1.491 -2.2255  1.0798  1.0495
 2346TIP3   OH228528   5.841   6.761   3.413  0.2431 -0.4475 -0.3696
 2346TIP3    H128529   5.871   6.803   3.493 -1.1264  1.3721 -0.7550
 2346TIP3    H228530   5.765   6.709   3.440  0.3019 -0.5202 -0.3442
 2347TIP3   OH228531   6.407   3.001   3.062 -0.6003  0.1071  0.0670
 2347TIP3    H128532   6.353   2.997   2.983 -0.0804  0.2647 -0.3072
 2347TIP3    H228533   6.346   2.986   3.134 -1.3129  1.1813 -0.2827
 2348TIP3   OH228534   1.390   1.800   4.040 -0.0235 -0.0975  0.3898
 2348TIP3    H128535   1.411   1.876   3.986 -0.1405 -0.3536 -0.0185
 2348TIP3    H228536   1.296   1.807   4.055  0.0892  0.2408  0.9778
 2349TIP3   OH228537   2.463   5.811  12.793 -0.0895  0.0900  0.7147
 2349TIP3    H128538   2.557   5.799  12.780  0.0327  2.1347 -0.7110
 2349TIP3    H228539   2.428   5.722  12.797  1.7809 -0.7120  0.3365
 2350TIP3   OH228540   6.550   2.943   2.335  0.3536  0.2343 -0.1381
 2350TIP3    H128541   6.616   2.909   2.396  1.6435  0.9716 -1.0575
 2350TIP3    H228542   6.600   2.996   2.273 -1.2522  1.6502 -0.2906
 2351TIP3   OH228543   3.417   5.578   3.095 -0.2818 -0.4931 -0.0147
 2351TIP3    H128544   3.511   5.562   3.097 -0.3832 -1.1096 -0.0240
 2351TIP3    H228545   3.379   5.503   3.141 -0.8120 -0.6261 -0.6499
 2352TIP3   OH228546   1.587   0.400   5.571 -0.3101  0.1289  0.6065
 2352TIP3    H128547   1.609   0.323   5.518 -2.1041  0.4631 -0.7261
 2352TIP3    H228548   1.619   0.474   5.521 -1.6535  0.4252  0.1483
 2353TIP3   OH228549   5.572   4.599   1.993 -0.3106 -0.4126  0.2252
 2353TIP3    H128550   5.627   4.582   2.069 -0.0800  1.7011  0.5734
 2353TIP3    H228551   5.499   4.538   2.002  0.2693 -0.9408  1.5437
 2354TIP3   OH228552   1.203   5.075   3.240 -0.1593  0.1908  0.4923
 2354TIP3    H128553   1.112   5.046   3.247  0.3641 -1.8374 -0.1531
 2354TIP3    H228554   1.242   5.053   3.325  0.0820 -0.4783  0.2223
 2355TIP3   OH228555   0.761   2.751  13.021  0.3506  0.0723  0.0663
 2355TIP3    H128556   0.723   2.750  13.109 -0.1197 -1.7097 -0.1182
 2355TIP3    H228557   0.798   2.664  13.010 -0.9507 -0.2888 -2.0434
 2356TIP3   OH228558   6.741   5.892   6.578  0.2464 -0.6000 -0.0534
 2356TIP3    H128559   6.751   5.952   6.504  2.3811  1.2195  1.5562
 2356TIP3    H228560   6.679   5.936   6.636  0.3212 -0.8997  0.2572
 2357TIP3   OH228561   4.311   0.339   5.349 -0.4442 -0.2236 -0.1914
 2357TIP3    H128562   4.272   0.423   5.322 -0.6927 -0.0907  0.5378
 2357TIP3    H228563   4.357   0.360   5.430 -0.3098 -0.7486 -0.1320
 2358TIP3   OH228564   1.648   4.587  14.550  0.0682  0.3538  0.0400
 2358TIP3    H128565   1.699   4.515  14.588 -2.0447 -0.5769  1.3130
 2358TIP3    H228566   1.701   4.618  14.477  1.8227 -1.3871  0.4798
 2359TIP3   OH228567   3.684   6.227  17.187 -0.1519  0.0942  0.0025
 2359TIP3    H128568   3.699   6.225  17.281 -1.2237 -1.0375  0.1726
 2359TIP3    H228569   3.758   6.278  17.152 -0.2915  1.4343  1.5370
 2360TIP3   OH228570   2.598   4.773   2.934 -0.1176 -0.3357  0.2696
 2360TIP3    H128571   2.617   4.681   2.952  0.9573 -0.2902 -0.5646
 2360TIP3    H228572   2.556   4.773   2.848  1.0695  0.0488 -0.3303
 2361TIP3   OH228573   3.555   3.998   3.741 -0.6964  0.5225 -0.1506
 2361TIP3    H128574   3.623   3.931   3.732 -1.0842 -0.0541  1.0645
 2361TIP3    H228575   3.550   4.015   3.835 -0.8405  2.0328 -0.3989
 2362TIP3   OH228576   1.467   1.348  12.234  0.1272  0.0693  0.1982
 2362TIP3    H128577   1.389   1.318  12.187  0.4369 -1.3434  0.5688
 2362TIP3    H228578   1.439   1.356  12.325  0.4160 -0.4517  0.3346
 2363TIP3   OH228579   6.198   2.156   1.226  0.1360 -0.4764 -0.1651
 2363TIP3    H128580   6.234   2.099   1.157  1.1421  0.2815 -0.2975
 2363TIP3    H228581   6.248   2.133   1.304 -1.8141 -2.1704  0.6501
 2364TIP3   OH228582   3.857   2.693   2.428 -0.3545  0.1423  0.0319
 2364TIP3    H128583   3.854   2.646   2.512 -2.3814  0.0292 -0.0575
 2364TIP3    H228584   3.885   2.627   2.365  1.9109  0.4016  0.6681
 2365TIP3   OH228585   0.122   4.044  15.406  1.0989 -0.6299  0.0570
 2365TIP3    H128586   0.188   4.007  15.348 -0.9582 -0.1425 -2.8072
 2365TIP3    H228587   0.140   4.138  15.407 -0.1556 -0.3197 -1.7309
 2366TIP3   OH228588   0.503   3.718   4.578  0.2393  0.2364 -0.2984
 2366TIP3    H128589   0.415   3.725   4.541  0.6662  2.6622 -1.0334
 2366TIP3    H228590   0.533   3.631   4.551 -0.9371  0.3901 -2.3435
 2367TIP3   OH228591   0.487   6.713   6.170 -0.8976 -0.4432 -0.1341
 2367TIP3    H128592   0.577   6.731   6.199  0.2596 -1.5199 -2.7618
 2367TIP3    H228593   0.444   6.678   6.248  0.9559  0.1017  1.2094
 2368TIP3   OH228594   2.618   3.937   0.965 -0.0354 -0.3083 -0.1617
 2368TIP3    H128595   2.568   3.858   0.983 -0.3955  0.0795  0.6064
 2368TIP3    H228596   2.693   3.933   1.024 -0.5250  0.3379  0.5318
 2369TIP3   OH228597   0.368   3.278   3.237  0.2117  0.3507 -0.1115
 2369TIP3    H128598   0.359   3.218   3.163  0.9195  1.4783 -1.1241
 2369TIP3    H228599   0.358   3.221   3.314  1.8688 -1.2592 -1.0085
 2370TIP3   OH228600   3.083   4.981  15.358 -0.7028 -0.3995  0.0159
 2370TIP3    H128601   3.098   5.075  15.359 -1.1839 -0.3068 -0.7613
 2370TIP3    H228602   3.028   4.966  15.280  1.0229 -1.5625 -1.0540
 2371TIP3   OH228603   0.169   6.790   1.002 -0.2773 -0.3481  0.0457
 2371TIP3    H128604   0.158   6.864   0.943 -0.9176  0.0734  0.6759
 2371TIP3    H228605   0.167   6.713   0.945 -0.3557  0.0764 -0.5293
 2372TIP3   OH228606   0.748   4.182  11.183 -0.4624  0.5510  0.0558
 2372TIP3    H128607   0.795   4.165  11.102  0.7879  1.6693  0.5029
 2372TIP3    H228608   0.656   4.170  11.161 -0.0312 -1.1137 -1.0111
 2373TIP3   OH228609   5.398   6.640  17.005 -0.1135  0.2346 -0.3394
 2373TIP3    H128610   5.329   6.705  16.998 -2.0796 -1.7325 -0.0895
 2373TIP3    H228611   5.363   6.572  17.062  1.2267 -1.7977 -1.7798
 2374TIP3   OH228612   3.693   1.031  13.271 -0.0999  0.3554  0.7397
 2374TIP3    H128613   3.598   1.032  13.268 -0.1778 -1.7282 -1.6430
 2374TIP3    H228614   3.715   0.975  13.346 -0.8933 -1.3624 -0.2507
 2375TIP3   OH228615   5.430   1.634   4.698 -0.5853  0.1493 -0.2515
 2375TIP3    H128616   5.362   1.626   4.765  0.4007 -0.0578  0.7746
 2375TIP3    H228617   5.491   1.562   4.718  0.5490  1.0422 -0.3789
 2376TIP3   OH228618   2.739   5.795   5.548  0.4582 -0.1745  0.0332
 2376TIP3    H128619   2.814   5.776   5.491  1.3537 -0.0429  1.1421
 2376TIP3    H228620   2.725   5.714   5.597  0.0853 -0.0918  0.0637
 2377TIP3   OH228621   2.162   1.609  14.943 -0.3877 -0.3846 -0.8652
 2377TIP3    H128622   2.079   1.570  14.969  0.4304 -1.8171 -0.3040
 2377TIP3    H228623   2.169   1.689  14.996 -1.8889  0.3428 -1.7193
 2378TIP3   OH228624   3.293   3.152   2.895  0.8120  0.0618  0.2314
 2378TIP3    H128625   3.236   3.098   2.950  1.7024 -0.4100  0.7125
 2378TIP3    H228626   3.373   3.100   2.886  0.7801  0.2372 -1.3128
 2379TIP3   OH228627   4.550   5.839   2.457  0.2186 -0.2466 -0.1989
 2379TIP3    H128628   4.498   5.842   2.538  0.8703  1.6117  0.2042
 2379TIP3    H228629   4.569   5.746   2.443  2.3493 -0.4954  3.2731
 2380TIP3   OH228630   3.421   3.516   0.587 -0.5017  0.3522  0.1217
 2380TIP3    H128631   3.464   3.525   0.502  1.6486 -0.0026  1.1250
 2380TIP3    H228632   3.425   3.603   0.626 -3.0727  0.9651 -0.7793
 2381TIP3   OH228633   5.319   0.227   0.025 -0.1874 -0.0866  0.1022
 2381TIP3    H128634   5.387   0.164   0.003 -0.0451  0.3396 -0.6878
 2381TIP3    H228635   5.250   0.212  -0.040 -0.4967  0.0355  0.4001
 2382TIP3   OH228636   0.157   2.584   5.307 -0.3425 -0.4138 -0.4341
 2382TIP3    H128637   0.067   2.602   5.281 -1.1204 -1.3713  1.4057
 2382TIP3    H228638   0.185   2.663   5.352  0.5041  0.6753 -2.7056
 2383TIP3   OH228639   2.223   3.154   2.306  0.1250  0.4328  0.6127
 2383TIP3    H128640   2.148   3.128   2.253  1.3923  0.2207 -1.1916
 2383TIP3    H228641   2.243   3.078   2.360  0.9895 -0.7531 -1.2790
 2384TIP3   OH228642   4.085   5.108  14.952 -0.3034  0.0282  0.3133
 2384TIP3    H128643   4.019   5.040  14.944  1.0467 -1.1890 -1.2336
 2384TIP3    H228644   4.157   5.078  14.897  0.4498  2.5947 -0.2331
 2385TIP3   OH228645   1.694   0.050   0.563 -0.0989 -0.4760  0.0904
 2385TIP3    H128646   1.664   0.026   0.475 -0.3813  1.1601 -0.2894
 2385TIP3    H228647   1.617   0.036   0.618 -2.5179  5.2721 -1.1382
 2386TIP3   OH228648   5.962   0.824   0.194  0.1079 -0.3550  0.4016
 2386TIP3    H128649   5.972   0.913   0.228 -2.2271  0.1616 -0.1210
 2386TIP3    H228650   6.022   0.772   0.247  0.7995  1.3579  1.3923
 2387TIP3   OH228651   0.136   0.442  12.136  0.4004 -0.2978 -0.3064
 2387TIP3    H128652   0.135   0.393  12.218 -1.0737  1.3269  0.7281
 2387TIP3    H228653   0.107   0.379  12.070 -1.4159 -0.8723  0.9639
 2388TIP3   OH228654   2.797   5.808  10.988 -0.2702  0.1371 -0.0585
 2388TIP3    H128655   2.813   5.750  11.062 -0.8725 -0.6915 -0.5663
 2388TIP3    H228656   2.866   5.787  10.925  0.5209  1.1618  0.4260
 2389TIP3   OH228657   6.054   3.838   3.297 -0.3301 -0.5519 -0.1375
 2389TIP3    H128658   6.086   3.870   3.381 -0.9037 -0.4359  0.0385
 2389TIP3    H228659   6.082   3.904   3.234  0.7420 -0.9986 -0.1544
 2390TIP3   OH228660   3.080   4.581  10.700  0.1489 -0.8483 -0.0009
 2390TIP3    H128661   2.989   4.556  10.717  0.5478 -1.5376  1.1905
 2390TIP3    H228662   3.127   4.498  10.693  0.5193 -0.5374 -1.7912
 2391TIP3   OH228663   5.636   6.758   3.850 -0.4938  0.3625  0.1458
 2391TIP3    H128664   5.630   6.848   3.820 -0.9253  0.1246 -0.5024
 2391TIP3    H228665   5.726   6.748   3.880 -0.1176  0.6774 -0.8559
 2392TIP3   OH228666   3.206   2.588  13.759 -0.6801  0.2232 -0.0244
 2392TIP3    H128667   3.126   2.591  13.812 -1.0017 -0.6312 -0.4432
 2392TIP3    H228668   3.243   2.676  13.767 -2.4092  1.0945 -0.9976
 2393TIP3   OH228669   3.853   3.911  14.849 -0.4403  0.2642 -0.4797
 2393TIP3    H128670   3.766   3.917  14.809 -1.0349 -1.8894  0.3305
 2393TIP3    H228671   3.849   3.833  14.905  2.2440 -0.3708 -0.9959
 2394TIP3   OH228672   0.122   6.790   2.730  0.0409 -0.0455  0.2102
 2394TIP3    H128673   0.141   6.883   2.718 -3.2166  0.8469  1.0816
 2394TIP3    H228674   0.097   6.782   2.822 -0.6000 -1.5771 -0.0676
 2395TIP3   OH228675   3.360   2.344   3.654 -0.5228  0.2380 -0.3327
 2395TIP3    H128676   3.270   2.373   3.668 -1.0079 -1.2248 -0.2293
 2395TIP3    H228677   3.401   2.415   3.605 -1.7196  0.9425 -0.3581
 2396TIP3   OH228678   5.791   6.836  15.688 -0.1808  0.0706 -0.5986
 2396TIP3    H128679   5.727   6.764  15.689 -1.5286  1.2109 -1.7754
 2396TIP3    H228680   5.835   6.827  15.604  0.7015 -0.2483 -0.1128
 2397TIP3   OH228681   5.141   1.327   0.429  0.8942 -0.0973 -0.1348
 2397TIP3    H128682   5.167   1.261   0.494 -1.4513 -0.3763  0.5991
 2397TIP3    H228683   5.135   1.278   0.347 -0.7539 -0.8490  0.3912
 2398TIP3   OH228684   1.022   0.088  14.916 -0.4525  0.3364 -0.8495
 2398TIP3    H128685   1.030   0.018  14.981 -2.3428  0.4609 -0.4423
 2398TIP3    H228686   1.002   0.043  14.834 -0.2968  0.3176 -0.8774
 2399TIP3   OH228687   3.806   2.804   3.278 -0.2492 -0.1334  0.5710
 2399TIP3    H128688   3.823   2.748   3.203 -1.4694  0.8338 -0.5016
 2399TIP3    H228689   3.710   2.807   3.283 -0.5332  4.4828 -1.6805
 2400TIP3   OH228690   6.164   5.747  11.889  0.1657  0.8301  0.5076
 2400TIP3    H128691   6.256   5.725  11.875 -0.1560 -0.7475  0.6613
 2400TIP3    H228692   6.128   5.758  11.801  0.5531  1.6952  0.4558
 2401TIP3   OH228693   4.740   1.257   2.728  0.2918  0.1231  0.0745
 2401TIP3    H128694   4.828   1.294   2.717 -0.1457  1.5311  1.0207
 2401TIP3    H228695   4.733   1.190   2.660  1.8337  0.4832 -0.4717
 2402TIP3   OH228696   2.010   1.696   1.345  0.5774  0.6860  0.1519
 2402TIP3    H128697   1.921   1.664   1.332  0.4547  1.4293 -0.9777
 2402TIP3    H228698   2.060   1.659   1.272  1.2767  0.0629  0.9149
 2403TIP3   OH228699   5.756   5.798  12.455  0.5167 -0.4846  0.2546
 2403TIP3    H128700   5.794   5.814  12.541  2.1587 -0.9864 -0.3267
 2403TIP3    H228701   5.796   5.864  12.398 -0.6643 -0.0590 -0.1104
 2404TIP3   OH228702   5.878   6.265  15.584  0.2208 -0.2175 -0.7835
 2404TIP3    H128703   5.905   6.348  15.543 -0.9096  0.7960  0.4360
 2404TIP3    H228704   5.953   6.240  15.638 -0.5627  1.7407  1.3492
 2405TIP3   OH228705   5.191   5.934   0.068  0.0760 -0.2438  0.6341
 2405TIP3    H128706   5.280   5.902   0.083 -0.9161 -2.2556  3.1618
 2405TIP3    H228707   5.166   5.898  -0.016  0.5255 -2.6800  1.4689
 2406TIP3   OH228708   0.893   5.937   4.228  0.2722 -0.0263  0.0068
 2406TIP3    H128709   0.961   5.964   4.165 -0.3583 -0.0021 -0.6786
 2406TIP3    H228710   0.886   5.842   4.217 -0.6682  0.1182 -0.8371
 2407TIP3   OH228711   1.795   2.862  12.072 -0.5882  0.1717 -0.6131
 2407TIP3    H128712   1.709   2.844  12.108 -0.4786 -1.5281 -1.1344
 2407TIP3    H228713   1.843   2.780  12.081  1.3835  1.3622  0.6934
 2408TIP3   OH228714   5.024   6.289  11.746 -0.2591 -0.2674 -0.1383
 2408TIP3    H128715   4.974   6.260  11.822  0.5423  1.1398  0.9758
 2408TIP3    H228716   5.000   6.381  11.735 -0.6227 -0.5217 -1.8441
 2409TIP3   OH228717   5.751   5.473  16.080 -0.2600  0.8512  0.2984
 2409TIP3    H128718   5.841   5.468  16.047 -0.9950 -0.1223 -1.7534
 2409TIP3    H228719   5.759   5.514  16.166  2.1171  0.9419  0.1009
 2410TIP3   OH228720   0.976   1.652   1.687  0.3619 -0.4866  0.2278
 2410TIP3    H128721   1.016   1.565   1.688  0.6595 -0.3520  0.0804
 2410TIP3    H228722   0.956   1.671   1.778  1.3461 -0.2281  0.4038
 2411TIP3   OH228723   3.713   1.268   5.118  0.1717 -0.0745 -0.2763
 2411TIP3    H128724   3.748   1.356   5.108  0.2853 -0.1029 -0.1374
 2411TIP3    H228725   3.763   1.215   5.055  0.2737 -0.0851 -0.1883
 2412TIP3   OH228726   6.173   6.807  11.349  0.1620  0.1692  0.2427
 2412TIP3    H128727   6.170   6.897  11.316 -1.8968  0.0329 -0.0562
 2412TIP3    H228728   6.155   6.753  11.272 -2.4313 -0.2543  1.0355
 2413TIP3   OH228729   0.111   1.342   1.719 -0.2175  0.5056  0.0507
 2413TIP3    H128730   0.189   1.393   1.696 -0.1649  0.1950 -0.4791
 2413TIP3    H228731   0.142   1.252   1.727 -0.7501  0.1612 -1.4826
 2414TIP3   OH228732   4.433   0.313  15.716 -0.2954 -0.1645  0.1874
 2414TIP3    H128733   4.467   0.394  15.755 -1.4781 -0.0630  1.0708
 2414TIP3    H228734   4.477   0.243  15.763  1.0861 -0.0694 -0.8968
 2415TIP3   OH228735   2.759   1.810   2.802  0.2877 -0.5045 -0.0406
 2415TIP3    H128736   2.771   1.832   2.895 -0.2976  1.8110 -0.4549
 2415TIP3    H228737   2.673   1.767   2.800 -1.9841  3.5315  0.0498
 2416TIP3   OH228738   0.922   5.682   5.106 -0.2145  0.6140 -0.3941
 2416TIP3    H128739   0.938   5.739   5.031  1.2711  0.9231  0.1232
 2416TIP3    H228740   0.965   5.600   5.083  0.8621  0.9386  0.3819
 2417TIP3   OH228741   4.524   2.640  15.095 -0.5996 -0.0942  0.6079
 2417TIP3    H128742   4.481   2.695  15.030 -1.6969 -1.6078 -0.0219
 2417TIP3    H228743   4.580   2.700  15.145 -0.4280  1.2746 -1.1192
 2418TIP3   OH228744   2.551   5.555  16.492 -0.1418  0.2540 -0.0156
 2418TIP3    H128745   2.509   5.471  16.475  0.6120 -0.4215  1.3245
 2418TIP3    H228746   2.480   5.619  16.487 -0.8208 -0.5244 -0.4765
 2419TIP3   OH228747   5.025   2.442  13.905 -0.4476 -0.4804  0.5120
 2419TIP3    H128748   5.050   2.360  13.946 -1.0367 -0.3964  1.0509
 2419TIP3    H228749   5.065   2.510  13.960 -0.1796 -0.3987  0.2193
 2420TIP3   OH228750   6.472   5.934   0.425 -0.0212 -0.2377  0.3505
 2420TIP3    H128751   6.474   5.893   0.511  0.2673  0.8857  0.9007
 2420TIP3    H228752   6.560   5.968   0.412 -0.8359  2.4011  1.0519
 2421TIP3   OH228753   2.996   5.616   5.828  0.2777 -0.0300 -0.3345
 2421TIP3    H128754   3.052   5.693   5.819  0.3982 -0.1450 -0.5862
 2421TIP3    H228755   3.053   5.549   5.868 -0.3092  0.5407  1.5853
 2422TIP3   OH228756   3.680   5.392   4.151 -0.3495  0.0177  0.1402
 2422TIP3    H128757   3.645   5.337   4.081 -1.4792  0.5750  0.2387
 2422TIP3    H228758   3.625   5.372   4.227  0.2651  0.1017  0.6121
 2423TIP3   OH228759   6.501   0.076   3.071 -0.5708  0.0722  0.0593
 2423TIP3    H128760   6.410   0.063   3.044  0.0492 -2.3908 -1.1698
 2423TIP3    H228761   6.497   0.145   3.137 -3.2104  0.6223 -0.5519
 2424TIP3   OH228762   4.440   1.873   1.634  0.0972  0.0517 -0.0010
 2424TIP3    H128763   4.428   1.848   1.542 -2.6971 -0.2557  0.3631
 2424TIP3    H228764   4.415   1.795   1.684  1.8887  0.1117  1.0585
 2425TIP3   OH228765   1.321   6.139  12.055 -0.2887 -0.2196  0.2547
 2425TIP3    H128766   1.255   6.187  12.005  0.1336  0.7419  0.5887
 2425TIP3    H228767   1.315   6.175  12.144  0.2582 -0.5564  0.4334
 2426TIP3   OH228768   4.886   6.270   6.018 -0.9160 -0.4024  0.3450
 2426TIP3    H128769   4.931   6.251   5.935 -0.7590  0.9212  0.0957
 2426TIP3    H228770   4.902   6.194   6.072  0.4177 -0.5859 -0.2597
 2427TIP3   OH228771   6.329   3.911   1.528  0.0775 -0.1359 -0.1732
 2427TIP3    H128772   6.244   3.949   1.549 -0.1555 -0.1458 -1.0406
 2427TIP3    H228773   6.344   3.936   1.437  1.1259  0.0801  0.0431
 2428TIP3   OH228774   3.301   3.165  11.231 -0.0076 -0.2474 -0.0002
 2428TIP3    H128775   3.366   3.191  11.295  1.3659  0.0388 -1.4587
 2428TIP3    H228776   3.315   3.072  11.218  0.1080 -0.1882 -0.3089
 2429TIP3   OH228777   1.292   6.829  16.029  0.2847 -0.4481 -0.4055
 2429TIP3    H128778   1.296   6.796  15.939 -2.6901  1.5709 -1.4574
 2429TIP3    H228779   1.325   6.919  16.022  0.9450 -0.5818  0.7709
 2430TIP3   OH228780   2.349   5.736   1.853 -0.0427  0.3380 -0.4173
 2430TIP3    H128781   2.292   5.795   1.803 -0.4409  0.2701 -0.0431
 2430TIP3    H228782   2.434   5.781   1.855  0.2265 -0.0501 -1.8920
 2431TIP3   OH228783   6.832   1.302   1.970  0.2324 -0.1004  0.1583
 2431TIP3    H128784   6.802   1.388   2.001  0.4321  0.0027  0.0707
 2431TIP3    H228785   6.889   1.323   1.895 -1.1053 -0.3838 -0.9949
 2432TIP3   OH228786   2.720   1.750   0.967 -0.5493 -0.1853 -0.1905
 2432TIP3    H128787   2.665   1.767   0.891 -2.2759 -2.4873  0.4321
 2432TIP3    H228788   2.769   1.831   0.980 -0.8395  0.5809 -3.1789
 2433TIP3   OH228789   0.708   3.952   3.494 -0.3881 -0.7940  0.1923
 2433TIP3    H128790   0.771   3.909   3.436 -0.5572 -0.0508 -0.5705
 2433TIP3    H228791   0.736   4.044   3.496 -0.6800 -0.7151  0.8921
 2434TIP3   OH228792   2.569   2.553   6.231 -0.1427  0.3669 -0.2159
 2434TIP3    H128793   2.504   2.519   6.169  1.2112 -1.5380 -0.6851
 2434TIP3    H228794   2.636   2.485   6.234  0.3397  0.8627  2.6091
 2435TIP3   OH228795   4.709   3.089   0.952 -0.1352  0.3678 -0.3162
 2435TIP3    H128796   4.619   3.112   0.928 -0.7531  0.2216  1.7382
 2435TIP3    H228797   4.730   3.014   0.897 -1.4604  0.0696 -0.4359
 2436TIP3   OH228798   3.566   1.204  14.733  0.8537 -0.5630  0.1598
 2436TIP3    H128799   3.525   1.255  14.803  0.6968 -0.3735 -0.0693
 2436TIP3    H228800   3.634   1.262  14.698  1.0266 -0.7108  0.2491
 2437TIP3   OH228801   5.798   1.690   3.072 -0.0583 -0.0510 -0.6272
 2437TIP3    H128802   5.848   1.688   2.990 -0.5108  1.9574 -1.0139
 2437TIP3    H228803   5.832   1.767   3.117 -2.7029  1.3696 -0.8796
 2438TIP3   OH228804   1.779   4.042  12.877  0.0235 -0.8233 -0.2487
 2438TIP3    H128805   1.868   4.009  12.868  0.7121  0.0644  2.3248
 2438TIP3    H228806   1.778   4.083  12.964 -1.9304  2.1863 -1.5434
 2439TIP3   OH228807   5.847   3.655   5.304 -0.1645 -0.3855 -0.6590
 2439TIP3    H128808   5.849   3.560   5.316 -1.2723 -0.4052 -0.5097
 2439TIP3    H228809   5.826   3.667   5.211 -0.5138 -0.2972 -0.5705
 2440TIP3   OH228810   3.398   6.177  16.199 -0.2533 -0.8649  0.1159
 2440TIP3    H128811   3.443   6.095  16.179  0.3756 -0.1610 -1.5358
 2440TIP3    H228812   3.443   6.211  16.276 -0.4454 -1.9865  0.7577
 2441TIP3   OH228813   2.566   6.030   3.760 -0.1541 -0.1784  0.1895
 2441TIP3    H128814   2.578   5.989   3.675 -0.1285 -0.0357  0.1228
 2441TIP3    H228815   2.522   5.964   3.813 -0.0926 -0.2985  0.0909
 2442TIP3   OH228816   0.655   3.134  12.228  0.5840 -0.0214  0.6743
 2442TIP3    H128817   0.574   3.132  12.278  1.0998  1.5245  1.6220
 2442TIP3    H228818   0.722   3.101  12.289  0.7210 -1.1793 -0.0625
 2443TIP3   OH228819   4.116   5.479  13.411 -0.0353  0.4804  0.3861
 2443TIP3    H128820   4.041   5.533  13.387  0.1925  0.3897 -0.5748
 2443TIP3    H228821   4.088   5.434  13.490 -0.9220  0.6082  0.1626
 2444TIP3   OH228822   4.978   4.760   1.966  0.5069  0.6956 -0.3504
 2444TIP3    H128823   4.973   4.755   1.870 -1.8283  0.8353 -0.2970
 2444TIP3    H228824   4.887   4.757   1.994  1.1400  1.0072  1.8727
 2445TIP3   OH228825   5.997   0.952   2.010  0.0115 -0.6918 -0.1363
 2445TIP3    H128826   6.011   1.000   2.092 -1.0508  0.0213 -0.3602
 2445TIP3    H228827   6.069   0.889   2.007 -0.0539 -0.8865  1.4642
 2446TIP3   OH228828   1.189   4.993  15.460  0.0255  0.2523  0.2213
 2446TIP3    H128829   1.217   4.907  15.429 -0.9972  0.5197 -1.5983
 2446TIP3    H228830   1.110   4.975  15.512  1.5459 -0.1634  2.5110
 2447TIP3   OH228831   5.217   3.726   1.310  0.3601  0.4915  0.1335
 2447TIP3    H128832   5.258   3.696   1.228 -0.6661  0.4102 -0.3701
 2447TIP3    H228833   5.135   3.676   1.315  0.5061  0.3570  1.3194
 2448TIP3   OH228834   5.607   0.609   4.259  0.1361 -0.2080 -0.1864
 2448TIP3    H128835   5.662   0.660   4.200  0.5005 -0.3365  0.0368
 2448TIP3    H228836   5.593   0.526   4.213  1.6033 -0.8679  0.4997
 2449TIP3   OH228837   6.227   2.055   2.231 -0.0289  0.2146  0.0292
 2449TIP3    H128838   6.150   1.998   2.234  0.0661  0.0570 -0.4681
 2449TIP3    H228839   6.290   2.012   2.289  0.5316 -0.9367 -1.3645
 2450TIP3   OH228840   5.978   2.344  12.500  0.3399 -0.1670 -0.3423
 2450TIP3    H128841   5.983   2.395  12.419 -0.4870 -3.8785 -3.0293
 2450TIP3    H228842   5.897   2.294  12.492  1.8616 -3.1456  1.1178
 2451TIP3   OH228843   3.970   2.506  15.998  0.0773 -0.2710 -0.6373
 2451TIP3    H128844   3.909   2.566  16.040  1.1172  0.0301  0.4916
 2451TIP3    H228845   3.986   2.438  16.063  2.4617  0.7184 -0.0402
 2452TIP3   OH228846   6.572   0.268  16.293 -0.0417  0.6478  0.5504
 2452TIP3    H128847   6.501   0.204  16.298  0.0518  0.6296  3.0014
 2452TIP3    H228848   6.648   0.216  16.268 -0.2533  0.0265  1.1322
 2453TIP3   OH228849   5.440   5.567   6.238 -0.3089  0.0409  0.2369
 2453TIP3    H128850   5.351   5.576   6.272 -0.1036 -2.6163  1.7780
 2453TIP3    H228851   5.484   5.510   6.301  1.8692 -0.4416 -1.5854
 2454TIP3   OH228852   6.718   3.229  13.042  0.3507 -0.6801  0.0566
 2454TIP3    H128853   6.671   3.254  13.122 -0.0466 -2.3603  0.4063
 2454TIP3    H228854   6.806   3.208  13.072 -0.3325 -3.3233  0.5072
 2455TIP3   OH228855   6.199   0.054  15.566  0.3610  0.1798 -0.5001
 2455TIP3    H128856   6.191  -0.007  15.639  1.2490  0.7161  0.0750
 2455TIP3    H228857   6.128   0.031  15.507 -0.6193 -0.0105  0.7216
 2456TIP3   OH228858   1.677   0.712  13.427 -0.8549  0.1059 -0.0157
 2456TIP3    H128859   1.709   0.649  13.491 -0.6621  0.3729  0.1506
 2456TIP3    H228860   1.663   0.793  13.476 -0.5155  0.3710 -0.3410
 2457TIP3   OH228861   0.996   3.816  12.185  0.6450  0.2528  0.1521
 2457TIP3    H128862   1.031   3.871  12.114  2.4246 -0.0756  0.7313
 2457TIP3    H228863   0.909   3.790  12.154  0.9117  1.0620 -1.3880
 2458TIP3   OH228864   1.214   1.566   5.762  0.6822  0.1810 -0.3513
 2458TIP3    H128865   1.276   1.493   5.765  0.8465  0.2365 -1.8083
 2458TIP3    H228866   1.166   1.559   5.845  1.1772 -1.1417 -0.1403
 2459TIP3   OH228867   5.295   4.059   0.606 -0.7872  0.4056  0.1004
 2459TIP3    H128868   5.318   4.108   0.528 -0.0213 -1.0197 -0.5930
 2459TIP3    H228869   5.376   4.014   0.632 -1.6777 -1.2816  0.1166
 2460TIP3   OH228870   3.820   4.435  13.687 -0.4414 -0.6903  0.4349
 2460TIP3    H128871   3.749   4.491  13.719  1.8744  1.9413  1.3889
 2460TIP3    H228872   3.821   4.362  13.749 -1.3297  0.0476  1.3756
 2461TIP3   OH228873   5.329   1.902  13.325 -0.1799 -0.2644 -0.3586
 2461TIP3    H128874   5.398   1.918  13.389  0.0043 -1.7216 -0.1641
 2461TIP3    H228875   5.280   1.984  13.323  1.4261  0.7503 -0.3745
 2462TIP3   OH228876   2.655   0.331   1.371  0.6260  0.2378 -0.5919
 2462TIP3    H128877   2.565   0.346   1.343  0.5245 -0.0522 -0.4181
 2462TIP3    H228878   2.707   0.394   1.319  0.6149 -1.2572 -2.5321
 2463TIP3   OH228879   2.669   6.365   2.329  0.5900  0.4450  0.2493
 2463TIP3    H128880   2.738   6.416   2.286  0.4184 -0.4420 -1.1161
 2463TIP3    H228881   2.617   6.431   2.376 -1.5076  2.1508 -3.9055
 2464TIP3   OH228882   4.923   1.328  11.277 -0.2121  0.7568  0.1335
 2464TIP3    H128883   4.926   1.274  11.198  1.4225  1.2704 -0.2112
 2464TIP3    H228884   4.833   1.324  11.307 -0.4359 -0.9759 -0.7004
 2465TIP3   OH228885   2.501   4.112   0.308  0.3016  0.5933  0.0754
 2465TIP3    H128886   2.572   4.055   0.337 -1.6794 -1.3876  1.3644
 2465TIP3    H228887   2.463   4.067   0.232 -1.0179  0.3538  0.8435
 2466TIP3   OH228888   4.897   1.457  12.344  0.1843 -0.2042 -0.5850
 2466TIP3    H128889   4.808   1.491  12.333 -0.8677 -2.9037 -1.1880
 2466TIP3    H228890   4.939   1.519  12.405 -1.6118  1.9032 -1.3603
 2467TIP3   OH228891   2.277   0.040  13.957 -0.2325  0.2728 -0.2434
 2467TIP3    H128892   2.338  -0.019  13.915  1.0292  1.4045 -0.0540
 2467TIP3    H228893   2.236  -0.013  14.026  0.8723 -0.3856 -0.0722
 2468TIP3   OH228894   0.074   2.810  16.218 -0.1048  0.1837 -0.5536
 2468TIP3    H128895   0.072   2.902  16.192 -0.6227 -0.1050 -1.6153
 2468TIP3    H228896   0.101   2.764  16.138 -2.2916 -0.7931 -0.7896
 2469TIP3   OH228897   6.760   1.042   1.639  0.1801 -0.2041 -0.0394
 2469TIP3    H128898   6.733   0.978   1.705 -0.7080 -0.7429 -0.8887
 2469TIP3    H228899   6.679   1.088   1.617  0.5132  0.1383 -0.5583
 2470TIP3   OH228900   2.541   4.066  14.204  0.1264 -0.5184  0.2351
 2470TIP3    H128901   2.624   4.083  14.160 -0.4437  0.1826 -0.5823
 2470TIP3    H228902   2.508   4.152  14.229  0.5468 -0.8856  2.3106
 2471TIP3   OH228903   0.198   3.940  12.048 -0.0895  0.1681 -0.0572
 2471TIP3    H128904   0.176   4.031  12.030  0.1353 -0.1241 -2.0497
 2471TIP3    H228905   0.130   3.910  12.108  0.5565  1.9573  1.6593
 2472TIP3   OH228906   4.513   2.535  16.880  0.2930 -0.0717 -0.2558
 2472TIP3    H128907   4.602   2.534  16.915  0.1147 -0.5802  0.2117
 2472TIP3    H228908   4.524   2.543  16.786  0.7925  1.3906 -0.0949
 2473TIP3   OH228909   3.328   4.202  13.117 -0.2017  0.5416 -0.2031
 2473TIP3    H128910   3.286   4.116  13.115  1.0615 -0.3353  3.1597
 2473TIP3    H228911   3.387   4.202  13.042  1.9803 -2.9241  1.2560
 2474TIP3   OH228912   1.928   5.981  11.559  0.3113  0.1084  0.1883
 2474TIP3    H128913   1.926   5.995  11.464 -0.0663 -0.1977  0.1483
 2474TIP3    H228914   2.020   5.965  11.579  0.4398  0.5063 -0.0762
 2475TIP3   OH228915   1.055   4.106   0.397 -0.4882 -0.5524 -0.4150
 2475TIP3    H128916   1.010   4.057   0.329  0.1060  0.5083 -1.6260
 2475TIP3    H228917   1.132   4.054   0.418 -1.0603 -1.2479  0.0097
 2476TIP3   OH228918   3.805   0.710   6.566  0.1020  0.0150 -0.1887
 2476TIP3    H128919   3.828   0.617   6.576 -0.9688 -0.3205 -0.6949
 2476TIP3    H228920   3.713   0.709   6.539 -0.0171  1.2434  0.1200
 2477TIP3   OH228921   2.119   1.065   6.585  0.6284 -0.3428  0.3995
 2477TIP3    H128922   2.025   1.051   6.576  0.3966 -0.2924  2.3672
 2477TIP3    H228923   2.129   1.160   6.580  0.1542 -0.0787  3.0380
 2478TIP3   OH228924   5.575   6.300  11.026  0.6110 -0.0832  0.2842
 2478TIP3    H128925   5.559   6.206  11.013  0.8913  0.1384 -2.3056
 2478TIP3    H228926   5.667   6.311  11.001  0.4023  0.9514 -0.0588
 2479TIP3   OH228927   2.548   6.422  11.679 -0.5791  0.4923  0.1703
 2479TIP3    H128928   2.547   6.434  11.774  3.0151  1.4074  0.2070
 2479TIP3    H228929   2.602   6.345  11.664  0.0710  1.1694 -1.1640
 2480TIP3   OH228930   4.643   4.727   1.066  0.2805  0.4992 -0.4847
 2480TIP3    H128931   4.588   4.652   1.089  0.3564  1.0206  1.5705
 2480TIP3    H228932   4.731   4.700   1.094  0.5063  0.9065 -0.8072
 2481TIP3   OH228933   2.156   3.988   1.837 -0.0272 -0.5123 -0.5838
 2481TIP3    H128934   2.221   4.039   1.885 -0.1983 -2.0971  1.4529
 2481TIP3    H228935   2.207   3.942   1.769  0.6205 -0.0656 -0.4057
 2482TIP3   OH228936   3.332   6.412  13.399  0.0500  0.3670 -0.2368
 2482TIP3    H128937   3.273   6.487  13.396 -1.7779 -1.0089 -0.5023
 2482TIP3    H228938   3.279   6.342  13.436  0.9269 -1.4573 -2.2303
 2483TIP3   OH228939   0.716   2.239  15.907  0.1767  0.3084 -0.0936
 2483TIP3    H128940   0.768   2.161  15.889 -2.6387 -1.7662  0.0207
 2483TIP3    H228941   0.627   2.215  15.881 -1.1661  2.8307  1.7096
 2484TIP3   OH228942   2.607   1.003  14.110  0.3261  0.3686  0.3617
 2484TIP3    H128943   2.544   1.022  14.040 -1.6388 -0.3646  1.8278
 2484TIP3    H228944   2.564   1.034  14.190  0.7894 -2.1623  1.7012
 2485TIP3   OH228945   4.834   2.712  17.110  0.9120 -0.1949  0.5394
 2485TIP3    H128946   4.910   2.668  17.148  1.5267 -0.6508 -1.1137
 2485TIP3    H228947   4.863   2.739  17.022  0.5551  3.4959  1.3902
 2486TIP3   OH228948   1.487   2.848   2.156 -0.2534 -0.4729 -0.1379
 2486TIP3    H128949   1.394   2.871   2.144 -0.0265 -0.1282 -1.4071
 2486TIP3    H228950   1.492   2.755   2.135 -0.2559 -0.4193 -0.3723
 2487TIP3   OH228951   5.832   2.996  15.412  0.9716  0.2483 -0.0763
 2487TIP3    H128952   5.796   2.952  15.488  2.1686 -0.4090  0.1285
 2487TIP3    H228953   5.807   3.088  15.423  0.2122 -0.0251  0.5427
 2488TIP3   OH228954   2.088   0.895   2.728 -0.2421  0.2871 -0.1801
 2488TIP3    H128955   2.131   0.844   2.797 -2.5812 -1.6452 -0.0154
 2488TIP3    H228956   2.110   0.849   2.647 -0.7663  0.1928 -0.2675
 2489TIP3   OH228957   3.794   4.247   0.309  0.0236  0.4468  0.3375
 2489TIP3    H128958   3.793   4.306   0.234 -0.3296  0.1269  0.0912
 2489TIP3    H228959   3.750   4.296   0.378 -0.3727  0.4298  0.0993
 2490TIP3   OH228960   4.860   5.464  11.515  0.0880 -0.4485  0.3102
 2490TIP3    H128961   4.788   5.429  11.463 -0.0813 -1.3876  1.1343
 2490TIP3    H228962   4.935   5.409  11.491  0.4439  0.2802 -0.2628
 2491TIP3   OH228963   6.109   2.012  12.831  0.6853  0.3788  0.0695
 2491TIP3    H128964   6.133   2.101  12.804  2.5574 -0.6042 -1.8285
 2491TIP3    H228965   6.158   1.955  12.771 -3.2674 -1.9510 -1.3594
 2492TIP3   OH228966   4.288   0.022   2.085  0.0449 -0.6139  0.3828
 2492TIP3    H128967   4.220   0.069   2.037  1.1450 -0.6339 -1.2993
 2492TIP3    H228968   4.286  -0.067   2.049  2.0712 -0.1690 -1.0386
 2493TIP3   OH228969   3.497   2.625  12.446 -0.3924 -0.2366 -0.0242
 2493TIP3    H128970   3.494   2.694  12.379  0.2317  1.0080  1.1734
 2493TIP3    H228971   3.557   2.560  12.411  0.1629  0.5462 -0.5509
 2494TIP3   OH228972   6.456   5.510   0.002 -0.1626  0.2211 -0.6127
 2494TIP3    H128973   6.520   5.452  -0.038 -0.5620 -0.8042  0.1755
 2494TIP3    H228974   6.492   5.530   0.088  0.2251  1.6008 -1.0696
 2495TIP3   OH228975   2.524   2.459  14.026 -0.1351 -0.1028  0.2407
 2495TIP3    H128976   2.490   2.477  14.114 -1.4230 -1.6920  0.1154
 2495TIP3    H228977   2.450   2.421  13.979  0.2902  1.4192 -1.8059
 2496TIP3   OH228978   1.161   6.577   5.337  0.5362  0.3224 -0.4121
 2496TIP3    H128979   1.220   6.647   5.310  0.8197  0.8197  1.3183
 2496TIP3    H228980   1.097   6.570   5.267  1.5505  1.0758 -1.4451
 2497TIP3   OH228981   2.521   4.097  14.695  0.4021 -0.3403 -0.4000
 2497TIP3    H128982   2.530   4.155  14.619 -1.7253  1.1392  0.3849
 2497TIP3    H228983   2.499   4.012  14.656 -0.7331  0.4036 -1.4671
 2498TIP3   OH228984   2.238   3.044   3.341  0.0328  0.5474  0.0260
 2498TIP3    H128985   2.157   3.001   3.369  1.5597 -1.7233  1.2962
 2498TIP3    H228986   2.291   2.973   3.305  2.0708  1.6592  0.6843
 2499TIP3   OH228987   0.962   1.060  15.581 -0.4796 -0.1505  0.1347
 2499TIP3    H128988   1.038   1.113  15.557  0.0530 -1.7308 -1.9517
 2499TIP3    H228989   0.916   1.113  15.646  2.6058  0.7041  1.8262
 2500TIP3   OH228990   3.130   4.676  12.186  0.0403  0.2784 -0.0036
 2500TIP3    H128991   3.117   4.581  12.191 -1.1770  0.3809 -0.8403
 2500TIP3    H228992   3.218   4.690  12.220 -0.1816 -1.0339  1.2198
 2501TIP3   OH228993   1.001   6.016   6.541  0.0631  0.2082 -0.5479
 2501TIP3    H128994   0.989   6.041   6.449  0.8180  0.4896 -0.5786
 2501TIP3    H228995   0.919   5.974   6.565  0.7473 -2.3346 -2.1663
 2502TIP3   OH228996   2.441   1.948   2.111 -0.0636 -0.4814  0.4939
 2502TIP3    H128997   2.399   1.889   2.049  2.3415 -1.6397 -0.1539
 2502TIP3    H228998   2.402   1.924   2.196 -1.6426 -0.5414 -0.2139
 2503TIP3   OH228999   5.685   1.403  12.732  0.2673 -0.8808 -0.0860
 2503TIP3    H129000   5.599   1.365  12.712  0.5585 -1.1404 -0.8757
 2503TIP3    H229001   5.673   1.497  12.719 -0.2752 -0.7534  1.2170
 2504TIP3   OH229002   6.452   5.160  16.620  0.3324 -0.0707 -0.1816
 2504TIP3    H129003   6.539   5.120  16.620  0.7516  0.7115  1.8571
 2504TIP3    H229004   6.468   5.252  16.599  0.6321  0.9871  3.7767
 2505TIP3   OH229005   1.485   6.614   3.465  0.0208 -0.0914  0.1836
 2505TIP3    H129006   1.551   6.640   3.401  1.2427 -1.3040  0.9065
 2505TIP3    H229007   1.492   6.518   3.470 -0.6197 -0.0954  1.5161
 2506TIP3   OH229008   1.799   3.926   1.146 -0.2303  0.2736  0.2517
 2506TIP3    H129009   1.818   3.906   1.237 -1.1187  1.6964  0.7769
 2506TIP3    H229010   1.867   3.989   1.120 -1.6150  2.0817  0.8404
 2507TIP3   OH229011   0.731   1.275   3.944 -0.0998 -0.2316 -0.0300
 2507TIP3    H129012   0.788   1.224   3.886  0.6358 -0.0678  0.5379
 2507TIP3    H229013   0.741   1.365   3.914  0.7363 -0.0645  0.6936
 2508TIP3   OH229014   6.539   4.154  11.579  0.2907 -0.3702 -0.2626
 2508TIP3    H129015   6.549   4.206  11.500 -0.7049 -0.2551 -0.3251
 2508TIP3    H229016   6.451   4.175  11.611  0.4610 -0.8484  0.5580
 2509TIP3   OH229017   0.365   3.999  13.494  0.2213  0.2639  0.5011
 2509TIP3    H129018   0.375   3.915  13.538  1.2611  0.6593  1.0890
 2509TIP3    H229019   0.292   4.042  13.540  1.2208  0.6266  1.8384
 2510TIP3   OH229020   6.611   5.843   5.546 -0.1874 -0.0571  0.0556
 2510TIP3    H129021   6.664   5.898   5.489  0.8375 -0.7948  0.2725
 2510TIP3    H229022   6.560   5.905   5.598 -0.3772  0.6407 -0.9366
 2511TIP3   OH229023   0.906   4.189  14.758  0.0328  0.7702 -0.0358
 2511TIP3    H129024   0.844   4.148  14.697  0.5825 -0.4149  0.1670
 2511TIP3    H229025   0.876   4.162  14.845 -0.0418  1.4484  0.1544
 2512TIP3   OH229026   1.551   2.764  13.262 -0.6942 -0.1886 -0.3596
 2512TIP3    H129027   1.589   2.687  13.219  0.8033  0.2994  0.0371
 2512TIP3    H229028   1.489   2.799  13.198 -0.1880 -0.7845 -1.1996
 2513TIP3   OH229029   5.961   6.093   4.707 -0.4076  0.4299 -0.1749
 2513TIP3    H129030   6.016   6.099   4.785 -0.9493  1.1013  0.1643
 2513TIP3    H229031   5.896   6.027   4.728 -0.0216 -0.0234 -0.3962
 2514TIP3   OH229032   4.842   3.840   4.012 -0.4677  0.5801  0.1659
 2514TIP3    H129033   4.839   3.936   4.009 -0.4675  0.5597 -2.7525
 2514TIP3    H229034   4.934   3.819   3.997 -0.6171  0.1189 -0.1254
 2515TIP3   OH229035   1.992   6.189  12.759 -0.1662 -0.2882  0.3886
 2515TIP3    H129036   2.045   6.217  12.684 -1.0434 -0.4859 -0.3297
 2515TIP3    H229037   2.053   6.189  12.833  0.0293  3.0733  0.3933
 2516TIP3   OH229038   6.169   1.772   3.254 -0.2687  0.0297  0.5813
 2516TIP3    H129039   6.159   1.782   3.159 -0.7919 -0.0819  0.6239
 2516TIP3    H229040   6.228   1.844   3.279 -3.1760  2.5953  0.7216
 2517TIP3   OH229041   5.944   4.371  14.377  0.2339  0.6514  0.2659
 2517TIP3    H129042   5.962   4.277  14.370  1.2318  0.7560  1.1892
 2517TIP3    H229043   6.013   4.413  14.327 -1.0699  0.8777 -1.4343
 2518TIP3   OH229044   0.881   5.357  13.419 -0.6478  0.2463 -0.3011
 2518TIP3    H129045   0.810   5.385  13.476 -0.7640  0.7402 -0.6788
 2518TIP3    H229046   0.928   5.290  13.469 -0.7852  0.6262  0.3419
 2519TIP3   OH229047   0.981   4.735   5.877  0.2664 -0.4312  0.1346
 2519TIP3    H129048   0.996   4.657   5.931  0.5149 -0.5437 -0.0988
 2519TIP3    H229049   0.910   4.781   5.922  0.3519 -0.6146  0.4633
 2520TIP3   OH229050   3.364   4.164   4.141 -0.2083  0.0450 -0.0888
 2520TIP3    H129051   3.437   4.170   4.202 -0.5197  1.6393  0.1724
 2520TIP3    H229052   3.318   4.248   4.151 -0.5609  0.1414 -2.1164
 2521TIP3   OH229053   5.313   5.495  13.365  0.2512 -0.1781 -0.1241
 2521TIP3    H129054   5.348   5.514  13.278  1.3335 -1.8349 -0.1084
 2521TIP3    H229055   5.352   5.411  13.388  0.4778  0.4982  2.2301
 2522TIP3   OH229056   5.699   1.062   2.035 -0.8049  0.4771  0.1839
 2522TIP3    H129057   5.671   0.971   2.037 -1.9690  0.8209 -0.0458
 2522TIP3    H229058   5.779   1.061   1.982 -1.0084 -0.3500 -0.1191
 2523TIP3   OH229059   4.636   5.752  14.081 -0.4624 -0.5047 -0.2883
 2523TIP3    H129060   4.673   5.837  14.104 -1.4497  0.0328 -0.6484
 2523TIP3    H229061   4.650   5.698  14.160  1.3030 -0.4244 -0.5003
 2524TIP3   OH229062   3.208   3.427  13.909  0.2066 -0.4544  0.4384
 2524TIP3    H129063   3.175   3.505  13.954  2.5930 -0.6446  2.7701
 2524TIP3    H229064   3.237   3.459  13.823 -1.2962  0.6431  0.3075
 2525TIP3   OH229065   4.460   1.082  13.764  0.2060 -0.1224 -0.1569
 2525TIP3    H129066   4.544   1.054  13.803  0.9763  1.8555 -0.2808
 2525TIP3    H229067   4.400   1.086  13.838  0.8687  0.6985  0.3626
 2526TIP3   OH229068   2.174   1.096   0.663  0.0059  0.1163  0.1641
 2526TIP3    H129069   2.086   1.059   0.673  0.1343 -0.3130 -0.2475
 2526TIP3    H229070   2.231   1.036   0.711 -0.1558  1.4854  2.1582
 2527TIP3   OH229071   2.198   1.006   3.486  0.4484  0.1186 -0.4987
 2527TIP3    H129072   2.271   0.949   3.509  0.2106 -0.5324 -1.3057
 2527TIP3    H229073   2.120   0.955   3.507  0.1670  1.3876  1.8084
 2528TIP3   OH229074   0.715   3.258   3.051  0.0297  0.3339  0.1971
 2528TIP3    H129075   0.800   3.294   3.026  0.4551 -0.2977  0.6993
 2528TIP3    H229076   0.662   3.334   3.071  0.6351  0.7162  0.3731
 2529TIP3   OH229077   5.998   2.893  16.759 -0.3101 -0.1055 -0.0788
 2529TIP3    H129078   6.014   2.986  16.771 -2.1861 -0.0102  2.3314
 2529TIP3    H229079   5.952   2.887  16.675 -0.8781  1.2361  0.1148
 2530TIP3   OH229080   6.528   0.225   2.630  0.1914  0.3792 -0.6306
 2530TIP3    H129081   6.530   0.276   2.549  2.7314  1.7657  0.1877
 2530TIP3    H229082   6.539   0.134   2.603  0.6265  0.7887 -1.8661
 2531TIP3   OH229083   5.236   3.782   0.568  0.0398  0.6995 -0.2849
 2531TIP3    H129084   5.222   3.867   0.526 -0.5321  2.1307  2.5875
 2531TIP3    H229085   5.212   3.796   0.659  2.5906 -1.8384  0.9034
 2532TIP3   OH229086   6.013   4.338  16.173 -0.7788  0.3985 -0.3850
 2532TIP3    H129087   5.952   4.324  16.100 -1.7423 -0.0852  0.4899
 2532TIP3    H229088   6.022   4.433  16.179  0.1718  0.4374 -1.8037
 2533TIP3   OH229089   3.522   2.268  14.696 -0.2597  0.0873  0.0015
 2533TIP3    H129090   3.521   2.361  14.719  2.9972  0.5511 -1.2233
 2533TIP3    H229091   3.604   2.235  14.733 -1.2499 -2.3026  0.2598
 2534TIP3   OH229092   4.078   3.802  15.837 -0.2037  0.1690 -0.0551
 2534TIP3    H129093   3.994   3.777  15.799 -1.3739 -0.8249  2.9304
 2534TIP3    H229094   4.066   3.894  15.862 -0.1318  0.2452 -0.2988
 2535TIP3   OH229095   5.064   2.211  13.170 -0.2805 -0.2331 -0.4320
 2535TIP3    H129096   5.016   2.224  13.088 -0.5422 -0.3771 -0.3045
 2535TIP3    H229097   5.127   2.283  13.173  2.2710 -2.1890 -2.5391
 2536TIP3   OH229098   5.537   2.105   6.676 -0.4032 -1.0505  0.2613
 2536TIP3    H129099   5.473   2.118   6.607  1.1275 -3.1117 -1.6946
 2536TIP3    H229100   5.496   2.040   6.734 -1.7585  0.8081  1.5025
 2537TIP3   OH229101   6.565   4.504  16.021  0.2688 -0.5312  0.3962
 2537TIP3    H129102   6.557   4.596  15.995  0.2348 -0.1790  1.6101
 2537TIP3    H229103   6.642   4.473  15.973 -1.4211 -0.7660 -2.4031
 2538TIP3   OH229104   3.829   5.345   0.307 -0.2297 -0.3198 -0.3283
 2538TIP3    H129105   3.840   5.303   0.392 -1.4863  0.2648  0.1463
 2538TIP3    H229106   3.771   5.419   0.324  0.3572  0.4552 -1.5037
 2539TIP3   OH229107   4.588   1.330  12.884 -0.3058 -0.2748  0.3144
 2539TIP3    H129108   4.657   1.343  12.819 -1.2732 -1.8349 -1.0928
 2539TIP3    H229109   4.531   1.407  12.874 -0.7102 -0.7357 -1.0576
 2540TIP3   OH229110   2.626   0.582   1.952 -0.5035  0.0398 -0.2993
 2540TIP3    H129111   2.636   0.602   2.046 -1.7406  1.3661 -0.4081
 2540TIP3    H229112   2.629   0.487   1.948 -1.0070 -0.0710  1.1765
 2541TIP3   OH229113   1.885   0.997   3.279  0.2186 -0.2393  0.4381
 2541TIP3    H129114   1.941   0.936   3.328  1.1290 -0.0204 -0.3160
 2541TIP3    H229115   1.921   0.997   3.190 -0.7907  0.1496  0.0218
 2542TIP3   OH229116   3.995   0.929  16.483  0.2872  0.1114  0.4043
 2542TIP3    H129117   3.938   0.998  16.451  1.4382  1.0574  0.3095
 2542TIP3    H229118   3.942   0.880  16.546 -1.2039 -0.2139 -1.0427
 2543TIP3   OH229119   0.418   2.724  15.863 -0.5272  0.8396 -0.1637
 2543TIP3    H129120   0.462   2.746  15.781 -0.6554 -0.1867 -0.5179
 2543TIP3    H229121   0.427   2.629  15.870 -0.0008  0.9818  1.3142
 2544TIP3   OH229122   2.866   3.257   2.349  0.0135 -0.2181 -0.0568
 2544TIP3    H129123   2.810   3.186   2.317  2.1196 -2.1757  0.3337
 2544TIP3    H229124   2.819   3.293   2.424  0.3505 -3.6084  1.9672
 2545TIP3   OH229125   2.996   5.665  14.171 -0.3455 -0.2009 -0.1054
 2545TIP3    H129126   3.011   5.697  14.260 -0.5698 -0.9324  0.2041
 2545TIP3    H229127   2.936   5.730  14.132  1.0766  1.0469 -0.3189
 2546TIP3   OH229128   0.050   1.509  15.565 -0.1356 -0.3182 -0.1509
 2546TIP3    H129129   0.117   1.559  15.519  1.4772 -2.3165 -0.1275
 2546TIP3    H229130   0.052   1.542  15.654 -0.5942  0.9777 -0.6042
 2547TIP3   OH229131   0.958   3.700  12.649 -0.1255 -0.2073  0.0699
 2547TIP3    H129132   0.947   3.673  12.558  0.1252 -0.8615  0.2304
 2547TIP3    H229133   1.025   3.768  12.646 -1.3524  1.0375 -0.4385
 2548TIP3   OH229134   0.808   6.763   0.800 -0.1490 -0.3881 -0.0684
 2548TIP3    H129135   0.825   6.851   0.766 -1.5016 -0.6280 -1.5138
 2548TIP3    H229136   0.715   6.748   0.781  0.1241 -2.2367 -0.1337
 2549TIP3   OH229137   6.484   3.985  12.740  0.3712  0.3131 -0.6831
 2549TIP3    H129138   6.561   4.033  12.710  1.5744  0.0672  1.7874
 2549TIP3    H229139   6.441   4.044  12.801  2.4023 -1.7451  3.1828
 2550TIP3   OH229140   5.022   6.632   0.659  0.2659  0.7264 -0.0419
 2550TIP3    H129141   5.071   6.649   0.739  0.4667 -1.7526  0.4592
 2550TIP3    H229142   4.977   6.714   0.639  1.0716  1.7156  1.9894
 2551TIP3   OH229143   6.171   4.323  11.103 -0.1019 -0.0194 -0.0056
 2551TIP3    H129144   6.186   4.417  11.116  0.5849  0.0485 -1.1674
 2551TIP3    H229145   6.210   4.304  11.018  1.0929 -1.6563  0.8344
 2552TIP3   OH229146   1.891   5.096   1.237 -0.2020  0.3634 -0.1034
 2552TIP3    H129147   1.983   5.119   1.220  0.0150  1.6325  2.3800
 2552TIP3    H229148   1.843   5.176   1.220 -0.6402  0.1583  0.1570
 2553TIP3   OH229149   0.788   4.930  13.638 -0.1267 -0.2471 -0.0307
 2553TIP3    H129150   0.832   4.954  13.557  0.1439  1.1695  0.5195
 2553TIP3    H229151   0.829   4.847  13.664  1.1624  0.2829 -0.3168
 2554TIP3   OH229152   3.230   2.903  11.526 -0.3303 -0.0245 -0.0529
 2554TIP3    H129153   3.284   2.971  11.567 -0.9312  0.4067  0.0240
 2554TIP3    H229154   3.140   2.934  11.537 -0.5600 -0.4719 -0.6767
 2555TIP3   OH229155   2.944   6.660   0.077  0.5572 -0.3684  0.0230
 2555TIP3    H129156   2.970   6.663  -0.015  1.9251 -1.7926  0.3264
 2555TIP3    H229157   2.944   6.567   0.099  1.1757 -0.0135  1.6956
 2556TIP3   OH229158   0.341   5.906   4.646 -0.1241  0.3554  0.7019
 2556TIP3    H129159   0.364   5.949   4.563  0.2425 -0.8579  0.1482
 2556TIP3    H229160   0.252   5.935   4.664 -0.4432  0.1436 -0.4615
 2557TIP3   OH229161   2.299   4.938  14.360 -0.1935 -0.4911  0.3392
 2557TIP3    H129162   2.300   4.882  14.438 -1.1121 -1.4292 -0.2986
 2557TIP3    H229163   2.250   4.888  14.295  0.0484  0.5319 -0.6627
 2558TIP3   OH229164   4.541   0.737  14.231 -0.3296  0.2093 -0.0099
 2558TIP3    H129165   4.494   0.751  14.149  0.0170  0.5990 -0.1453
 2558TIP3    H229166   4.472   0.721  14.295 -0.6396  0.6010 -0.2401
 2559TIP3   OH229167   5.190   2.884   4.279  0.2686 -0.3313  0.1223
 2559TIP3    H129168   5.180   2.855   4.370 -0.2600  0.8242  0.4527
 2559TIP3    H229169   5.120   2.947   4.266  1.0057  0.3335 -0.7597
 2560TIP3   OH229170   3.590   3.016   2.163 -0.1088  0.3966 -0.2542
 2560TIP3    H129171   3.609   2.984   2.075  0.9796  0.4854 -0.0650
 2560TIP3    H229172   3.662   2.983   2.216 -0.1826  1.2511  0.3896
 2561TIP3   OH229173   2.714   1.687  12.855 -0.1578 -0.1210  0.1101
 2561TIP3    H129174   2.668   1.715  12.934  0.1096  1.0230 -0.1290
 2561TIP3    H229175   2.807   1.693  12.877 -0.0899 -1.3247  0.2143
 2562TIP3   OH229176   5.457   4.488   5.356  0.4751 -0.1796 -0.1132
 2562TIP3    H129177   5.524   4.464   5.291  0.6521  0.5331 -0.2061
 2562TIP3    H229178   5.374   4.473   5.311  0.4903 -2.7342  0.5856
 2563TIP3   OH229179   5.570   2.575  13.460 -0.0121  0.3849  0.5047
 2563TIP3    H129180   5.659   2.542  13.471 -1.2165 -2.6148  3.3530
 2563TIP3    H229181   5.544   2.546  13.373  1.0269 -1.0242  0.6185
 2564TIP3   OH229182   6.612   4.078  11.123  0.0266  0.0607 -0.8107
 2564TIP3    H129183   6.529   4.102  11.164  0.8865  0.4615  0.7815
 2564TIP3    H229184   6.613   3.983  11.126  0.9489  0.0476  2.1469
 2565TIP3   OH229185   5.720   3.021   3.509  0.6826  0.3037  0.7733
 2565TIP3    H129186   5.712   3.110   3.544 -0.6968  1.1079 -1.4210
 2565TIP3    H229187   5.662   2.968   3.564  0.9316  0.8948  1.6235
 2566TIP3   OH229188   2.050   1.306   5.158  0.5369  0.0511 -0.2486
 2566TIP3    H129189   2.032   1.222   5.200  0.4331 -0.0025 -0.4003
 2566TIP3    H229190   2.136   1.331   5.192  1.0963 -0.6784 -1.0945
 2567TIP3   OH229191   5.996   6.268  13.725  0.0546  0.5806 -0.5834
 2567TIP3    H129192   5.940   6.308  13.791  2.0223  1.3764  0.7208
 2567TIP3    H229193   6.020   6.183  13.763  0.9887  0.9320 -0.3611
 2568TIP3   OH229194   4.037   5.003  14.180 -0.4839  0.0363  0.1308
 2568TIP3    H129195   4.124   4.976  14.151 -0.0309 -1.6486  2.7258
 2568TIP3    H229196   4.047   5.096  14.200 -0.1106  0.5712 -2.2529
 2569TIP3   OH229197   4.752   4.361  16.105 -0.2823  0.1904 -0.0377
 2569TIP3    H129198   4.695   4.433  16.130  1.4549  1.3516  0.7979
 2569TIP3    H229199   4.776   4.319  16.187  0.3457 -0.0422 -0.3344
 2570TIP3   OH229200   0.829   0.660  16.832  0.2893  0.0008 -0.3399
 2570TIP3    H129201   0.861   0.589  16.888 -1.2791 -0.3174  0.1908
 2570TIP3    H229202   0.877   0.737  16.862 -0.5800 -0.1459  1.5456
 2571TIP3   OH229203   3.156   0.873  12.134  0.1086  0.6364  0.2968
 2571TIP3    H129204   3.199   0.904  12.213 -2.7505 -0.6394  2.5599
 2571TIP3    H229205   3.081   0.932  12.123 -0.7441 -0.4989 -0.1539
 2572TIP3   OH229206   6.458   5.684   3.291  0.4806  0.0966 -0.0978
 2572TIP3    H129207   6.409   5.662   3.211 -0.4648  0.8918  0.2326
 2572TIP3    H229208   6.390   5.708   3.354  1.2808  0.6525  0.5703
 2573TIP3   OH229209   6.632   4.784   4.514 -0.5301 -0.1900  0.1946
 2573TIP3    H129210   6.601   4.874   4.507 -1.0682 -0.0697  3.0777
 2573TIP3    H229211   6.554   4.733   4.536  0.4457 -0.6059  2.9965
 2574TIP3   OH229212   2.912   1.823  11.079 -0.1778  0.1802 -0.5275
 2574TIP3    H129213   2.825   1.794  11.107  0.0124 -1.1659 -1.2282
 2574TIP3    H229214   2.972   1.779  11.140  0.1385 -1.2654 -1.8215
 2575TIP3   OH229215   1.023   0.775  12.504  0.1481 -0.6169  0.3560
 2575TIP3    H129216   0.948   0.819  12.544  1.1165  0.8074  0.6903
 2575TIP3    H229217   0.989   0.740  12.422 -0.2891  2.4373 -0.8973
 2576TIP3   OH229218   5.942   1.683  12.509 -0.0425 -0.3593  0.0448
 2576TIP3    H129219   5.933   1.608  12.567  0.0850 -0.3443  0.0843
 2576TIP3    H229220   5.983   1.647  12.430  0.7892 -0.1776  0.3857
 2577TIP3   OH229221   4.065   0.746  13.294  0.2017 -0.1034 -0.2230
 2577TIP3    H129222   4.043   0.777  13.382  0.3651 -0.3946 -0.0785
 2577TIP3    H229223   4.126   0.812  13.261  0.8770 -0.4794  0.2473
 2578TIP3   OH229224   6.178   6.736  14.676 -0.0454 -0.2920  0.1406
 2578TIP3    H129225   6.186   6.824  14.713  0.4825 -0.9114  1.5688
 2578TIP3    H229226   6.100   6.740  14.621 -0.9460  0.6521  1.4223
 2579TIP3   OH229227   2.703   2.669  15.605  0.8808  0.4619  0.1184
 2579TIP3    H129228   2.687   2.735  15.673  0.2175  2.0995 -1.5313
 2579TIP3    H229229   2.715   2.587  15.653 -0.9292  1.2839  2.1407
 2580TIP3   OH229230   1.706   1.617   2.846  0.0964  0.1624  0.2342
 2580TIP3    H129231   1.641   1.553   2.817  0.2266  0.0669  0.1515
 2580TIP3    H229232   1.750   1.574   2.920  1.1663 -0.4465 -0.7097
 2581TIP3   OH229233   5.017   3.942   5.302  0.0371  0.2607 -0.4606
 2581TIP3    H129234   5.070   3.865   5.320 -1.2391 -0.3824  0.7438
 2581TIP3    H229235   5.078   4.015   5.306  1.0411 -0.5677 -0.3347
 2582TIP3   OH229236   6.312   5.667   3.722 -0.2478 -0.1215 -0.0927
 2582TIP3    H129237   6.404   5.641   3.728  0.7470  3.0698  0.1544
 2582TIP3    H229238   6.274   5.607   3.657  2.3032 -0.7363 -1.1189
 2583TIP3   OH229239   5.802   4.496  12.892 -0.3837 -0.2652  0.4735
 2583TIP3    H129240   5.737   4.494  12.822 -1.0352 -0.5509  1.0755
 2583TIP3    H229241   5.886   4.508  12.847 -0.9254  0.9624 -0.2550
 2584TIP3   OH229242   1.728   5.434  16.037 -0.1668 -0.6624 -0.2460
 2584TIP3    H129243   1.758   5.479  16.115  1.7548 -2.1630 -0.0455
 2584TIP3    H229244   1.805   5.433  15.979 -1.3355 -0.2128 -1.8819
 2585TIP3   OH229245   1.043   3.507  16.896  0.3298 -0.0113  0.4881
 2585TIP3    H129246   1.009   3.564  16.827 -1.4758 -1.0078  0.4952
 2585TIP3    H229247   1.063   3.425  16.851  1.2866  0.0389  0.7850
 2586TIP3   OH229248   5.543   6.757   5.593  0.2325  0.2858 -0.1129
 2586TIP3    H129249   5.496   6.793   5.517  0.0508 -2.0754 -1.2279
 2586TIP3    H229250   5.490   6.782   5.668  0.6302  3.0727 -0.6265
 2587TIP3   OH229251   0.234   3.716   0.585  0.4753  0.2720  0.1314
 2587TIP3    H129252   0.240   3.735   0.491 -1.1034 -1.7534 -0.4527
 2587TIP3    H229253   0.322   3.733   0.618  1.3455  0.0709 -1.9265
 2588TIP3   OH229254   2.011   2.335   0.924 -0.9143  0.7480 -0.0144
 2588TIP3    H129255   1.932   2.304   0.879  0.6934 -1.7296 -1.3557
 2588TIP3    H229256   2.011   2.289   1.008  0.1619 -1.0814 -0.9500
 2589TIP3   OH229257   6.290   2.362   3.583 -0.6838  0.5180 -1.1196
 2589TIP3    H129258   6.258   2.279   3.616  0.5530  0.1419 -0.8155
 2589TIP3    H229259   6.276   2.424   3.655  0.3264  0.0995 -0.5438
 2590TIP3   OH229260   1.630   2.236   5.487  0.6620 -0.0706  0.2442
 2590TIP3    H129261   1.646   2.327   5.463 -0.5292 -0.0635 -0.5845
 2590TIP3    H229262   1.669   2.227   5.574  0.2549  1.3844  0.5959
 2591TIP3   OH229263   6.038   6.489   5.510  0.0471 -0.0052 -0.0024
 2591TIP3    H129264   5.989   6.470   5.591 -1.1344  1.0064 -0.4459
 2591TIP3    H229265   6.051   6.404   5.469 -4.0430 -0.2026 -1.3504
 2592TIP3   OH229266   2.068   4.264  14.880 -0.3926 -0.0706 -0.2681
 2592TIP3    H129267   1.989   4.303  14.917 -0.5363  0.0651 -0.7202
 2592TIP3    H229268   2.140   4.312  14.923 -0.5240 -0.7892  0.8092
 2593TIP3   OH229269   5.036   6.548  16.649  0.1611  0.5556  0.0910
 2593TIP3    H129270   4.966   6.589  16.599  0.8634  1.2256 -0.3658
 2593TIP3    H229271   5.116   6.577  16.606  0.7486  0.3803  1.0433
 2594TIP3   OH229272   2.503   0.037  16.433 -0.1065  0.2249 -0.3360
 2594TIP3    H129273   2.575   0.072  16.381  0.5110  0.8528  0.8943
 2594TIP3    H229274   2.537  -0.044  16.471  0.0851  0.6956  0.5178
 2595TIP3   OH229275   4.188   0.007  11.400 -0.3197 -0.1443 -0.5093
 2595TIP3    H129276   4.108  -0.001  11.452 -0.1249  0.2647 -0.1436
 2595TIP3    H229277   4.243   0.067  11.450  0.8859 -1.6710  0.0905
 2596TIP3   OH229278   5.005   2.036  11.169 -0.4602  0.2795 -0.5243
 2596TIP3    H129279   5.005   2.102  11.100  0.5092  0.6134 -0.2213
 2596TIP3    H229280   4.991   2.086  11.249 -0.8406 -0.0223 -0.3982
 2597TIP3   OH229281   0.505   0.832  11.241 -0.4179 -0.3572 -0.1370
 2597TIP3    H129282   0.543   0.798  11.160  2.1384 -0.7288  1.1388
 2597TIP3    H229283   0.464   0.756  11.282 -0.8037 -0.3845 -0.5626
 2598TIP3   OH229284   3.985   4.894   1.981  0.0306  0.1569 -0.2364
 2598TIP3    H129285   3.945   4.809   1.965  0.7489 -0.1030 -0.6888
 2598TIP3    H229286   3.912   4.956   1.979 -0.2932 -0.2479 -1.5165
 2599TIP3   OH229287   2.105   0.941   3.879 -0.2541  0.9472 -0.0797
 2599TIP3    H129288   2.160   1.018   3.864 -0.6448  1.0558 -1.0164
 2599TIP3    H229289   2.132   0.909   3.965  2.6672 -0.1517 -1.2649
 2600TIP3   OH229290   3.311   4.903  15.540 -0.2570  0.4292 -0.2557
 2600TIP3    H129291   3.228   4.917  15.495 -0.3485  0.7346  0.0051
 2600TIP3    H229292   3.353   4.832  15.491 -0.6325  0.3298 -0.4409
 2601TIP3   OH229293   0.583   4.230  10.647  0.4076  0.4701 -0.3678
 2601TIP3    H129294   0.673   4.203  10.665  0.1589 -0.8885 -1.0334
 2601TIP3    H229295   0.529   4.163  10.689 -0.2915  1.0545 -0.3149
 2602TIP3   OH229296   2.857   1.594   1.750  0.8770 -0.1985 -0.1257
 2602TIP3    H129297   2.946   1.614   1.719  0.7523 -0.4552 -0.6712
 2602TIP3    H229298   2.870   1.532   1.821  1.1088 -0.8614 -0.7343
 2603TIP3   OH229299   6.283   3.524  12.599 -0.0683  0.1782 -0.1823
 2603TIP3    H129300   6.298   3.599  12.657 -0.0263  1.0323 -1.2454
 2603TIP3    H229301   6.224   3.467  12.648  0.6234  0.4653  1.0170
 2604TIP3   OH229302   1.886   2.882  13.313  0.4336 -0.1700  0.6969
 2604TIP3    H129303   1.808   2.887  13.258 -0.2980 -1.0441  1.6247
 2604TIP3    H229304   1.947   2.944  13.273 -0.4822  0.0433 -0.4334
 2605TIP3   OH229305   5.501   1.187  15.263 -0.0931  0.3207 -0.0481
 2605TIP3    H129306   5.432   1.248  15.237  1.5816  2.2501 -0.2661
 2605TIP3    H229307   5.461   1.134  15.331 -2.7385 -0.8128 -2.2710
 2606TIP3   OH229308   6.661   0.531  13.133  0.4077  0.5066 -0.3962
 2606TIP3    H129309   6.584   0.483  13.163 -0.8952  2.7172  0.0614
 2606TIP3    H229310   6.662   0.517  13.038  0.2423 -0.6113 -0.2526
 2607TIP3   OH229311   6.192   2.750  12.343 -0.2172 -0.3825  0.3272
 2607TIP3    H129312   6.224   2.692  12.412 -0.4934  0.0691  0.8452
 2607TIP3    H229313   6.244   2.727  12.266  0.1906 -0.7977  0.7216
 2608TIP3   OH229314   6.068   4.760   4.647 -0.3273  0.0367 -0.6870
 2608TIP3    H129315   6.081   4.666   4.636  1.0341  0.1163  0.0836
 2608TIP3    H229316   5.978   4.775   4.618 -0.2362 -1.3339 -1.7799
 2609TIP3   OH229317   2.794   2.766   2.522  0.9144  0.0381 -0.4795
 2609TIP3    H129318   2.753   2.835   2.575 -2.4242 -2.0601  0.0529
 2609TIP3    H229319   2.864   2.809   2.475  0.3634  3.2906  1.3762
 2610TIP3   OH229320   3.289   2.144  14.780  0.2110 -0.0333 -0.0130
 2610TIP3    H129321   3.370   2.177  14.740  0.1061  0.2070 -0.0288
 2610TIP3    H229322   3.219   2.191  14.735  0.0671 -0.1618  0.0752
 2611TIP3   OH229323   1.137   4.531   4.569 -0.3315  0.3147  0.0614
 2611TIP3    H129324   1.113   4.462   4.631  4.1584 -1.3958  0.2442
 2611TIP3    H229325   1.208   4.579   4.613  0.3239  1.5891 -2.2248
 2612TIP3   OH229326   0.059   0.815  16.117  0.4301 -0.1202  0.3713
 2612TIP3    H129327   0.098   0.830  16.031 -1.1332  2.8687  0.0614
 2612TIP3    H229328   0.105   0.875  16.175 -0.9776  0.5615  0.8234
 2613TIP3   OH229329   5.365   3.000   2.328  0.1152 -0.6681 -0.5325
 2613TIP3    H129330   5.322   2.924   2.367 -1.0676 -0.3231 -1.0999
 2613TIP3    H229331   5.327   3.006   2.241  1.4345 -0.4028 -1.1112
 2614TIP3   OH229332   2.991   0.212   0.461  0.0961  0.4301  0.4982
 2614TIP3    H129333   2.983   0.306   0.447  0.3878  0.4143  0.2187
 2614TIP3    H229334   3.081   0.191   0.435 -0.5890 -0.2837 -1.5194
 2615TIP3   OH229335   2.376   6.641   1.689 -0.4079 -0.4065 -0.0712
 2615TIP3    H129336   2.335   6.554   1.689  1.2207 -1.2440 -1.2223
 2615TIP3    H229337   2.449   6.632   1.750 -2.4254  1.4022  2.8488
 2616TIP3   OH229338   2.874   5.308   3.989  0.0144 -0.0227  0.3869
 2616TIP3    H129339   2.921   5.391   3.997  0.0198 -0.0656  0.8498
 2616TIP3    H229340   2.843   5.289   4.078 -0.9712  0.0616  0.0801
 2617TIP3   OH229341   6.464   3.757  13.408 -0.3005 -0.1751 -0.0893
 2617TIP3    H129342   6.390   3.706  13.440 -0.2904  0.3225  0.7775
 2617TIP3    H229343   6.431   3.846  13.400  0.3790  0.2033  1.0352
 2618TIP3   OH229344   3.114   1.619  16.410 -0.2989 -0.4054 -0.4005
 2618TIP3    H129345   3.068   1.579  16.484 -1.7039 -1.2583 -1.6824
 2618TIP3    H229346   3.045   1.656  16.356  0.7261  0.4463 -1.1677
 2619TIP3   OH229347   4.417   3.024  13.643 -0.2303  0.3461  0.1731
 2619TIP3    H129348   4.508   3.033  13.614  0.6255 -0.0568  2.4787
 2619TIP3    H229349   4.390   2.938  13.611 -0.3770  1.0773 -1.8236
 2620TIP3   OH229350   4.329   6.538   2.100  0.1247  0.8376 -0.4749
 2620TIP3    H129351   4.302   6.580   2.181  0.2588  0.5739 -0.2933
 2620TIP3    H229352   4.419   6.566   2.087  0.8997 -0.9540  0.6938
 2621TIP3   OH229353   5.330   6.157  11.997 -0.0001  0.7922 -0.2552
 2621TIP3    H129354   5.272   6.201  11.935 -0.4200  0.8104  0.1387
 2621TIP3    H229355   5.289   6.071  12.010 -0.1512  0.9463  0.3164
 2622TIP3   OH229356   0.118   2.019  11.712 -0.7568 -0.6165 -0.0112
 2622TIP3    H129357   0.166   2.080  11.656 -0.2385  1.4356  2.4854
 2622TIP3    H229358   0.185   1.959  11.745 -0.3165  0.5346  1.2971
 2623TIP3   OH229359   3.839   0.844   5.999 -0.0905 -0.0841  0.1664
 2623TIP3    H129360   3.885   0.767   5.966 -0.8348  0.1102 -1.4433
 2623TIP3    H229361   3.755   0.809   6.031  0.4855 -0.2230  1.5726
 2624TIP3   OH229362   4.762   0.318   3.168  0.5198  0.0979 -0.1382
 2624TIP3    H129363   4.712   0.398   3.184 -0.5348 -0.1823 -1.8647
 2624TIP3    H229364   4.812   0.337   3.089  2.4335 -0.0077  0.9703
 2625TIP3   OH229365   1.395   3.168   2.680  0.1576 -0.3903 -0.0790
 2625TIP3    H129366   1.307   3.142   2.654  0.3558 -2.2461  0.8952
 2625TIP3    H229367   1.394   3.164   2.776  1.0792  0.3840 -0.0134
 2626TIP3   OH229368   5.909   2.162   0.779 -0.1814 -0.0782 -0.1397
 2626TIP3    H129369   5.831   2.212   0.803  0.4314  1.2887 -0.9121
 2626TIP3    H229370   5.979   2.198   0.833  0.3869  0.3342 -1.1175
 2627TIP3   OH229371   2.166   5.177   2.878 -0.2069  0.3065  0.6199
 2627TIP3    H129372   2.234   5.112   2.892 -0.1231  0.4904  1.0796
 2627TIP3    H229373   2.099   5.132   2.826 -0.6104 -0.4502  1.7668
 2628TIP3   OH229374   5.990   2.942   3.295  0.6005 -0.5267 -0.1067
 2628TIP3    H129375   5.954   2.959   3.382  0.4061 -0.7545 -0.1408
 2628TIP3    H229376   5.921   2.969   3.235  0.4577 -1.0184 -0.1709
 2629TIP3   OH229377   5.594   0.951  14.046  0.2813 -0.2162  0.4175
 2629TIP3    H129378   5.603   1.032  14.098 -1.9163  0.1185  0.3838
 2629TIP3    H229379   5.672   0.949  13.992  0.9992  1.2384  1.3166
 2630TIP3   OH229380   4.645   6.619  14.835 -0.0256  0.0598  0.5487
 2630TIP3    H129381   4.591   6.697  14.822 -0.5585 -0.4863 -0.5893
 2630TIP3    H229382   4.592   6.547  14.803  1.3246 -0.5166 -0.4990
 2631TIP3   OH229383   0.743   0.141  13.306 -0.0245  0.1209 -0.1563
 2631TIP3    H129384   0.720   0.052  13.331 -1.8582  0.2105 -1.3959
 2631TIP3    H229385   0.828   0.132  13.262  0.7563 -0.7122  1.4391
 2632TIP3   OH229386   6.763   2.180  14.092  0.1937  0.5854 -0.3615
 2632TIP3    H129387   6.823   2.163  14.164 -1.4363 -0.8489  0.7448
 2632TIP3    H229388   6.809   2.151  14.014  0.3697 -2.0049  0.6351
 2633TIP3   OH229389   3.634   0.581  12.081  0.2113  0.0970 -0.1570
 2633TIP3    H129390   3.543   0.557  12.097  0.5877 -0.6718  0.9535
 2633TIP3    H229391   3.630   0.668  12.042 -0.9677  0.2596  0.2975
 2634TIP3   OH229392   1.616   0.377  14.803  0.1491 -0.0927 -0.3494
 2634TIP3    H129393   1.636   0.459  14.759  0.8347  0.1698  0.4178
 2634TIP3    H229394   1.571   0.324  14.737 -1.8747  1.5425 -0.3428
 2635TIP3   OH229395   5.244   6.089  12.290 -0.5232  0.2786  0.2719
 2635TIP3    H129396   5.307   6.049  12.229  0.1919 -1.0018  1.7649
 2635TIP3    H229397   5.299   6.130  12.357 -1.2727  0.1349  0.9890
 2636TIP3   OH229398   0.097   1.718  15.744  0.1893  0.1387  0.0995
 2636TIP3    H129399   0.010   1.702  15.781  0.2028  0.3906  0.2412
 2636TIP3    H229400   0.084   1.789  15.682  0.2356 -0.0364 -0.1095
 2637TIP3   OH229401   6.639   5.867   3.724  0.1265 -0.2307  0.7304
 2637TIP3    H129402   6.615   5.816   3.802 -0.5237 -1.0662 -0.0028
 2637TIP3    H229403   6.726   5.835   3.701 -1.5566 -3.7293 -1.7800
 2638TIP3   OH229404   4.656   5.325   0.152  0.1282 -0.2887  0.6239
 2638TIP3    H129405   4.711   5.323   0.073 -1.5698  0.6825 -0.6575
 2638TIP3    H229406   4.652   5.418   0.175 -1.1879 -0.3118  0.5267
 2639TIP3   OH229407   6.815   2.446   5.876 -0.1538 -0.0601 -0.2174
 2639TIP3    H129408   6.849   2.495   5.801 -0.2951 -0.3092 -0.4436
 2639TIP3    H229409   6.876   2.373   5.887 -0.0670  0.0390 -0.0134
 2640TIP3   OH229410   2.701   5.895  13.238 -0.1510 -0.0198 -0.6523
 2640TIP3    H129411   2.722   5.876  13.330  0.8145 -1.2498 -1.0974
 2640TIP3    H229412   2.638   5.967  13.242  0.5870  0.5817  0.9399
 2641TIP3   OH229413   6.601   1.879  13.183  0.4910  0.4111  0.4768
 2641TIP3    H129414   6.649   1.937  13.123  0.8281  1.5501  1.8024
 2641TIP3    H229415   6.562   1.938  13.247 -1.0302 -0.6792  0.5876
 2642TIP3   OH229416   1.514   5.247   1.806 -0.2687  0.1223  0.1626
 2642TIP3    H129417   1.590   5.210   1.763  0.0798  2.0542 -0.9818
 2642TIP3    H229418   1.546   5.326   1.849 -1.7770  1.5602 -1.2255
 2643TIP3   OH229419   1.497   6.617  15.731  0.5654 -0.4986 -0.3474
 2643TIP3    H129420   1.547   6.591  15.809  0.2512  0.0406  0.0332
 2643TIP3    H229421   1.510   6.711  15.724  1.4854 -0.6906 -1.5818
 2644TIP3   OH229422   0.170   3.264   4.199  0.5350 -0.4215 -0.2181
 2644TIP3    H129423   0.116   3.187   4.216 -0.0834  0.2296  0.8924
 2644TIP3    H229424   0.252   3.247   4.246  1.2661 -1.3208 -1.7392
 2645TIP3   OH229425   4.042   2.526   6.131  1.0032 -0.0729 -0.2706
 2645TIP3    H129426   3.977   2.594   6.115  0.6177  0.2083  2.1468
 2645TIP3    H229427   4.122   2.574   6.151  1.0124 -0.3365  0.3412
 2646TIP3   OH229428   2.980   0.034  16.724  0.0367  0.0801  0.2032
 2646TIP3    H129429   2.993   0.122  16.759  1.7722  0.6138 -1.5672
 2646TIP3    H229430   2.897   0.005  16.762 -0.0862  2.0605  1.6304
 2647TIP3   OH229431   1.372   0.190   0.596  0.4825  0.3494 -0.6061
 2647TIP3    H129432   1.418   0.131   0.537  0.4792 -0.2655  0.0046
 2647TIP3    H229433   1.295   0.141   0.625 -1.2331  1.7315 -2.4820
 2648TIP3   OH229434   5.102   0.141   2.687  0.7213 -0.2524  0.1713
 2648TIP3    H129435   5.088   0.095   2.604  0.1660 -0.5818  0.4453
 2648TIP3    H229436   5.176   0.095   2.728 -0.2836 -1.3796  0.7740
 2649TIP3   OH229437   0.747   1.642   4.096  0.1163  0.7493 -0.3137
 2649TIP3    H129438   0.653   1.658   4.099  0.1049  1.0094 -1.6656
 2649TIP3    H229439   0.757   1.551   4.126 -0.4362  1.0887  0.9578
 2650TIP3   OH229440   5.419   0.910   3.711  0.7511  0.3924  0.1667
 2650TIP3    H129441   5.338   0.881   3.752  0.5166  1.3144  0.3739
 2650TIP3    H229442   5.487   0.856   3.752  0.2665 -0.3123  0.0694
 2651TIP3   OH229443   3.322   4.192  11.377 -0.3214  0.8817  0.3140
 2651TIP3    H129444   3.306   4.273  11.426 -1.6424  0.9320 -0.1707
 2651TIP3    H229445   3.286   4.209  11.290 -0.6627 -0.2447  0.2210
 2652TIP3   OH229446   6.014   0.492  14.526 -0.2587  0.3348 -0.3939
 2652TIP3    H129447   6.033   0.443  14.446  1.7984  0.5605 -0.1203
 2652TIP3    H229448   6.067   0.448  14.593 -2.2369 -0.0923  0.9614
 2653TIP3   OH229449   5.002   2.488  12.015 -0.0843  0.2468 -0.5193
 2653TIP3    H129450   5.028   2.426  12.084 -1.3851 -2.2367 -2.1188
 2653TIP3    H229451   5.004   2.573  12.058  2.4647 -0.7589  1.6331
 2654TIP3   OH229452   1.346   5.908   2.692  0.1204 -0.3193  0.5206
 2654TIP3    H129453   1.381   5.865   2.614 -1.8295 -0.8620 -0.1228
 2654TIP3    H229454   1.322   5.837   2.751  0.8693  0.0684  1.3214
 2655TIP3   OH229455   4.361   5.174   1.591 -0.0027 -0.0478  0.0197
 2655TIP3    H129456   4.423   5.236   1.630  1.1160 -0.5978 -0.8101
 2655TIP3    H229457   4.341   5.112   1.661  0.9350 -0.2606  0.1073
 2656TIP3   OH229458   3.967   6.530   3.131  0.0167  0.1616  0.6726
 2656TIP3    H129459   3.965   6.607   3.074  1.5502 -1.3121 -1.5285
 2656TIP3    H229460   3.953   6.456   3.071  2.8106 -1.5620  1.9447
 2657TIP3   OH229461   2.758   6.161   5.401  1.1804  0.6223 -0.4850
 2657TIP3    H129462   2.801   6.103   5.339  1.6357 -2.3582  2.3873
 2657TIP3    H229463   2.825   6.224   5.426  1.1895  1.4331 -2.3433
 2658TIP3   OH229464   0.998   0.254   6.216 -0.7081 -0.1642  0.4324
 2658TIP3    H129465   0.943   0.189   6.260  0.7176 -0.2943  2.1365
 2658TIP3    H229466   1.087   0.236   6.248  0.0548  1.2434 -0.7602
 2659TIP3   OH229467   5.504   1.957  13.560 -0.0928  0.7626 -0.2502
 2659TIP3    H129468   5.426   1.944  13.615  0.4305 -1.4037  0.0720
 2659TIP3    H229469   5.556   2.023  13.607  0.3563 -1.0443  1.9505
 2660TIP3   OH229470   5.950   0.762   3.703  0.5339  0.2448 -0.4375
 2660TIP3    H129471   5.888   0.827   3.670  0.1948 -0.3280 -0.9426
 2660TIP3    H229472   5.968   0.790   3.792 -0.0792  0.7018 -0.4480
 2661TIP3   OH229473   1.837   4.443   6.651 -0.1502 -0.0309 -0.1325
 2661TIP3    H129474   1.747   4.470   6.671 -0.1205  0.4298 -0.5995
 2661TIP3    H229475   1.886   4.466   6.730 -0.8504 -2.4919  1.1037
 2662TIP3   OH229476   5.461   1.777  14.667 -0.3024 -0.1490 -0.0617
 2662TIP3    H129477   5.458   1.798  14.574  1.9028 -3.1978 -1.0053
 2662TIP3    H229478   5.540   1.724  14.677 -0.3562  0.1922  3.6300
 2663TIP3   OH229479   6.302   5.258  17.208  0.5978  0.5223 -0.1598
 2663TIP3    H129480   6.326   5.348  17.229 -1.5285  1.0978  0.0774
 2663TIP3    H229481   6.291   5.258  17.113 -0.5025  0.8267 -0.0400
 2664TIP3   OH229482   1.177   2.142   5.835  0.1003 -0.0464  0.2109
 2664TIP3    H129483   1.142   2.060   5.869 -0.4247 -1.6265 -3.6270
 2664TIP3    H229484   1.194   2.124   5.742  0.9904  3.8916 -0.5670
 2665TIP3   OH229485   6.219   4.902   3.974  0.2275 -0.1786 -0.4637
 2665TIP3    H129486   6.197   4.874   4.063 -0.0377 -0.3532 -0.5822
 2665TIP3    H229487   6.268   4.983   3.986 -1.4815  0.8798 -0.2078
 2666TIP3   OH229488   4.910   0.010  14.059  0.2803  0.5026  0.1136
 2666TIP3    H129489   4.966  -0.026  14.127  0.9016 -0.1144 -0.7040
 2666TIP3    H229490   4.896   0.101  14.085 -1.4993 -0.2936  2.3310
 2667TIP3   OH229491   5.693   0.169   3.281  0.3779  0.4821  0.0225
 2667TIP3    H129492   5.696   0.168   3.377  1.8072 -0.9068 -0.0073
 2667TIP3    H229493   5.644   0.090   3.258  0.7988  0.3454 -0.4140
 2668TIP3   OH229494   3.005   5.677   6.199 -0.2807  0.1469  0.6275
 2668TIP3    H129495   2.952   5.597   6.195  1.7066 -1.2874  1.3196
 2668TIP3    H229496   3.020   5.691   6.293  0.1257  0.8218  0.4653
 2669TIP3   OH229497   5.230   5.813  13.658  0.6357 -0.1319  0.3350
 2669TIP3    H129498   5.179   5.785  13.582  1.0255  0.0123  0.0236
 2669TIP3    H229499   5.196   5.759  13.730  0.1842 -0.1809  0.0894
 2670TIP3   OH229500   4.422   3.338  13.763  0.5415 -0.4319 -0.0438
 2670TIP3    H129501   4.479   3.271  13.726 -1.5208 -2.7296  0.6366
 2670TIP3    H229502   4.395   3.391  13.688  1.9372 -0.5845 -0.6792
 2671TIP3   OH229503   5.626   0.779   3.802  0.1076  0.2664 -0.2342
 2671TIP3    H129504   5.592   0.690   3.797  0.6945  0.0891 -1.5889
 2671TIP3    H229505   5.697   0.774   3.866  1.2230 -0.6534 -1.4862
 2672TIP3   OH229506   6.422   4.493   1.257  0.1511 -0.0113  0.4212
 2672TIP3    H129507   6.358   4.421   1.256 -0.2203  0.3081  0.7239
 2672TIP3    H229508   6.506   4.450   1.272 -0.1711 -0.3131  1.4683
 2673TIP3   OH229509   5.464   5.617   0.598  0.3840 -0.2672  0.2231
 2673TIP3    H129510   5.526   5.572   0.655  0.3746 -0.8429 -0.2189
 2673TIP3    H229511   5.518   5.664   0.535  0.4006 -1.9064 -1.0594
 2674TIP3   OH229512   2.554   4.450   5.846  0.1906 -0.1380 -0.4098
 2674TIP3    H129513   2.495   4.413   5.912  1.5870  0.0251  0.9864
 2674TIP3    H229514   2.513   4.428   5.763 -0.8435 -1.7316  0.4581
 2675TIP3   OH229515   5.760   5.218  10.592  0.0537 -0.0795 -0.5134
 2675TIP3    H129516   5.822   5.276  10.547  0.1182  0.8839  0.7422
 2675TIP3    H229517   5.694   5.197  10.526  0.2686  1.0942 -1.1326
 2676TIP3   OH229518   2.301   2.468   5.549  0.6368 -0.0393 -0.4468
 2676TIP3    H129519   2.300   2.385   5.598  0.9776  0.6886  0.8402
 2676TIP3    H229520   2.216   2.508   5.568  0.8671  0.3574 -0.2414
 2677TIP3   OH229521   6.696   1.087  15.601 -0.6098 -0.4780 -0.4975
 2677TIP3    H129522   6.640   1.014  15.574 -0.4152 -0.5257 -0.7806
 2677TIP3    H229523   6.783   1.064  15.566 -0.5390 -0.1310 -0.5503
 2678TIP3   OH229524   1.021   4.552  13.119  0.3840 -0.3651  0.5606
 2678TIP3    H129525   1.090   4.507  13.071  0.1082 -1.1958  0.9365
 2678TIP3    H229526   1.021   4.512  13.206 -0.0729  0.1418  0.8050
 2679TIP3   OH229527   1.600   1.679   5.535  0.0493  0.6647  0.2928
 2679TIP3    H129528   1.624   1.623   5.462  3.0594  1.1841  0.7713
 2679TIP3    H229529   1.577   1.763   5.495  2.7483  1.2937 -0.0934
 2680TIP3   OH229530   0.378   6.420  14.201 -0.0312  0.2101 -0.2143
 2680TIP3    H129531   0.298   6.382  14.163 -0.7394  1.7622 -0.3508
 2680TIP3    H229532   0.400   6.361  14.273 -2.4994  0.8195  1.1601
 2681TIP3   OH229533   1.120   4.000  17.060  0.5584 -0.3384  0.1661
 2681TIP3    H129534   1.136   3.956  16.976 -1.2896  0.4531 -0.6583
 2681TIP3    H229535   1.116   3.929  17.124 -2.7070 -1.5662 -1.1798
 2682TIP3   OH229536   3.618   5.363   2.355  0.0450 -0.1447 -0.3278
 2682TIP3    H129537   3.601   5.402   2.269  0.4566 -1.7769 -1.2102
 2682TIP3    H229538   3.636   5.271   2.335 -1.2883 -0.8951  1.6444
 2683TIP3   OH229539   0.439   0.566   3.000  0.6782 -0.3999 -0.0073
 2683TIP3    H129540   0.485   0.541   3.080  0.2811 -0.2764  0.2578
 2683TIP3    H229541   0.383   0.492   2.979  0.5715 -0.3163 -0.0171
 2684TIP3   OH229542   4.642   4.441   0.429 -0.6641 -0.1389  0.2162
 2684TIP3    H129543   4.674   4.495   0.357  0.6571 -0.5050  0.4994
 2684TIP3    H229544   4.547   4.445   0.421 -0.5600 -0.6358 -1.9063
 2685TIP3   OH229545   1.420   2.952   6.097  0.0857  0.0358  0.5813
 2685TIP3    H129546   1.417   2.859   6.078 -0.1868  0.1792 -0.1001
 2685TIP3    H229547   1.438   2.957   6.191 -1.5675 -0.7191  0.9717
 2686TIP3   OH229548   6.157   4.548  12.458 -0.4546 -0.1040 -0.0675
 2686TIP3    H129549   6.234   4.602  12.476 -1.3183  1.2658 -0.4004
 2686TIP3    H229550   6.171   4.470  12.512  0.9592  0.2909  0.1951
 2687TIP3   OH229551   4.632   2.033  11.420 -0.3148 -0.6069 -0.3958
 2687TIP3    H129552   4.653   2.121  11.390 -1.8067  0.0281  0.3368
 2687TIP3    H229553   4.634   2.038  11.515 -0.8571 -1.2346 -0.3365
 2688TIP3   OH229554   6.258   4.367  16.402  0.7208 -0.2613  0.8361
 2688TIP3    H129555   6.188   4.432  16.414 -0.4270 -1.4776  0.9240
 2688TIP3    H229556   6.316   4.407  16.337 -0.9083  0.1173 -0.4599
 2689TIP3   OH229557   2.948   3.100   0.456 -0.1103  0.2292 -0.4092
 2689TIP3    H129558   2.967   3.166   0.523 -1.9443 -0.4264  0.8446
 2689TIP3    H229559   2.853   3.088   0.460 -0.1431 -0.6144 -2.4257
 2690TIP3   OH229560   6.045   2.245  14.923  0.1163 -0.3527  0.3603
 2690TIP3    H129561   6.121   2.245  14.865  0.8080  0.9279  1.2131
 2690TIP3    H229562   5.970   2.249  14.864  0.7834  0.4776 -0.4606
 2691TIP3   OH229563   6.100   6.699   0.776 -0.1515  0.4069 -0.5493
 2691TIP3    H129564   6.082   6.768   0.712 -1.1116  1.7602  1.0926
 2691TIP3    H229565   6.121   6.746   0.856 -2.5000 -1.1405  1.0912
 2692TIP3   OH229566   0.815   6.651   2.551  0.0701  0.3496  0.0650
 2692TIP3    H129567   0.773   6.652   2.637  0.8682 -0.9119  0.4811
 2692TIP3    H229568   0.892   6.596   2.562  1.4522  1.9881 -0.8824
 2693TIP3   OH229569   3.017   0.004   2.826  0.0083 -0.2011 -0.4102
 2693TIP3    H129570   2.949  -0.035   2.881 -0.3656  1.2470  0.2115
 2693TIP3    H229571   3.090  -0.057   2.831  0.0308 -0.0856  1.8172
 2694TIP3   OH229572   6.153   0.048   1.022 -0.1918  0.0147  0.3246
 2694TIP3    H129573   6.244   0.067   1.002 -0.0973  0.6483  1.2854
 2694TIP3    H229574   6.156   0.002   1.106 -0.6168 -1.9440 -0.6721
 2695TIP3   OH229575   5.279   3.429  11.993  0.6766  0.3564  0.3200
 2695TIP3    H129576   5.351   3.412  12.053 -0.0106  1.4704  1.5145
 2695TIP3    H229577   5.300   3.379  11.914  4.2367  2.7790 -0.5144
 2696TIP3   OH229578   3.507   3.121   3.686 -0.0524  0.5919  0.6225
 2696TIP3    H129579   3.596   3.123   3.721  0.0553  1.3923  0.3288
 2696TIP3    H229580   3.514   3.163   3.600 -0.6019  0.0928  0.3267
 2697TIP3   OH229581   4.901   0.176  10.539 -0.0229 -0.1331 -0.1896
 2697TIP3    H129582   4.866   0.127  10.613  1.5580  0.1194  0.7758
 2697TIP3    H229583   4.882   0.122  10.463 -1.6972 -0.3891  0.3773
 2698TIP3   OH229584   6.311   5.704  14.593 -0.5630 -0.3738  0.3077
 2698TIP3    H129585   6.393   5.725  14.549 -0.6123  0.8076  0.7382
 2698TIP3    H229586   6.243   5.730  14.530 -0.6703  2.6340  1.5102
 2699TIP3   OH229587   2.726   6.077  14.783  0.0294 -0.3162  0.1422
 2699TIP3    H129588   2.643   6.122  14.770  0.8589  1.1669 -0.2517
 2699TIP3    H229589   2.724   6.051  14.876 -0.4360  0.6488  0.4193
 2700TIP3   OH229590   3.821   3.664  14.991 -0.0510  0.2275  0.7708
 2700TIP3    H129591   3.862   3.628  14.912 -0.3278  0.8454  0.3354
 2700TIP3    H229592   3.891   3.717  15.031  0.5212 -1.1827  1.6950
 2701TIP3   OH229593   1.769   2.531   2.054  0.2137  0.2036  0.2705
 2701TIP3    H129594   1.675   2.547   2.059  0.0552 -0.6776  0.4310
 2701TIP3    H229595   1.799   2.584   1.981 -0.0977  1.8150  1.2647
 2702TIP3   OH229596   2.246   5.139   2.033 -0.2212  0.3520  0.0219
 2702TIP3    H129597   2.255   5.230   2.062  1.2376  0.1893  0.1356
 2702TIP3    H229598   2.279   5.087   2.106 -0.9503 -0.2844 -0.0845
 2703TIP3   OH229599   1.245   2.170  11.881  0.4492  0.3543  0.6233
 2703TIP3    H129600   1.166   2.121  11.860  2.2507 -2.0929 -0.9773
 2703TIP3    H229601   1.263   2.221  11.802  2.3901 -1.9759 -0.5501
 2704TIP3   OH229602   3.897   0.593  12.502 -0.2183 -0.4471  0.3982
 2704TIP3    H129603   3.908   0.500  12.481 -0.6307 -0.7627  1.5358
 2704TIP3    H229604   3.803   0.607  12.501 -0.2409 -0.4285  1.8068
 2705TIP3   OH229605   3.336   2.382   2.831 -0.2053  0.1899  0.4729
 2705TIP3    H129606   3.306   2.343   2.749  1.4051 -0.1725  0.0281
 2705TIP3    H229607   3.255   2.406   2.877 -1.1783 -1.2548 -0.4088
 2706TIP3   OH229608   0.961   3.865   3.875  0.2763 -0.9093  0.5532
 2706TIP3    H129609   0.867   3.849   3.881 -0.1434  0.1004 -2.0441
 2706TIP3    H229610   0.979   3.870   3.782  2.9116 -0.8878  0.9730
 2707TIP3   OH229611   3.670   2.242  11.084  0.4749  0.3292  0.2206
 2707TIP3    H129612   3.607   2.227  11.154 -1.6663 -0.6321 -1.7426
 2707TIP3    H229613   3.619   2.285  11.015  2.6088  1.7853 -0.5639
 2708TIP3   OH229614   0.640   4.756  16.959  0.3094  0.0810  0.1635
 2708TIP3    H129615   0.618   4.835  17.008  2.1803  0.7376  0.0379
 2708TIP3    H229616   0.729   4.772  16.927  0.7826 -2.1313  0.2156
 2709TIP3   OH229617   6.531   1.541  12.207  0.2162  0.2403 -0.0049
 2709TIP3    H129618   6.475   1.473  12.245  1.6381 -0.8935  0.1848
 2709TIP3    H229619   6.498   1.553  12.118  0.4291 -1.3414 -0.3282
 2710TIP3   OH229620   4.962   5.544   4.904  0.1866  0.5251 -0.5362
 2710TIP3    H129621   5.009   5.575   4.826 -0.0417 -0.0236 -0.8989
 2710TIP3    H229622   5.029   5.497   4.954 -0.0549 -0.5833 -1.2393
 2711TIP3   OH229623   1.485   1.419   2.802 -0.5825  0.2729  0.6787
 2711TIP3    H129624   1.426   1.349   2.773  0.3898 -1.7032  3.0835
 2711TIP3    H229625   1.535   1.442   2.724 -0.9138 -1.7561 -0.1980
 2712TIP3   OH229626   0.294   6.571   1.824 -0.4089  0.0658  0.0603
 2712TIP3    H129627   0.204   6.591   1.800 -0.0284 -0.3141 -1.8745
 2712TIP3    H229628   0.306   6.480   1.797  0.5300  0.0853  0.3704
 2713TIP3   OH229629   6.446   3.833  14.418 -0.3355 -0.3879 -0.4448
 2713TIP3    H129630   6.499   3.837  14.498 -2.0767 -0.0865  0.7366
 2713TIP3    H229631   6.427   3.924  14.397 -0.2869 -0.4884 -0.9497
 2714TIP3   OH229632   2.443   4.501   4.421 -0.4382 -0.1255  0.2414
 2714TIP3    H129633   2.434   4.408   4.401 -1.2224 -1.0061  3.8475
 2714TIP3    H229634   2.535   4.511   4.446 -0.2773  0.1720 -0.4458
 2715TIP3   OH229635   0.217   2.970   0.204 -0.0336 -0.0136  0.4799
 2715TIP3    H129636   0.172   2.915   0.141 -0.9681  0.0483  1.0693
 2715TIP3    H229637   0.165   3.050   0.208  1.0129  0.7137  0.0276
 2716TIP3   OH229638   0.082   3.303   1.053  0.5149 -0.7251 -0.6631
 2716TIP3    H129639   0.069   3.382   1.106 -0.8940  0.7618 -3.0204
 2716TIP3    H229640   0.100   3.234   1.117 -1.1940  0.8812  1.7536
 2717TIP3   OH229641   6.402   1.078  17.072  0.6157 -0.3824  0.6305
 2717TIP3    H129642   6.477   1.040  17.027 -1.1984 -1.5485 -1.6315
 2717TIP3    H229643   6.390   1.023  17.150  2.0349 -0.1744  1.0318
 2718TIP3   OH229644   6.563   2.767  12.073 -0.6913  0.1939 -0.4421
 2718TIP3    H129645   6.508   2.843  12.091 -2.0121 -0.8198 -0.0408
 2718TIP3    H229646   6.638   2.802  12.025 -0.8027  1.8803  0.5426
 2719TIP3   OH229647   1.501   2.727  12.874  0.3237 -0.2603  0.3271
 2719TIP3    H129648   1.443   2.706  12.947 -0.1304  0.1056  0.0798
 2719TIP3    H229649   1.459   2.687  12.798  1.4106 -1.6638  0.4359
 2720TIP3   OH229650   5.980   3.299   0.091 -0.2507  0.4911  0.0171
 2720TIP3    H129651   5.951   3.208   0.084 -1.7117  0.9255  0.0441
 2720TIP3    H229652   6.026   3.303   0.175  1.0042 -0.5067 -0.5914
 2721TIP3   OH229653   0.432   0.691   6.331 -0.3971  0.1338  0.6964
 2721TIP3    H129654   0.473   0.614   6.369  0.8907 -0.0707 -0.9724
 2721TIP3    H229655   0.341   0.687   6.359 -0.8269 -3.0011 -0.7607
 2722TIP3   OH229656   5.109   1.281  17.056 -0.0305  0.0813 -0.3335
 2722TIP3    H129657   5.066   1.304  17.139  1.6727 -2.2799  1.3375
 2722TIP3    H229658   5.037   1.252  17.000 -1.0675  0.1228  0.9143
 2723TIP3   OH229659   3.534   2.816   3.318  0.1033 -0.2205  0.0833
 2723TIP3    H129660   3.491   2.754   3.259 -0.1855 -0.4172  0.4937
 2723TIP3    H229661   3.525   2.776   3.405 -0.6524  0.6972  0.4422
 2724TIP3   OH229662   3.515   5.685  16.521  0.6893 -0.5042 -0.4388
 2724TIP3    H129663   3.454   5.625  16.563 -0.6256  0.6219 -0.6691
 2724TIP3    H229664   3.532   5.752  16.587  1.5518 -0.7158 -0.4367
 2725TIP3   OH229665   6.451   6.558   4.530 -0.3525  0.6136  0.2225
 2725TIP3    H129666   6.443   6.473   4.574 -0.3878  0.9123  0.7991
 2725TIP3    H229667   6.362   6.580   4.503 -0.1416 -0.2752 -1.3758
 2726TIP3   OH229668   1.280   5.215   2.032 -0.2937 -0.9091  0.2793
 2726TIP3    H129669   1.363   5.254   2.005 -1.0023  0.0202 -0.6068
 2726TIP3    H229670   1.303   5.125   2.057  1.0843 -0.4540  0.7385
 2727TIP3   OH229671   3.281   4.962  11.035 -0.5187 -0.5082  0.0423
 2727TIP3    H129672   3.250   4.917  10.957  2.5156 -1.8431 -0.5338
 2727TIP3    H229673   3.374   4.976  11.019 -0.5679  2.6874  1.8385
 2728TIP3   OH229674   0.897   5.297   3.188  0.3994 -0.1898 -0.5624
 2728TIP3    H129675   0.875   5.339   3.272  0.2500 -0.4901 -0.4533
 2728TIP3    H229676   0.817   5.301   3.137 -0.1496 -1.9220  0.0955
 2729TIP3   OH229677   4.644   1.759   0.153  0.2132 -0.2969 -0.0541
 2729TIP3    H129678   4.725   1.796   0.119  1.1037 -1.2778  0.8939
 2729TIP3    H229679   4.575   1.797   0.099  1.3661 -0.1026 -1.4529
 2730TIP3   OH229680   3.564   4.382   6.425  0.1125  0.5947 -0.2096
 2730TIP3    H129681   3.505   4.330   6.370 -1.3480  2.0314 -0.0788
 2730TIP3    H229682   3.637   4.323   6.445 -1.1865 -1.2057 -0.5286
 2731TIP3   OH229683   6.002   4.880   2.462 -0.2119  0.1865 -0.5875
 2731TIP3    H129684   6.012   4.928   2.545  1.6508 -0.6097 -0.3031
 2731TIP3    H229685   6.072   4.914   2.407 -1.7282  1.0505 -2.0650
 2732TIP3   OH229686   0.642   1.424   0.365 -0.2356 -0.2673 -0.1906
 2732TIP3    H129687   0.668   1.439   0.456 -1.1989  3.0695 -0.3318
 2732TIP3    H229688   0.564   1.478   0.353 -3.2068 -4.4416 -1.7141
 2733TIP3   OH229689   2.470   4.398  13.758  0.1394 -0.1964  0.4407
 2733TIP3    H129690   2.520   4.370  13.835  0.1502  1.6316  1.1368
 2733TIP3    H229691   2.379   4.400  13.788  0.1684  0.7252  0.4769
 2734TIP3   OH229692   3.257   5.484  15.216  0.0729  0.5169 -0.3449
 2734TIP3    H129693   3.339   5.482  15.168  0.2830 -1.5914 -0.0209
 2734TIP3    H229694   3.280   5.519  15.302  0.0964  2.3196 -1.0478
 2735TIP3   OH229695   1.918   6.557  11.077 -0.4671 -0.0161  0.2427
 2735TIP3    H129696   1.943   6.621  11.143 -0.8807  0.5123 -0.1044
 2735TIP3    H229697   1.860   6.605  11.018  0.4305 -0.2939 -0.8921
 2736TIP3   OH229698   4.028   2.202   4.130 -0.1607 -0.0710  0.2815
 2736TIP3    H129699   4.018   2.110   4.104  1.2827 -0.5962  1.4150
 2736TIP3    H229700   4.048   2.248   4.049 -0.0325 -0.9163 -0.1824
 2737TIP3   OH229701   3.532   5.544  15.976  0.2114  0.7362  0.6158
 2737TIP3    H129702   3.539   5.568  15.884 -2.4730 -0.0441  0.1316
 2737TIP3    H229703   3.618   5.506  15.998  0.3187 -0.7551 -2.0562
 2738TIP3   OH229704   1.720   1.241  10.912 -0.0217  0.5575 -0.2742
 2738TIP3    H129705   1.812   1.221  10.896  0.3475 -1.0619  3.1295
 2738TIP3    H229706   1.675   1.157  10.898 -0.3192  0.2987  1.8604
 2739TIP3   OH229707   1.264   4.681  12.941 -0.2325 -0.4137 -0.0713
 2739TIP3    H129708   1.291   4.685  13.032 -0.3534  0.2214 -0.0539
 2739TIP3    H229709   1.228   4.769  12.923 -0.3072 -0.5652 -0.6921
 2740TIP3   OH229710   3.262   0.976  10.677  0.4378 -0.3370  0.1724
 2740TIP3    H129711   3.313   0.956  10.756  0.2699 -1.2882  0.0506
 2740TIP3    H229712   3.199   1.041  10.706  1.4963  0.6329  0.4016
 2741TIP3   OH229713   1.912   4.300  13.020  0.5940  0.2953 -0.6789
 2741TIP3    H129714   1.878   4.255  13.098  1.2997  0.4313 -0.2829
 2741TIP3    H229715   1.836   4.343  12.982  0.4183  1.0971  0.5301
 2742TIP3   OH229716   5.214   2.936   6.515 -0.0428 -0.8540 -0.4216
 2742TIP3    H129717   5.274   2.863   6.528  1.1988  0.3191  0.8608
 2742TIP3    H229718   5.134   2.911   6.560  0.8733 -0.8755  1.2817
 2743TIP3   OH229719   5.445   1.663  10.509 -0.2956  0.4905 -0.2719
 2743TIP3    H129720   5.501   1.709  10.572  1.9637 -1.1725 -0.9309
 2743TIP3    H229721   5.428   1.578  10.550  1.0394 -0.5374 -1.7386
 2744TIP3   OH229722   1.712   6.216   5.153  0.0604 -0.5925 -0.1769
 2744TIP3    H129723   1.634   6.212   5.208  0.8864  0.4728  1.1416
 2744TIP3    H229724   1.679   6.235   5.065 -1.1332  0.4287  0.4659
 2745TIP3   OH229725   4.862   3.496  14.774 -0.0079 -0.5777  0.1073
 2745TIP3    H129726   4.838   3.511  14.683  1.2073 -0.2601 -0.1840
 2745TIP3    H229727   4.794   3.540  14.824 -0.6813 -0.7443 -0.6450
 2746TIP3   OH229728   5.326   6.411  11.085  0.1642 -0.0998  0.4452
 2746TIP3    H129729   5.305   6.485  11.028 -1.5345  0.4398  1.6622
 2746TIP3    H229730   5.408   6.377  11.051  0.0744  1.2266 -1.2612
 2747TIP3   OH229731   4.612   2.206  17.155  0.3108  0.2487  0.0082
 2747TIP3    H129732   4.535   2.212  17.099  1.4785  0.8354 -1.5843
 2747TIP3    H229733   4.662   2.285  17.137  3.0643 -1.7015 -1.7595
 2748TIP3   OH229734   3.351   6.055   0.585 -0.1827  0.2938 -0.0370
 2748TIP3    H129735   3.267   6.048   0.630  0.0386  1.2106  0.5406
 2748TIP3    H229736   3.363   6.149   0.571  1.0115  0.2263  0.3941
 2749TIP3   OH229737   3.637   1.272  14.398 -0.9236  0.0761 -0.3166
 2749TIP3    H129738   3.693   1.345  14.423  1.5797 -1.6477 -0.4739
 2749TIP3    H229739   3.551   1.310  14.386  0.4604  3.1475 -1.3603
 2750TIP3   OH229740   4.282   1.642  17.124  0.4845 -0.7383 -0.5060
 2750TIP3    H129741   4.197   1.622  17.084 -0.0593  0.3123  0.0731
 2750TIP3    H229742   4.322   1.705  17.063  1.0870 -1.6262 -1.0435
 2751TIP3   OH229743   1.098   2.778   0.357  0.4089 -0.3414 -0.0514
 2751TIP3    H129744   1.182   2.794   0.314  0.1470  0.1476 -0.3851
 2751TIP3    H229745   1.049   2.725   0.294  0.9211 -1.7090  0.6588
 2752TIP3   OH229746   1.641   2.672   5.506 -0.0392 -0.2974  0.1116
 2752TIP3    H129747   1.594   2.735   5.561 -0.9193 -0.1717 -0.7574
 2752TIP3    H229748   1.722   2.717   5.482  0.2193 -0.2443  1.0648
 2753TIP3   OH229749   5.220   3.757  11.437 -0.6901  0.4151 -0.2422
 2753TIP3    H129750   5.142   3.761  11.491  0.0820  1.0322  0.8646
 2753TIP3    H229751   5.292   3.780  11.496  0.6447 -2.2941 -0.6539
 2754TIP3   OH229752   5.958   3.168  12.320 -0.2965  0.7747  0.3888
 2754TIP3    H129753   5.869   3.182  12.354  0.0558  1.3921  1.0891
 2754TIP3    H229754   5.980   3.078  12.346 -0.5761  0.7460  0.5253
 2755TIP3   OH229755   3.910   2.899   5.741  0.3975 -0.2723 -0.0312
 2755TIP3    H129756   3.901   2.986   5.780  2.1316  0.1633 -0.4981
 2755TIP3    H229757   3.906   2.915   5.646  0.9428 -0.6646 -0.1250
 2756TIP3   OH229758   6.715   0.483   3.363 -0.4144  0.3830  0.6250
 2756TIP3    H129759   6.807   0.484   3.336 -0.8476 -0.2380 -0.9274
 2756TIP3    H229760   6.716   0.435   3.446  0.9379  2.3216  1.8299
 2757TIP3   OH229761   6.079   6.648   0.331 -0.3476  0.4905 -0.2480
 2757TIP3    H129762   6.148   6.640   0.398  1.2116  1.4857 -1.6432
 2757TIP3    H229763   6.016   6.710   0.368  0.3101  0.7524  0.4596
 2758TIP3   OH229764   2.330   3.175   4.654  0.4005  0.6637 -0.0843
 2758TIP3    H129765   2.394   3.210   4.592  1.2332  0.9158  0.8919
 2758TIP3    H229766   2.364   3.089   4.677  0.7723  1.0720  0.9554
 2759TIP3   OH229767   1.093   5.157  11.039  0.1288  0.2124 -0.4483
 2759TIP3    H129768   1.014   5.136  11.090 -0.4922  1.9472 -0.6319
 2759TIP3    H229769   1.060   5.181  10.953  0.9383  0.2082 -0.7670
 2760TIP3   OH229770   6.281   3.719  15.204 -0.3613  0.1152 -0.6246
 2760TIP3    H129771   6.249   3.767  15.128 -1.8057  0.4454  0.1447
 2760TIP3    H229772   6.213   3.654  15.220  1.7015 -2.5484 -1.8695
 2761TIP3   OH229773   5.812   5.916   3.189 -0.0203 -0.4206  0.3139
 2761TIP3    H129774   5.865   5.854   3.139 -2.7917 -1.5765 -1.4406
 2761TIP3    H229775   5.821   5.888   3.280  0.8181 -1.8105 -0.1640
 2762TIP3   OH229776   2.640   3.461  12.544  0.3467  0.3794 -0.0358
 2762TIP3    H129777   2.551   3.428  12.528  0.4878 -0.3537  0.5961
 2762TIP3    H229778   2.638   3.551  12.514 -0.0404 -0.2253 -1.9281
 2763TIP3   OH229779   0.143   4.870  16.970  0.3147 -0.0319  0.1199
 2763TIP3    H129780   0.216   4.926  16.995 -1.1389  2.7525 -1.4430
 2763TIP3    H229781   0.132   4.884  16.876 -1.9247 -0.7145  0.2186
 2764TIP3   OH229782   6.139   1.829   5.593 -0.8628  0.3927 -0.1280
 2764TIP3    H129783   6.109   1.739   5.609 -0.9498  0.3086 -0.7162
 2764TIP3    H229784   6.195   1.850   5.668  1.7017 -1.2679 -1.4318
 2765TIP3   OH229785   2.484   4.277   4.299  0.2000 -0.1483  0.0175
 2765TIP3    H129786   2.489   4.313   4.211  0.1849  0.2877  0.1916
 2765TIP3    H229787   2.542   4.201   4.298 -0.7368 -0.8695 -0.7062
 2766TIP3   OH229788   4.661   1.559   1.027  0.1646  0.2027 -0.6671
 2766TIP3    H129789   4.754   1.577   1.038 -0.1887  1.9070 -0.2890
 2766TIP3    H229790   4.639   1.592   0.940 -0.4574  1.5677 -0.0255
 2767TIP3   OH229791   5.927   6.453  13.056 -0.0146 -0.3975  0.2120
 2767TIP3    H129792   5.861   6.506  13.010 -0.5957 -3.3436 -2.6488
 2767TIP3    H229793   5.876   6.386  13.102  0.8783 -0.8638  0.5435
 2768TIP3   OH229794   5.242   5.874   0.796 -0.0471 -0.0145 -0.2997
 2768TIP3    H129795   5.182   5.902   0.727  0.4055  1.4909 -0.1019
 2768TIP3    H229796   5.239   5.778   0.792 -0.9779  0.0405 -1.5664
 2769TIP3   OH229797   5.930   2.303   3.381  0.4121 -0.0625  0.3135
 2769TIP3    H129798   6.005   2.244   3.389  0.0003 -0.6362  0.1150
 2769TIP3    H229799   5.961   2.388   3.412  1.0964 -0.3277  0.3624
 2770TIP3   OH229800   1.040   1.147   1.107  0.2671  0.0542  0.5141
 2770TIP3    H129801   1.118   1.187   1.145  0.6407  1.1953 -1.3097
 2770TIP3    H229802   1.074   1.072   1.058  0.2005  0.3781 -0.0375
 2771TIP3   OH229803   6.147   4.847   1.927  0.1111 -0.6066  0.3840
 2771TIP3    H129804   6.225   4.855   1.872 -0.9546 -1.0947 -1.2510
 2771TIP3    H229805   6.133   4.752   1.934 -0.6161 -0.5173  0.2329
 2772TIP3   OH229806   2.505   2.976   2.301 -0.0991 -0.5829  0.1028
 2772TIP3    H129807   2.575   3.026   2.259 -1.0629  0.9707  0.2323
 2772TIP3    H229808   2.452   2.943   2.229 -1.2638  1.3551 -0.0169
 2773TIP3   OH229809   5.288   0.506   1.694  0.0770  0.1555  0.2588
 2773TIP3    H129810   5.234   0.493   1.616 -2.4620  0.6397  1.8298
 2773TIP3    H229811   5.289   0.601   1.706 -0.4681  0.0332  1.3828
 2774TIP3   OH229812   0.972   6.811  17.128  0.7448  0.5014  0.1981
 2774TIP3    H129813   0.988   6.778  17.216 -3.1042  0.1981  0.9663
 2774TIP3    H229814   1.006   6.742  17.070  1.3198 -0.3364  1.4837
 2775TIP3   OH229815   2.339   1.798  16.236  0.2713 -0.3735 -0.5588
 2775TIP3    H129816   2.352   1.785  16.142  0.2186  2.5081 -1.0674
 2775TIP3    H229817   2.252   1.837  16.242  0.3294 -0.4066  0.6769
 2776TIP3   OH229818   6.820   1.055  16.407  0.4200 -0.2160  0.3934
 2776TIP3    H129819   6.725   1.056  16.390  0.5842  1.8078 -0.7092
 2776TIP3    H229820   6.841   1.145  16.428  1.8880 -0.9247  2.2520
 2777TIP3   OH229821   5.049   0.295   5.007  0.2955  0.7346 -0.2596
 2777TIP3    H129822   5.120   0.268   4.949 -0.7985  0.0314 -1.3384
 2777TIP3    H229823   5.026   0.215   5.055 -0.4736  0.6663 -0.7200
 2778TIP3   OH229824   6.303   3.238   0.082  0.1777  0.6260 -0.8956
 2778TIP3    H129825   6.263   3.309   0.031 -1.0822 -0.6491 -1.7344
 2778TIP3    H229826   6.230   3.194   0.124  0.7686 -1.1654 -1.6666
 2779TIP3   OH229827   2.368   4.471  14.647 -0.2360 -0.3592  0.3447
 2779TIP3    H129828   2.418   4.451  14.568  0.7160 -0.7897  1.0277
 2779TIP3    H229829   2.435   4.497  14.711 -0.4913 -3.6897  2.1713
 2780TIP3   OH229830   6.778   1.092   3.638  0.0539 -0.2858  0.2876
 2780TIP3    H129831   6.818   1.175   3.665  0.0833 -0.6251  1.3488
 2780TIP3    H229832   6.685   1.104   3.655 -0.1228 -0.0096 -0.8174
 2781TIP3   OH229833   5.903   1.137  15.462 -0.7684  0.1991  0.4185
 2781TIP3    H129834   5.832   1.076  15.440 -0.7302  0.4405 -0.4045
 2781TIP3    H229835   5.979   1.104  15.413 -1.4205  2.4824 -2.4201
 2782TIP3   OH229836   3.090   1.092   0.621 -0.4017 -0.2049  0.3181
 2782TIP3    H129837   3.001   1.095   0.657 -0.2864 -0.6339  0.6501
 2782TIP3    H229838   3.108   1.182   0.593 -0.1754  0.3744  2.1353
 2783TIP3   OH229839   3.367   1.553  16.898 -0.2395  0.2527  0.0383
 2783TIP3    H129840   3.387   1.482  16.959 -1.5915 -0.7820 -0.6709
 2783TIP3    H229841   3.354   1.509  16.813  1.6498  1.6529 -1.0567
 2784TIP3   OH229842   4.323   1.889  10.570 -0.2373 -0.1974  0.0609
 2784TIP3    H129843   4.406   1.859  10.607  0.2209 -0.4890 -1.1321
 2784TIP3    H229844   4.335   1.879  10.475 -1.6149 -0.1809 -0.1323
 2785TIP3   OH229845   4.587   1.060  16.638  0.8009  0.5907  0.1275
 2785TIP3    H129846   4.601   1.046  16.732  1.2076 -1.4043 -0.1902
 2785TIP3    H229847   4.534   0.986  16.610  2.0710  0.2468 -1.5161
 2786TIP3   OH229848   2.163   2.743  16.403  0.3924  0.0652 -0.1116
 2786TIP3    H129849   2.215   2.744  16.484 -1.1403  1.0993  0.9195
 2786TIP3    H229850   2.180   2.829  16.363 -1.7665  1.1592  1.1394
 2787TIP3   OH229851   5.207   4.638   0.825  0.0376  0.1555  0.6174
 2787TIP3    H129852   5.141   4.574   0.852 -0.4481  0.2210 -0.3594
 2787TIP3    H229853   5.190   4.652   0.732  0.7949  0.9344  0.5828
 2788TIP3   OH229854   5.352   6.007   1.740  0.4196 -0.5959 -0.1764
 2788TIP3    H129855   5.402   5.991   1.660 -0.6690  2.2693 -1.6078
 2788TIP3    H229856   5.396   6.082   1.780 -0.1293 -0.8532  0.9352
 2789TIP3   OH229857   3.167   4.587   0.490 -0.4113  0.7274  0.0759
 2789TIP3    H129858   3.098   4.597   0.424  0.0039  1.7043 -0.2389
 2789TIP3    H229859   3.148   4.656   0.554 -1.1547 -0.5900  1.3115
 2790TIP3   OH229860   1.733   3.706  12.358  0.2664  0.1952  0.0270
 2790TIP3    H129861   1.799   3.660  12.410  0.2662  0.3630  0.1761
 2790TIP3    H229862   1.749   3.799  12.375  1.3093  0.3406 -1.5330
 2791TIP3   OH229863   4.594   2.561   5.878 -0.4870 -0.1830 -0.3457
 2791TIP3    H129864   4.631   2.623   5.942 -0.1958 -1.4943  0.8051
 2791TIP3    H229865   4.598   2.476   5.922 -0.6595 -1.0717 -1.9755
 2792TIP3   OH229866   2.720   2.908  12.552 -0.0275  0.1814 -0.7263
 2792TIP3    H129867   2.672   2.984  12.519 -1.7251 -1.5342 -2.4750
 2792TIP3    H229868   2.654   2.856  12.599  0.5345 -1.2263 -1.4201
 2793TIP3   OH229869   1.569   1.478  16.816  0.3159  0.1963  0.9912
 2793TIP3    H129870   1.626   1.408  16.847  0.6173  0.5666  1.2790
 2793TIP3    H229871   1.509   1.494  16.889  2.0310  2.1612  2.0610
 2794TIP3   OH229872   4.655   4.200  16.965  0.4636 -0.4231 -0.1324
 2794TIP3    H129873   4.703   4.281  16.982  0.3357 -0.2822 -0.4276
 2794TIP3    H229874   4.579   4.204  17.023  0.0029  0.0752 -0.7548
 2795TIP3   OH229875   1.418   0.168  11.962 -0.0376 -0.1974  0.6562
 2795TIP3    H129876   1.463   0.250  11.943  0.4164 -0.1883  1.7095
 2795TIP3    H229877   1.431   0.115  11.884  3.0511 -0.7299  1.4238
 2796TIP3   OH229878   3.754   2.084  15.349 -0.0089 -0.7368 -0.1510
 2796TIP3    H129879   3.835   2.109  15.394 -0.4274 -1.4808  1.0616
 2796TIP3    H229880   3.736   1.995  15.379 -1.1368 -0.6815 -0.6081
 2797TIP3   OH229881   0.186   1.515   3.733  0.1423  0.4319 -0.0876
 2797TIP3    H129882   0.276   1.494   3.755  1.6620  0.8844 -4.8983
 2797TIP3    H229883   0.187   1.608   3.710 -0.5321 -0.3265 -3.7787
 2798TIP3   OH229884   5.415   0.309  13.825  0.4583 -0.2435  0.3719
 2798TIP3    H129885   5.452   0.257  13.896  0.5166 -1.3872 -0.4713
 2798TIP3    H229886   5.481   0.375  13.806  1.3766 -1.2477 -0.0230
 2799TIP3   OH229887   6.622   3.590   3.568 -0.1686 -0.6472 -0.5152
 2799TIP3    H129888   6.675   3.557   3.495  3.0508  0.1094  1.2767
 2799TIP3    H229889   6.635   3.526   3.638 -0.5898  0.1993  0.3675
 2800TIP3   OH229890   1.032   4.480  13.794 -0.3459 -0.3127  0.0688
 2800TIP3    H129891   1.118   4.478  13.837 -0.8146  1.3417  1.1684
 2800TIP3    H229892   0.978   4.421  13.846 -0.1167 -0.6643 -0.0874
 2801TIP3   OH229893   2.994   6.487   0.542  0.8885 -0.3111 -0.4907
 2801TIP3    H129894   3.006   6.459   0.633 -0.7334 -1.9833 -0.7262
 2801TIP3    H229895   2.900   6.478   0.527  1.0689  0.3629 -2.2168
 2802TIP3   OH229896   5.582   1.988  15.718 -0.2345 -0.4209 -0.2443
 2802TIP3    H129897   5.507   1.987  15.778  1.3185  0.1580  1.8267
 2802TIP3    H229898   5.645   1.928  15.758  1.4408  1.0897 -0.4908
 2803TIP3   OH229899   4.161   6.541  16.409 -0.2568 -0.9544  0.0017
 2803TIP3    H129900   4.222   6.488  16.359 -1.8393 -1.6743 -1.2777
 2803TIP3    H229901   4.153   6.495  16.493  0.9430 -0.8383  0.1837
 2804TIP3   OH229902   4.434   5.043  15.318 -0.1331  0.2196 -0.7025
 2804TIP3    H129903   4.428   4.949  15.301  0.4153  0.3994 -1.9531
 2804TIP3    H229904   4.506   5.073  15.262  1.4550  0.9448  1.5771
 2805TIP3   OH229905   2.932   5.291  15.847  0.2031  0.0018  0.2176
 2805TIP3    H129906   2.907   5.270  15.757  1.7877  0.7484 -0.4404
 2805TIP3    H229907   2.989   5.368  15.838  2.0072 -1.0916  1.6358
 2806TIP3   OH229908   3.699   1.038  14.520 -0.1337  0.0067  0.0340
 2806TIP3    H129909   3.621   0.997  14.557  0.6156 -0.7230  0.8481
 2806TIP3    H229910   3.665   1.104  14.459 -1.4096 -2.1347 -1.7320
 2807TIP3   OH229911   5.738   2.409  14.943  0.7866 -0.1745 -0.5251
 2807TIP3    H129912   5.765   2.501  14.943 -0.7120  0.2919 -0.7957
 2807TIP3    H229913   5.724   2.389  15.036  0.2149  0.1539 -0.5390
 2808TIP3   OH229914   5.766   5.255  17.025 -0.4171 -0.2654  0.4313
 2808TIP3    H129915   5.776   5.169  16.986 -0.0539 -0.3209  0.6409
 2808TIP3    H229916   5.855   5.290  17.029 -0.6362  0.3947 -0.2741
 2809TIP3   OH229917   2.770   4.351  14.754 -0.1516 -0.2794 -0.0570
 2809TIP3    H129918   2.699   4.414  14.760 -0.3344 -0.4149 -0.6743
 2809TIP3    H229919   2.841   4.389  14.806 -0.6011 -0.0418  0.3852
 2810TIP3   OH229920   3.927   5.080  17.190  0.3350 -0.2501  0.0313
 2810TIP3    H129921   3.837   5.111  17.178 -0.5273 -1.6716  2.1653
 2810TIP3    H229922   3.973   5.156  17.226  0.3890  0.8945 -2.2991
 2811TIP3   OH229923   4.650   5.081   0.577 -0.3391  0.4232  0.2761
 2811TIP3    H129924   4.640   5.102   0.484  2.1391 -0.2318 -0.2250
 2811TIP3    H229925   4.607   4.996   0.588 -0.7312  0.5538 -0.2547
 2812TIP3   OH229926   5.740   1.013  15.993 -0.0166 -0.2824 -0.5124
 2812TIP3    H129927   5.789   1.096  15.992 -0.7660  0.1612 -0.8826
 2812TIP3    H229928   5.737   0.989  16.086 -1.6767  1.2482 -0.1192
 2813TIP3   OH229929   6.339   5.696   5.603 -0.3038  0.6677 -0.1263
 2813TIP3    H129930   6.271   5.763   5.607  1.4478  2.4789  0.7988
 2813TIP3    H229931   6.409   5.735   5.551 -0.1568 -1.4073 -1.6269
 2814TIP3   OH229932   3.850   3.112  14.955  0.2531 -0.1690 -0.0588
 2814TIP3    H129933   3.909   3.037  14.964 -1.0850 -1.1009  1.2830
 2814TIP3    H229934   3.898   3.172  14.897  2.4554 -0.9234  0.8459
 2815TIP3   OH229935   3.847   2.394  14.419  0.5905  0.1372 -0.2820
 2815TIP3    H129936   3.883   2.451  14.488  0.8729  2.3392 -2.1209
 2815TIP3    H229937   3.772   2.443  14.385 -1.9976 -2.6761  0.9392
 2816TIP3   OH229938   3.765   4.957   0.368 -0.4835 -0.2058  0.1697
 2816TIP3    H129939   3.748   4.951   0.274  0.0778 -0.3040  0.0732
 2816TIP3    H229940   3.853   4.922   0.379  0.8345  2.8658  0.2882
 2817TIP3   OH229941   5.543   0.763  10.957  0.3122 -0.1276 -0.2647
 2817TIP3    H129942   5.485   0.793  11.028  0.5567  0.6631 -0.3976
 2817TIP3    H229943   5.493   0.692  10.915  0.1008 -0.5140  0.5976
 2818TIP3   OH229944   3.841   0.384  14.520 -0.2517 -0.2187 -0.2449
 2818TIP3    H129945   3.759   0.431  14.528  0.0651  0.4308 -0.7006
 2818TIP3    H229946   3.842   0.353  14.429 -0.4523 -1.1106  0.0428
 2819TIP3   OH229947   5.605   1.735   0.676  0.4221  0.3910 -0.7315
 2819TIP3    H129948   5.526   1.776   0.641  0.5250  0.4360 -0.9140
 2819TIP3    H229949   5.644   1.802   0.732  0.4738  0.4650 -0.8555
 2820TIP3   OH229950   3.075   5.245  11.450  0.0172 -0.1948 -0.2199
 2820TIP3    H129951   2.992   5.197  11.446 -0.7194  1.1063 -1.3022
 2820TIP3    H229952   3.131   5.198  11.388  0.1894 -1.1977  0.6562
 2821TIP3   OH229953   1.508   5.891   5.447  0.5206 -0.3735 -0.2950
 2821TIP3    H129954   1.472   5.972   5.482  0.7124 -0.3823 -0.0764
 2821TIP3    H229955   1.442   5.860   5.385  0.5742  0.0915 -0.5848
 2822TIP3   OH229956   0.256   5.562  14.235  0.8378  0.0486 -0.3207
 2822TIP3    H129957   0.179   5.534  14.284  0.5325 -0.1787 -0.9268
 2822TIP3    H229958   0.230   5.557  14.143  0.7407  2.3826 -0.4733
 2823TIP3   OH229959   2.847   5.899   4.670 -0.0740  0.2035 -0.4546
 2823TIP3    H129960   2.898   5.825   4.703  0.1696  0.1524 -0.9326
 2823TIP3    H229961   2.757   5.868   4.668  0.2741 -0.8238 -2.6354
 2824TIP3   OH229962   0.355   4.745  15.564  0.1373  1.0069 -0.2496
 2824TIP3    H129963   0.334   4.703  15.648  1.0761  1.7541  0.3753
 2824TIP3    H229964   0.384   4.673  15.508  1.6898  0.7860  0.7925
 2825TIP3   OH229965   2.322   1.574  14.729  0.0160  0.0559 -0.6810
 2825TIP3    H129966   2.249   1.539  14.677 -0.4365 -0.2740  0.1607
 2825TIP3    H229967   2.286   1.584  14.817  0.8316  0.4185 -0.3825
 2826TIP3   OH229968   3.625   6.493  11.602 -0.4409 -0.3910 -0.5013
 2826TIP3    H129969   3.719   6.477  11.591  0.1878  1.4424  1.4845
 2826TIP3    H229970   3.615   6.586  11.584 -0.4467  1.2962  5.8973
 2827TIP3   OH229971   1.374   6.034   3.925  0.0100  0.1355 -0.1356
 2827TIP3    H129972   1.443   5.993   3.977  0.8361 -0.6857 -1.7852
 2827TIP3    H229973   1.327   6.090   3.987 -0.0850 -1.9875  1.8543
 2828TIP3   OH229974   1.176   4.050   1.344 -0.2073 -0.2108 -0.6509
 2828TIP3    H129975   1.202   3.980   1.404  0.4808 -0.3132 -1.0477
 2828TIP3    H229976   1.214   4.024   1.260 -1.1879 -0.0892 -1.1443
 2829TIP3   OH229977   3.327   4.862   5.667 -0.3392 -0.1554  0.5714
 2829TIP3    H129978   3.241   4.824   5.684 -1.1659  0.9949 -0.8550
 2829TIP3    H229979   3.309   4.943   5.620  1.5582 -0.4521 -0.7821
 2830TIP3   OH229980   5.570   1.603  16.117 -0.2537 -0.0891 -0.0248
 2830TIP3    H129981   5.606   1.556  16.041  1.0048 -1.6908  1.4717
 2830TIP3    H229982   5.547   1.533  16.179  0.9257  1.2179  1.9812
 2831TIP3   OH229983   4.351   3.089  14.680  0.4197 -0.4672  0.2003
 2831TIP3    H129984   4.348   3.147  14.756  0.7987 -0.0067 -0.1276
 2831TIP3    H229985   4.259   3.073  14.659  0.2798  0.7773 -0.2591
 2832TIP3   OH229986   1.407   6.170   4.754  0.0668 -0.7146 -0.1915
 2832TIP3    H129987   1.475   6.236   4.743 -0.2590 -0.4594 -0.6962
 2832TIP3    H229988   1.334   6.202   4.701 -0.0837 -1.4920 -0.4600
 2833TIP3   OH229989   4.069   2.351   0.158  0.4287 -0.1234  0.0435
 2833TIP3    H129990   4.073   2.349   0.063  0.7044  1.2634 -0.0005
 2833TIP3    H229991   4.137   2.414   0.184  2.0071 -2.2009  1.3072
 2834TIP3   OH229992   0.225   3.037   2.097  0.6182 -0.0479  0.0249
 2834TIP3    H129993   0.209   3.031   2.191  1.6037  0.3043  0.2253
 2834TIP3    H229994   0.294   3.103   2.089  0.2050  0.2838 -0.9852
 2835TIP3   OH229995   5.567   5.333  12.083 -0.3530  0.2424 -0.0220
 2835TIP3    H129996   5.647   5.281  12.085  0.0502  0.8560  0.1908
 2835TIP3    H229997   5.513   5.297  12.153  1.0572  1.8526  2.0105
 2836TIP3   OH229998   2.848   0.976  10.810  0.2709  0.2897 -0.1560
 2836TIP3    H129999   2.925   1.032  10.818  0.0419  0.4853  0.8411
 2836TIP3    H230000   2.809   0.999  10.725  0.2379  1.5707  0.1933
 2837TIP3   OH230001   4.873   3.843  12.059  0.5762  0.0525  0.1716
 2837TIP3    H130002   4.805   3.815  12.121  1.3431 -0.4154  0.8071
 2837TIP3    H230003   4.955   3.823  12.102  1.1309  0.6486 -0.5878
 2838TIP3   OH230004   6.264   4.348   1.536  0.1150  0.6086 -0.7375
 2838TIP3    H130005   6.357   4.361   1.555  0.3170 -0.1649 -1.2161
 2838TIP3    H230006   6.221   4.422   1.580  0.9405  0.9197 -0.4373
 2839TIP3   OH230007   1.117   5.909   1.968 -0.0907  0.3463 -0.0569
 2839TIP3    H130008   1.061   5.916   2.045 -1.4641 -1.5433 -0.8090
 2839TIP3    H230009   1.203   5.886   2.003 -0.4035  0.6903  0.9743
 2840TIP3   OH230010   0.595   0.038  11.000 -0.4574  0.3428  0.4924
 2840TIP3    H130011   0.524  -0.003  11.049 -0.0658 -0.6198  0.2647
 2840TIP3    H230012   0.625   0.109  11.057 -2.1424  1.3153  0.2367
 2841TIP3   OH230013   4.875   1.849  14.767  0.7508 -0.4799 -0.6465
 2841TIP3    H130014   4.865   1.902  14.846  0.5210 -1.1919 -0.1905
 2841TIP3    H230015   4.851   1.908  14.695 -2.3307 -0.7240  0.0319
 2842TIP3   OH230016   2.190   1.699   6.554 -0.2973  0.4706 -0.1238
 2842TIP3    H130017   2.235   1.708   6.638  0.6750 -0.2323 -0.5418
 2842TIP3    H230018   2.220   1.614   6.520 -1.3867  0.3216 -0.7622
 2843TIP3   OH230019   2.560   5.932   2.629 -0.2104  0.1643 -0.5812
 2843TIP3    H130020   2.623   6.002   2.610  0.3107  0.3511  1.5853
 2843TIP3    H230021   2.477   5.978   2.643  0.4436  0.6263  2.3898
 2844TIP3   OH230022   0.002   0.297   2.468  0.1919 -0.4064 -0.1433
 2844TIP3    H130023   0.017   0.374   2.524  2.1113  0.8668 -2.2421
 2844TIP3    H230024  -0.081   0.316   2.424  0.3885  0.2288 -0.2544
 2845TIP3   OH230025   0.887   1.612   4.858 -0.9737 -0.0775 -0.0339
 2845TIP3    H130026   0.886   1.571   4.772 -1.7845 -1.0192  0.3964
 2845TIP3    H230027   0.804   1.585   4.898  0.4681 -1.8656  2.0100
 2846TIP3   OH230028   0.525   3.461  14.910 -0.1454  0.3409 -0.3709
 2846TIP3    H130029   0.509   3.404  14.836  0.7484  0.2498 -0.4980
 2846TIP3    H230030   0.490   3.413  14.986  1.8442 -1.0336 -0.2580
 2847TIP3   OH230031   3.602   1.115  13.650 -0.3731 -0.4777  0.0416
 2847TIP3    H130032   3.510   1.095  13.670 -0.2256 -0.1366  1.1212
 2847TIP3    H230033   3.635   1.157  13.729  1.1126 -1.8841  0.2218
 2848TIP3   OH230034   6.806   4.792   4.732  0.0454  0.8480 -0.5185
 2848TIP3    H130035   6.797   4.697   4.732 -0.8174  0.9018  0.7974
 2848TIP3    H230036   6.760   4.821   4.654  1.0753  0.1511 -1.4172
 2849TIP3   OH230037   4.924   2.122   1.469 -0.0095  0.2270  0.4237
 2849TIP3    H130038   4.987   2.054   1.493 -1.0420 -0.2038  2.0923
 2849TIP3    H230039   4.973   2.182   1.413  1.9509  0.0248  1.8275
 2850TIP3   OH230040   2.878   4.456  12.214 -0.1553 -0.2404  0.3435
 2850TIP3    H130041   2.965   4.416  12.210 -0.0125 -0.0128  1.0755
 2850TIP3    H230042   2.844   4.430  12.300 -1.3405 -1.4038 -0.4310
 2851TIP3   OH230043   2.528   1.687   2.796 -0.0618  0.6406 -0.1735
 2851TIP3    H130044   2.500   1.611   2.848 -0.5980 -0.1702 -1.5929
 2851TIP3    H230045   2.476   1.681   2.716  2.1885  0.6918 -1.7101
 2852TIP3   OH230046   3.503   0.803  12.997  0.5565  0.2547 -0.5236
 2852TIP3    H130047   3.590   0.840  13.007  1.1982 -1.5900  1.3346
 2852TIP3    H230048   3.496   0.737  13.065 -1.7337 -0.7542 -1.6057
 2853TIP3   OH230049   2.965   0.460  11.699 -0.1510 -0.3251  0.2279
 2853TIP3    H130050   2.945   0.554  11.708 -0.0268 -0.3395  0.7034
 2853TIP3    H230051   3.060   0.457  11.691 -0.1823 -0.3887 -0.1195
 2854TIP3   OH230052   3.778   3.219  14.018  0.0732  0.0317  0.4566
 2854TIP3    H130053   3.848   3.207  13.954 -0.2985 -1.0504  0.2387
 2854TIP3    H230054   3.719   3.145  14.005 -0.1325 -0.0930  1.9029
 2855TIP3   OH230055   3.313   4.923   5.948 -0.5637  0.5367 -0.2089
 2855TIP3    H130056   3.326   4.949   5.856 -1.1110 -0.7217 -0.6613
 2855TIP3    H230057   3.339   5.001   5.998  0.1621  1.1044 -1.4033
 2856TIP3   OH230058   4.995   3.640  16.021  0.0804  0.0736 -0.0038
 2856TIP3    H130059   4.921   3.680  16.067  0.6268  1.3177 -0.1595
 2856TIP3    H230060   4.988   3.673  15.931  1.2681  0.8713  0.1739
 2857TIP3   OH230061   4.142   3.285  14.952 -0.4392 -0.2244  0.0404
 2857TIP3    H130062   4.072   3.305  14.890 -0.6678 -0.4631  0.2208
 2857TIP3    H230063   4.222   3.283  14.899 -0.5371  0.2542 -0.1326
 2858TIP3   OH230064   0.568   6.471  12.561  0.0419 -0.0608  0.4940
 2858TIP3    H130065   0.605   6.395  12.605 -0.7627  0.0990  1.4922
 2858TIP3    H230066   0.524   6.436  12.484  0.7685 -0.4552  0.2602
 2859TIP3   OH230067   4.878   1.893  10.404  0.2624  0.0243 -0.0962
 2859TIP3    H130068   4.954   1.863  10.354  1.9136  1.5162  1.3641
 2859TIP3    H230069   4.903   1.880  10.495 -1.3643  0.3226  0.4241
 2860TIP3   OH230070   5.764   0.172  12.494  0.7876 -0.4079  0.1500
 2860TIP3    H130071   5.692   0.109  12.505  0.1465  0.2556 -0.2053
 2860TIP3    H230072   5.823   0.152  12.567  0.1634 -0.8529  0.5540
 2861TIP3   OH230073   2.916   5.370  13.777 -0.1908  0.1089 -0.0200
 2861TIP3    H130074   3.001   5.350  13.817 -0.2436 -1.9217 -0.7927
 2861TIP3    H230075   2.858   5.387  13.851  0.2172 -1.4671  0.7074
 2862TIP3   OH230076   2.271   5.790   1.042  0.0682  0.1415  0.5955
 2862TIP3    H130077   2.304   5.711   0.999 -0.1273  0.0247  0.6619
 2862TIP3    H230078   2.345   5.851   1.039 -0.2877  0.5400 -0.8961
 2863TIP3   OH230079   3.247   4.665   1.481 -0.0258 -0.0475  0.2206
 2863TIP3    H130080   3.289   4.580   1.496 -0.6071 -0.0822  1.9079
 2863TIP3    H230081   3.317   4.729   1.497  0.3503 -0.1930 -0.8097
 2864TIP3   OH230082   4.057   5.403  16.095  0.5365 -0.1713  0.2392
 2864TIP3    H130083   4.027   5.367  16.179  0.1657 -0.0594  0.1573
 2864TIP3    H230084   4.070   5.496  16.113 -0.6758  0.0923 -0.1126
 2865TIP3   OH230085   2.114   2.573  13.078 -0.3726  0.0611  0.1078
 2865TIP3    H130086   2.079   2.650  13.032 -0.2054 -0.8298 -1.6295
 2865TIP3    H230087   2.160   2.523  13.009  0.6938 -0.9093  1.4621
 2866TIP3   OH230088   5.433   1.838   4.495  0.0852  0.0474 -0.1987
 2866TIP3    H130089   5.434   1.790   4.577  2.5837 -0.1975 -0.2979
 2866TIP3    H230090   5.499   1.795   4.441 -1.6749  0.0023 -2.5018
 2867TIP3   OH230091   6.544   3.974   1.719  0.8076 -0.0727 -0.4384
 2867TIP3    H130092   6.486   4.021   1.779  1.5531  0.5465 -0.1841
 2867TIP3    H230093   6.487   3.947   1.647  0.3111  1.0221 -0.4771
 2868TIP3   OH230094   3.046   0.816   4.583  0.6734 -0.2371 -0.4172
 2868TIP3    H130095   2.961   0.773   4.569  0.7276 -0.4540 -0.0897
 2868TIP3    H230096   3.048   0.887   4.519 -0.3893  0.6981  0.5462
 2869TIP3   OH230097   3.342   1.137   5.530  0.4305 -0.2020 -0.6045
 2869TIP3    H130098   3.337   1.211   5.590  1.8573 -0.4300 -0.1699
 2869TIP3    H230099   3.359   1.176   5.445  0.4586  0.0032 -0.5056
 2870TIP3   OH230100   5.911   5.667   4.821  0.0150  0.2590  0.0303
 2870TIP3    H130101   5.996   5.625   4.821 -0.3824 -0.5612 -0.5294
 2870TIP3    H230102   5.864   5.628   4.894 -0.2254 -0.0089 -0.2652
 2871TIP3   OH230103   0.769   5.204  13.112  0.3627  0.5454 -0.5064
 2871TIP3    H130104   0.744   5.181  13.201 -0.4984  2.1101 -0.3094
 2871TIP3    H230105   0.825   5.132  13.083  1.0960  0.2812  1.4682
 2872TIP3   OH230106   1.309   4.103   2.181 -0.2128 -0.2831  0.4633
 2872TIP3    H130107   1.305   4.033   2.246 -0.8740 -1.2050 -0.5511
 2872TIP3    H230108   1.288   4.061   2.098  1.5353  0.6794 -0.5297
 2873TIP3   OH230109   0.694   6.584   6.359 -0.0439  0.0432 -0.1125
 2873TIP3    H130110   0.648   6.607   6.440 -1.0211 -0.8996 -0.3799
 2873TIP3    H230111   0.786   6.603   6.378 -0.3183  0.3151  1.0388
 2874TIP3   OH230112   2.453   4.309   2.436 -0.6899 -0.3983  1.1030
 2874TIP3    H130113   2.470   4.280   2.346  1.4521 -3.3487  2.2665
 2874TIP3    H230114   2.533   4.355   2.461 -1.5504  1.0105  1.3259
 2875TIP3   OH230115   3.057   6.188   6.378 -0.0954  0.4513 -0.3119
 2875TIP3    H130116   3.001   6.172   6.302  0.6632 -1.6916 -0.4937
 2875TIP3    H230117   3.146   6.189   6.343  0.1173  2.0713  0.2183
 2876TIP3   OH230118   1.712   3.124  11.696 -0.6327 -0.0478 -0.0229
 2876TIP3    H130119   1.669   3.085  11.620 -0.1659  1.0850 -0.9175
 2876TIP3    H230120   1.648   3.117  11.767 -1.0670 -1.1630 -0.4994
 2877TIP3   OH230121   1.221   0.817  11.808  0.1965  0.0648 -0.4483
 2877TIP3    H130122   1.259   0.827  11.895 -1.8312 -1.3406  0.6906
 2877TIP3    H230123   1.179   0.902  11.791 -0.2184  0.0468  0.4095
 2878TIP3   OH230124   0.543   5.209   3.884 -0.0579 -0.1097 -0.1404
 2878TIP3    H130125   0.594   5.158   3.947 -0.6638  1.0609  1.3663
 2878TIP3    H230126   0.527   5.292   3.928 -3.3003 -0.4073 -0.4812
 2879TIP3   OH230127   3.262   5.303   2.819 -0.2151  0.1863 -0.1530
 2879TIP3    H130128   3.353   5.326   2.837 -0.2350 -0.5311  0.9793
 2879TIP3    H230129   3.250   5.218   2.861 -0.8970 -0.6183 -1.8818
 2880TIP3   OH230130   6.129   6.202   5.716  1.1024 -0.4534 -0.1871
 2880TIP3    H130131   6.087   6.123   5.682  0.0446  0.8382 -2.0902
 2880TIP3    H230132   6.064   6.240   5.776  0.5784  0.1839 -1.1274
 2881TIP3   OH230133   3.407   2.228  13.457 -0.4686  0.4316  0.6205
 2881TIP3    H130134   3.484   2.234  13.400 -0.0084 -0.7442  1.0827
 2881TIP3    H230135   3.412   2.306  13.513  0.3366  0.4246  0.5674
 2882TIP3   OH230136   3.020   2.799  13.003  0.6306 -0.0450 -0.1100
 2882TIP3    H130137   2.957   2.868  12.982 -0.1717 -0.2828  1.3910
 2882TIP3    H230138   3.001   2.729  12.942  0.4001  0.4433 -0.6078
 2883TIP3   OH230139   0.510   6.398  10.771  0.3694 -0.5507  0.0909
 2883TIP3    H130140   0.525   6.446  10.852 -0.7702  0.6805 -0.4034
 2883TIP3    H230141   0.415   6.396  10.761  0.2653 -3.6537  0.4941
 2884TIP3   OH230142   3.865   3.854   3.863 -0.0852 -0.4918 -0.1648
 2884TIP3    H130143   3.952   3.817   3.878 -0.2351 -0.9091 -0.3040
 2884TIP3    H230144   3.827   3.863   3.951 -0.3437 -1.4096 -0.1733
 2885TIP3   OH230145   0.353   0.652  13.823  0.0959  0.1236 -0.2875
 2885TIP3    H130146   0.269   0.612  13.802  0.0367 -0.0734  0.3091
 2885TIP3    H230147   0.414   0.579  13.830  0.2213  0.2269 -0.2918
 2886TIP3   OH230148   6.515   6.297   0.425  0.0212  0.4010 -0.1696
 2886TIP3    H130149   6.448   6.234   0.449  1.1347 -0.4582  0.7768
 2886TIP3    H230150   6.548   6.266   0.340 -1.1605  1.1836 -0.9556
 2887TIP3   OH230151   4.945   4.752   1.685  0.0237  0.1678 -0.3595
 2887TIP3    H130152   4.853   4.748   1.662 -0.0242  2.5407 -0.8771
 2887TIP3    H230153   4.986   4.684   1.632 -1.0791  0.8840 -2.2492
 2888TIP3   OH230154   5.355   2.919  14.508  0.0508 -0.4153  0.2202
 2888TIP3    H130155   5.371   2.838  14.461  0.0605  0.7898 -1.9666
 2888TIP3    H230156   5.340   2.892  14.599 -0.2016 -2.8547 -0.4976
 2889TIP3   OH230157   4.327   0.251  16.459  0.0737 -0.0374 -0.0166
 2889TIP3    H130158   4.417   0.219  16.448  0.1460  0.1778 -0.0580
 2889TIP3    H230159   4.291   0.251  16.370 -0.6158 -1.9920  0.2175
 2890TIP3   OH230160   2.876   4.499  17.186 -0.2535  0.0142  0.3810
 2890TIP3    H130161   2.795   4.450  17.203 -0.4364 -0.0295 -0.5477
 2890TIP3    H230162   2.923   4.445  17.122 -0.1152  0.6818 -0.0895
 2891TIP3   OH230163   2.163   6.514  13.863 -0.2552 -0.0994 -0.9044
 2891TIP3    H130164   2.248   6.509  13.819 -0.2401 -1.2175 -0.7782
 2891TIP3    H230165   2.173   6.460  13.942 -0.1871  2.0819  0.6759
 2892TIP3   OH230166   0.527   0.885   0.680  0.0734  0.2078  0.0347
 2892TIP3    H130167   0.570   0.967   0.655 -0.8001  0.7413  0.2530
 2892TIP3    H230168   0.563   0.865   0.767  1.7809 -0.7165 -0.8214
 2893TIP3   OH230169   1.956   0.814  14.244 -0.4738 -0.5981  0.1266
 2893TIP3    H130170   1.919   0.771  14.166  1.1145 -2.7948  0.4680
 2893TIP3    H230171   1.974   0.903  14.216 -1.2609 -0.9282 -1.5847
 2894TIP3   OH230172   0.177   0.215   2.658  0.0332 -0.4069  0.4193
 2894TIP3    H130173   0.214   0.298   2.687 -0.2435 -0.1896  0.1577
 2894TIP3    H230174   0.128   0.237   2.579  0.8787 -1.0134 -0.2779
 2895TIP3   OH230175   3.480   2.683  12.948  0.4585  0.5584 -0.3809
 2895TIP3    H130176   3.440   2.761  12.912  1.6580  1.0889 -0.6114
 2895TIP3    H230177   3.512   2.710  13.034  0.8494  0.3181 -0.4475
 2896TIP3   OH230178   0.324   0.502  14.938 -0.2623 -0.3933 -0.0621
 2896TIP3    H130179   0.239   0.508  14.894 -0.2580 -3.3890 -0.6568
 2896TIP3    H230180   0.302   0.477  15.028 -0.0270 -2.3693 -0.5200
 2897TIP3   OH230181   3.188   0.703  14.073  0.2618 -0.0073 -0.6644
 2897TIP3    H130182   3.265   0.648  14.063 -0.8095 -2.4745  2.7187
 2897TIP3    H230183   3.220   0.781  14.119  0.7372 -1.5786  1.9135
 2898TIP3   OH230184   2.778   4.536  13.773  0.5390 -0.2421  1.0332
 2898TIP3    H130185   2.754   4.485  13.696 -0.2117 -0.1014  1.1686
 2898TIP3    H230186   2.733   4.492  13.845 -1.3049  1.4173  0.9721
 2899TIP3   OH230187   4.798   0.890   0.482  1.1561  0.3693 -0.5309
 2899TIP3    H130188   4.851   0.815   0.510  0.2714 -0.5239 -1.1893
 2899TIP3    H230189   4.723   0.890   0.541 -0.4340 -1.1850 -2.4147
 2900TIP3   OH230190   0.271   2.355   2.887  0.2108  1.0412 -0.1665
 2900TIP3    H130191   0.175   2.361   2.891  0.0639  1.1663 -2.4446
 2900TIP3    H230192   0.293   2.284   2.947 -1.6493 -1.1935 -1.9388
 2901TIP3   OH230193   3.836   6.571  16.368  0.0954  0.4139  0.2394
 2901TIP3    H130194   3.789   6.598  16.447 -0.7545 -0.8675  0.1945
 2901TIP3    H230195   3.918   6.621  16.371  0.7186 -0.6286  2.6739
 2902TIP3   OH230196   5.752   1.824  15.884 -0.0041 -0.0480  0.0876
 2902TIP3    H130197   5.840   1.822  15.846  0.1261  0.4333  0.3642
 2902TIP3    H230198   5.737   1.734  15.912  0.2205 -0.2344 -0.3658
 2903TIP3   OH230199   5.523   2.107  14.228 -0.3404 -0.8528  0.1617
 2903TIP3    H130200   5.553   2.065  14.308 -1.8872 -0.0063  1.2378
 2903TIP3    H230201   5.432   2.077  14.218  0.0966 -1.6930 -1.8199
 2904TIP3   OH230202   2.228   6.125   4.108  0.1130  0.1245 -0.2400
 2904TIP3    H130203   2.284   6.145   4.182 -0.1768 -0.2171  0.0773
 2904TIP3    H230204   2.139   6.129   4.144  0.0265 -1.8328 -0.1073
 2905TIP3   OH230205   3.546   1.940  14.119 -0.2039  0.2767 -0.0568
 2905TIP3    H130206   3.599   1.978  14.049  0.6697 -0.1691  0.3350
 2905TIP3    H230207   3.457   1.969  14.101  0.4303  2.7229  0.3618
 2906TIP3   OH230208   6.291   4.407  12.226  0.4150  0.2573  0.0380
 2906TIP3    H130209   6.225   4.428  12.160  0.1206 -2.0959 -0.5253
 2906TIP3    H230210   6.241   4.365  12.296  1.0076  0.6997  0.7314
 2907TIP3   OH230211   2.252   0.867   0.164  0.0728  0.8358 -0.3864
 2907TIP3    H130212   2.272   0.836   0.076  1.5902  0.7814 -0.0493
 2907TIP3    H230213   2.194   0.801   0.201  0.6879  0.0565 -0.8006
 2908TIP3   OH230214   1.902   6.013  11.278 -0.0824  0.0940 -0.6750
 2908TIP3    H130215   1.895   5.998  11.184  0.8325  0.4484 -0.8030
 2908TIP3    H230216   1.946   6.098  11.286 -1.8416  0.9843  0.0668
 2909TIP3   OH230217   1.896   0.881  11.725 -0.0598 -0.0109  0.0735
 2909TIP3    H130218   1.873   0.957  11.672 -1.1019 -0.1949  0.2271
 2909TIP3    H230219   1.978   0.905  11.769  1.3824 -0.2351 -2.3502
 2910TIP3   OH230220   1.590   5.911   1.547 -0.4678 -0.4287  0.1392
 2910TIP3    H130221   1.552   5.849   1.609  0.1117 -2.2639 -1.2579
 2910TIP3    H230222   1.525   5.918   1.477 -0.2061 -0.0236 -0.0670
 2911TIP3   OH230223   1.386   3.378  12.214 -0.5747  0.1074  0.1668
 2911TIP3    H130224   1.395   3.473  12.222 -1.8706  0.4700 -1.9811
 2911TIP3    H230225   1.368   3.349  12.304 -1.8692  2.1212  0.6318
 2912TIP3   OH230226   6.617   6.377  17.160 -1.1794  0.5331  0.4731
 2912TIP3    H130227   6.633   6.293  17.118  0.2600  1.4448 -0.8989
 2912TIP3    H230228   6.538   6.411  17.119 -1.3387  0.1893  0.4973
 2913TIP3   OH230229   2.223   4.577  13.702 -0.7876  0.5158 -0.1104
 2913TIP3    H130230   2.141   4.613  13.670 -1.0600 -0.2203 -0.2591
 2913TIP3    H230231   2.272   4.554  13.623 -0.5031  0.8012 -0.0210
 2914TIP3   OH230232   4.927   2.726  11.586 -0.4616  0.0246  0.2594
 2914TIP3    H130233   4.957   2.648  11.540  2.6292  1.0882  0.2466
 2914TIP3    H230234   4.865   2.693  11.650 -1.2659 -2.0779 -1.4596
 2915TIP3   OH230235   5.044   2.490   4.676  0.0390  0.0608  0.0798
 2915TIP3    H130236   5.036   2.570   4.625 -2.6685  0.1951  0.5498
 2915TIP3    H230237   4.975   2.433   4.643  0.5565 -1.2650  1.1695
 2916TIP3   OH230238   1.596   3.815   1.014 -0.0945 -0.2875 -0.9044
 2916TIP3    H130239   1.517   3.856   1.049  0.0808  1.1088 -2.0495
 2916TIP3    H230240   1.664   3.836   1.078 -0.2611  0.1621 -0.8709
 2917TIP3   OH230241   3.854   4.949   4.419 -0.1544 -0.5501 -0.4438
 2917TIP3    H130242   3.823   4.895   4.493 -2.0854 -0.7502 -1.3296
 2917TIP3    H230243   3.930   4.902   4.386  0.2627 -0.8825  0.9168
 2918TIP3   OH230244   6.777   2.313   4.269 -0.5463  0.1593 -0.1767
 2918TIP3    H130245   6.787   2.380   4.337 -0.6007  0.8364 -0.8298
 2918TIP3    H230246   6.747   2.360   4.192  0.7858 -0.3843 -1.0812
 2919TIP3   OH230247   3.921   0.119   4.503  0.2204  0.4310 -0.2261
 2919TIP3    H130248   3.950   0.203   4.539  0.4112  0.2392  0.0724
 2919TIP3    H230249   3.995   0.088   4.451  0.0771  0.5390 -0.4953
 2920TIP3   OH230250   0.834   5.697  11.584 -0.7708  0.6740 -0.0723
 2920TIP3    H130251   0.863   5.606  11.576 -0.0414  0.9097 -0.1880
 2920TIP3    H230252   0.744   5.690  11.616  0.2230 -0.0338  2.8556
 2921TIP3   OH230253   4.510   0.044  14.757 -0.8002 -0.5513  0.1630
 2921TIP3    H130254   4.425   0.006  14.735 -1.0058  0.3634 -0.7014
 2921TIP3    H230255   4.491   0.109  14.824 -0.6528 -0.9461  0.5929
 2922TIP3   OH230256   3.142   0.506   4.527  0.2553 -0.0138  0.2320
 2922TIP3    H130257   3.075   0.559   4.484  1.0767  0.9530  0.1123
 2922TIP3    H230258   3.134   0.528   4.620  0.4588  0.1758  0.2063
 2923TIP3   OH230259   5.007   2.783   2.221  0.6996  0.9405  0.1935
 2923TIP3    H130260   5.027   2.826   2.304  3.7477 -0.5025  0.3746
 2923TIP3    H230261   5.074   2.714   2.214 -0.8634 -0.4533 -2.3990
 2924TIP3   OH230262   6.316   4.862  12.115  0.3559  0.6523  0.3673
 2924TIP3    H130263   6.370   4.935  12.146 -0.7577  0.5724  2.7444
 2924TIP3    H230264   6.228   4.899  12.106  0.4761  0.4690 -2.1781
 2925TIP3   OH230265   4.102   6.227  17.110 -0.0850 -0.9166 -0.4191
 2925TIP3    H130266   4.010   6.253  17.107  0.0449 -0.5445 -1.4419
 2925TIP3    H230267   4.150   6.309  17.104  0.3213 -1.1375 -0.2248
 2926TIP3   OH230268   6.715   1.640   3.727 -0.3504 -0.5326 -0.6515
 2926TIP3    H130269   6.776   1.575   3.694  1.6911  0.2676  1.2969
 2926TIP3    H230270   6.681   1.601   3.808 -2.8426 -1.1393 -1.8851
 2927TIP3   OH230271   6.601   3.425  16.420  0.5959 -0.4570 -0.1103
 2927TIP3    H130272   6.520   3.386  16.453 -1.0480  1.9733 -0.9516
 2927TIP3    H230273   6.664   3.414  16.491 -0.8711 -1.1947  1.1410
 2928TIP3   OH230274   6.379   3.042  12.104 -0.0996  0.1006  0.5972
 2928TIP3    H130275   6.347   3.082  12.023 -0.5698 -0.8492  0.3048
 2928TIP3    H230276   6.373   3.113  12.169 -1.7852  0.2848  0.2951
 2929TIP3   OH230277   4.052   6.657   5.675 -0.3672  0.1039  0.0054
 2929TIP3    H130278   4.056   6.642   5.770  1.0164  0.5213  0.0339
 2929TIP3    H230279   3.974   6.610   5.647 -1.0286  0.3173  1.4133
 2930TIP3   OH230280   1.531   1.393  11.834  0.2508  0.0192  0.1851
 2930TIP3    H130281   1.542   1.481  11.796 -0.6550  0.6618  1.3526
 2930TIP3    H230282   1.582   1.396  11.915 -2.6931  0.8092  2.2037
 2931TIP3   OH230283   1.053   2.244  13.092  0.1269  0.5211 -0.2269
 2931TIP3    H130284   0.968   2.203  13.108  0.3916 -0.2652 -0.7741
 2931TIP3    H230285   1.033   2.318  13.035 -0.1350  0.0214 -0.7942
 2932TIP3   OH230286   2.970   2.573   3.383 -0.4632 -0.4553 -0.3583
 2932TIP3    H130287   2.922   2.566   3.466 -0.2495 -0.8844 -0.2682
 2932TIP3    H230288   3.060   2.550   3.406 -0.4991 -1.0477 -0.8063
 2933TIP3   OH230289   1.488   3.510   4.335  0.2184 -0.0302  0.0108
 2933TIP3    H130290   1.567   3.494   4.282 -0.6347 -0.4676 -1.1700
 2933TIP3    H230291   1.521   3.516   4.425  1.6273  0.0371 -0.4777
 2934TIP3   OH230292   0.905   4.931   5.584  0.8017  0.3446 -0.2853
 2934TIP3    H130293   0.851   4.990   5.636 -0.6477  0.1020 -1.4475
 2934TIP3    H230294   0.887   4.844   5.619  0.2869  0.2431 -0.7982
 2935TIP3   OH230295   3.592   0.032  15.024  0.1100 -0.4089 -0.3434
 2935TIP3    H130296   3.574  -0.013  15.106 -1.2649 -0.6792 -0.7713
 2935TIP3    H230297   3.564  -0.029  14.956 -0.7800  0.6399 -0.9557
 2936TIP3   OH230298   1.188   6.060  13.450 -0.1299 -0.0242 -0.0213
 2936TIP3    H130299   1.118   6.118  13.419 -0.8500 -0.2742  1.0532
 2936TIP3    H230300   1.176   5.979  13.401  0.6857  0.6026 -1.3024
 2937TIP3   OH230301   5.014   6.347   5.331  0.4103 -0.4395 -0.2311
 2937TIP3    H130302   4.983   6.425   5.284 -1.2453 -0.4226  0.8200
 2937TIP3    H230303   4.994   6.365   5.423  0.3156 -1.9610  0.0618
 2938TIP3   OH230304   6.368   0.382   2.193 -0.0037 -0.6404 -0.2132
 2938TIP3    H130305   6.294   0.367   2.252  0.2245 -0.9824 -0.0098
 2938TIP3    H230306   6.406   0.295   2.179  0.8891 -0.3616  0.3874
 2939TIP3   OH230307   5.742   3.268  14.479 -0.0786 -0.1527  0.0931
 2939TIP3    H130308   5.749   3.363  14.481 -1.3210  0.1059 -2.7328
 2939TIP3    H230309   5.659   3.249  14.522 -0.2030  0.1302 -0.0190
 2940TIP3   OH230310   2.043   2.663  13.348  0.2048  0.1682 -0.2474
 2940TIP3    H130311   2.100   2.627  13.280  1.9352  1.9564  0.1463
 2940TIP3    H230312   1.977   2.713  13.301  1.4274  1.4461 -0.6588
 2941TIP3   OH230313   2.917   0.810   3.355 -0.1144  0.8927  0.0906
 2941TIP3    H130314   2.980   0.871   3.394  1.4264 -1.4985  1.6678
 2941TIP3    H230315   2.963   0.725   3.356 -2.6611 -0.5940 -0.5633
 2942TIP3   OH230316   4.106   3.297  15.782 -0.0481  0.1234  0.0955
 2942TIP3    H130317   4.050   3.269  15.710 -1.3225 -0.0078  1.0984
 2942TIP3    H230318   4.184   3.242  15.776  0.3799  0.8527 -1.8101
 2943TIP3   OH230319   3.546   4.087   5.890 -0.0489  0.4726  0.1289
 2943TIP3    H130320   3.631   4.089   5.935 -1.1077  0.9012  2.2831
 2943TIP3    H230321   3.529   4.179   5.868  0.5478  0.2377 -1.3565
 2944TIP3   OH230322   3.663   3.050  11.708  0.0908  0.1204  0.4479
 2944TIP3    H130323   3.655   2.955  11.714  0.2450  0.1373  1.0033
 2944TIP3    H230324   3.575   3.083  11.728 -0.2480  0.0616 -0.8915
 2945TIP3   OH230325   1.282   1.421   3.586 -0.1024  0.0240  0.4376
 2945TIP3    H130326   1.188   1.408   3.599  0.2690 -0.9969  2.5856
 2945TIP3    H230327   1.324   1.361   3.648  2.0214 -0.8502 -1.6908
 2946TIP3   OH230328   4.256   6.344   0.956  1.1998 -0.4018 -0.2186
 2946TIP3    H130329   4.205   6.265   0.934  1.6778 -1.2561  1.5300
 2946TIP3    H230330   4.203   6.389   1.022  1.3225  0.3209 -0.6052
 2947TIP3   OH230331   3.282   1.619  12.632  0.2997 -0.3793  0.6302
 2947TIP3    H130332   3.338   1.651  12.561 -1.1506  0.3849 -0.2158
 2947TIP3    H230333   3.294   1.683  12.702 -2.1366  1.9052 -0.8408
 2948TIP3   OH230334   4.170   5.383  10.762  0.0593  0.8486  0.0987
 2948TIP3    H130335   4.141   5.466  10.800 -1.4794  1.0089 -1.3221
 2948TIP3    H230336   4.225   5.408  10.688  0.5377  0.5795  0.3589
 2949TIP3   OH230337   1.148   3.240   5.070 -0.1156 -0.3538  0.3144
 2949TIP3    H130338   1.197   3.242   4.988  1.1684 -2.8895  0.9084
 2949TIP3    H230339   1.059   3.269   5.046  0.8702  1.4958 -1.3805
 2950TIP3   OH230340   2.035   0.800  15.341 -0.0942  0.2861  0.3312
 2950TIP3    H130341   1.968   0.744  15.380 -1.8064  1.0847 -1.2834
 2950TIP3    H230342   2.056   0.757  15.258 -0.2357  1.1343 -0.1661
 2951TIP3   OH230343   5.579   4.948  16.119  0.3322 -0.1631 -0.2700
 2951TIP3    H130344   5.615   4.913  16.201 -0.7565  0.5461  0.5323
 2951TIP3    H230345   5.485   4.952  16.133  0.0123 -0.9229 -1.9242
 2952TIP3   OH230346   6.559   2.048  15.512 -0.3945 -0.1862 -0.3020
 2952TIP3    H130347   6.501   2.124  15.512 -0.6202 -0.3522 -1.0531
 2952TIP3    H230348   6.588   2.039  15.421  1.8061  0.6422  0.2447
 2953TIP3   OH230349   4.869   3.712  11.358 -0.2534  0.2985  0.7880
 2953TIP3    H130350   4.831   3.655  11.292 -0.8824  1.0314  0.5010
 2953TIP3    H230351   4.795   3.740  11.412 -0.0675  1.3945  0.4963
 2954TIP3   OH230352   3.242   5.993  11.798  0.4881  0.4837 -0.3675
 2954TIP3    H130353   3.287   6.029  11.875  1.3681 -0.2050 -0.5472
 2954TIP3    H230354   3.303   5.929  11.762 -0.7565 -0.7141 -0.4444
 2955TIP3   OH230355   2.900   4.187   3.741 -0.5439  0.0921 -0.3935
 2955TIP3    H130356   2.971   4.243   3.709  0.2011 -0.4287  0.3051
 2955TIP3    H230357   2.945   4.118   3.790 -1.5415 -0.2416  0.0630
 2956TIP3   OH230358   0.874   0.428  13.499 -0.4520 -0.3936 -0.2640
 2956TIP3    H130359   0.888   0.336  13.479 -0.3153 -0.6933  1.0938
 2956TIP3    H230360   0.781   0.443  13.481 -0.3520 -0.6457 -1.0121
 2957TIP3   OH230361   1.323   5.441   0.943 -1.4531 -0.1549  0.1912
 2957TIP3    H130362   1.237   5.472   0.915 -1.7825  0.2836  1.6096
 2957TIP3    H230363   1.332   5.354   0.904 -2.4813 -0.1566 -0.0586
 2958TIP3   OH230364   6.045   6.311   2.123  0.0550 -0.2748  0.3294
 2958TIP3    H130365   6.119   6.369   2.107 -0.8717  0.7384 -0.5433
 2958TIP3    H230366   6.021   6.280   2.036  0.2398 -1.6091  0.7441
 2959TIP3   OH230367   3.622   3.647   6.205  0.0103  0.3369  0.1324
 2959TIP3    H130368   3.551   3.687   6.154 -1.5172  1.1466  2.7126
 2959TIP3    H230369   3.701   3.689   6.173 -1.0289  1.7386 -0.6908
 2960TIP3   OH230370   6.388   5.350  14.602 -0.4712  0.1670  0.0546
 2960TIP3    H130371   6.467   5.296  14.596  0.1068  0.9281  0.7659
 2960TIP3    H230372   6.321   5.298  14.556  0.4603 -0.4197 -0.6889
 2961TIP3   OH230373   5.217   6.622   0.445  0.5850  0.1024 -0.1132
 2961TIP3    H130374   5.197   6.550   0.385 -0.1480 -0.2086  0.4923
 2961TIP3    H230375   5.162   6.606   0.521  0.0731  1.5448 -0.1456
 2962TIP3   OH230376   2.043   5.194  11.145  0.4560  0.4001 -0.5654
 2962TIP3    H130377   2.133   5.174  11.174 -0.7542 -2.7315  1.5707
 2962TIP3    H230378   2.041   5.169  11.053  1.5962 -0.1154 -0.4683
 2963TIP3   OH230379   5.710   1.149   1.347  0.2098 -0.4755  0.1214
 2963TIP3    H130380   5.668   1.063   1.349  1.5158 -1.1210  1.0709
 2963TIP3    H230381   5.795   1.133   1.306 -0.1195  0.6715 -1.0936
 2964TIP3   OH230382   2.224   6.031   3.548 -0.0887 -0.5683  0.4877
 2964TIP3    H130383   2.262   6.051   3.634 -0.9326  2.3861  0.3085
 2964TIP3    H230384   2.297   6.038   3.487 -0.3208  2.6521  0.4275
 2965TIP3   OH230385   4.575   4.336  15.266  0.0476  0.7265  0.0413
 2965TIP3    H130386   4.512   4.372  15.203 -1.9997  0.4197  1.8270
 2965TIP3    H230387   4.525   4.274  15.318  2.0781 -0.2332  0.9680
 2966TIP3   OH230388   5.211   0.050  16.993  0.4935  0.6629  0.2550
 2966TIP3    H130389   5.223   0.015  16.905 -0.9662 -0.9143  0.6405
 2966TIP3    H230390   5.143   0.117  16.983 -0.0387  0.1263  0.2568
 2967TIP3   OH230391   3.137   6.717  13.647  0.5777  0.2904  0.0997
 2967TIP3    H130392   3.215   6.695  13.698  2.0280 -0.1511 -2.1635
 2967TIP3    H230393   3.138   6.656  13.574 -1.7331  0.5263 -0.2073
 2968TIP3   OH230394   5.696   3.389  11.411 -0.7792  0.4825  0.7731
 2968TIP3    H130395   5.657   3.353  11.331  0.6364  0.5265  0.0325
 2968TIP3    H230396   5.652   3.342  11.482 -0.9066 -0.7628 -0.0819
 2969TIP3   OH230397   1.492   4.460   3.026 -0.0462 -0.2395 -0.2240
 2969TIP3    H130398   1.438   4.458   2.947  0.2504  0.2683 -0.4473
 2969TIP3    H230399   1.547   4.382   3.020 -0.3817 -0.4752 -0.2610
 2970TIP3   OH230400   6.224   1.751  12.128  0.1799 -0.3363  0.0991
 2970TIP3    H130401   6.222   1.767  12.034  0.3341 -1.3195 -0.0774
 2970TIP3    H230402   6.134   1.764  12.157  0.3666  1.2833  0.0608
 2971TIP3   OH230403   4.719   5.368  16.624  0.4314  0.5695 -0.1391
 2971TIP3    H130404   4.627   5.364  16.599  0.5373 -1.6558 -0.3427
 2971TIP3    H230405   4.719   5.345  16.717  0.7728  0.7274 -0.0971
 2972TIP3   OH230406   2.625   6.314   1.545 -0.4670  0.4872 -1.1968
 2972TIP3    H130407   2.612   6.376   1.617  1.1096 -0.0490 -0.4081
 2972TIP3    H230408   2.594   6.360   1.467  1.4476  2.6513 -0.7790
 2973TIP3   OH230409   4.643   2.718   5.661 -0.0181 -0.1750  0.2328
 2973TIP3    H130410   4.630   2.658   5.734  0.6996  0.5847  1.0006
 2973TIP3    H230411   4.660   2.803   5.702  2.5381 -0.1349 -0.7590
 2974TIP3   OH230412   6.360   6.711  12.060 -0.2380 -0.1513  0.3423
 2974TIP3    H130413   6.325   6.723  11.972  2.3992  3.5244 -0.4413
 2974TIP3    H230414   6.333   6.791  12.107  1.1805 -0.4976  1.8024
 2975TIP3   OH230415   6.559   1.399   1.811 -0.0967 -0.1174  0.6348
 2975TIP3    H130416   6.642   1.437   1.784 -0.1082  0.5858  1.5575
 2975TIP3    H230417   6.548   1.425   1.902 -0.5569 -1.5653  1.0328
 2976TIP3   OH230418   6.708   0.654   3.621 -0.6576  0.3186  0.1189
 2976TIP3    H130419   6.797   0.621   3.610 -0.1166  1.5030  0.8231
 2976TIP3    H230420   6.656   0.576   3.642  0.2109 -0.3738 -0.2315
 2977TIP3   OH230421   1.509   0.964  10.316 -0.1220  0.1385  1.3482
 2977TIP3    H130422   1.419   0.932  10.307 -0.2719  0.7333  0.6882
 2977TIP3    H230423   1.514   0.995  10.407 -0.3889 -0.4625  1.5769
 2978TIP3   OH230424   2.293   6.602  14.248 -0.4173 -0.4038  0.7108
 2978TIP3    H130425   2.368   6.543  14.248 -0.4087 -0.3957  0.4224
 2978TIP3    H230426   2.241   6.574  14.172  0.1870  0.7167 -0.1429
 2979TIP3   OH230427   0.094   6.666  12.826  0.1138  0.7298  0.2890
 2979TIP3    H130428   0.015   6.668  12.772 -0.0617  0.3365  0.5212
 2979TIP3    H230429   0.100   6.574  12.855  0.4802  0.8278  0.5243
 2980TIP3   OH230430   2.789   0.122  14.606  0.0563 -0.3114  0.1406
 2980TIP3    H130431   2.826   0.185  14.668  0.0970  0.3918 -0.5870
 2980TIP3    H230432   2.695   0.133  14.614  0.0593  1.1614 -1.2668
 2981TIP3   OH230433   2.499   1.546  14.536 -0.6521  0.3305 -0.1315
 2981TIP3    H130434   2.442   1.573  14.609  2.6311  1.3631  2.2838
 2981TIP3    H230435   2.548   1.472  14.571  0.5502  0.4113 -1.5770
 2982TIP3   OH230436   6.535   0.886  15.457 -0.0676  0.5967  0.3829
 2982TIP3    H130437   6.592   0.817  15.489 -1.0395  0.4120  1.7935
 2982TIP3    H230438   6.569   0.906  15.369  1.2241 -0.5150  0.5919
 2983TIP3   OH230439   2.963   0.225  11.297 -0.3021 -0.1612  0.2562
 2983TIP3    H130440   3.045   0.224  11.249 -0.3996  0.0148  0.0828
 2983TIP3    H230441   2.907   0.284  11.247 -0.2505  0.3950  0.8403
 2984TIP3   OH230442   0.482   4.344   4.434 -0.3019  0.8051  0.0692
 2984TIP3    H130443   0.424   4.410   4.397 -0.7464 -0.0542 -0.8138
 2984TIP3    H230444   0.570   4.380   4.424 -0.3850  0.5352 -2.0415
 2985TIP3   OH230445   4.931   4.797  11.812 -0.3828  0.4093  0.5770
 2985TIP3    H130446   4.936   4.712  11.768  1.1653 -0.1767  1.7895
 2985TIP3    H230447   4.897   4.777  11.899  2.0316  0.6460  1.6540
 2986TIP3   OH230448   3.743   2.135  14.819 -0.0142  0.0707  0.1714
 2986TIP3    H130449   3.693   2.054  14.830 -0.9309  0.6440  0.3170
 2986TIP3    H230450   3.831   2.106  14.796 -0.1443 -0.9785  0.9365
 2987TIP3   OH230451   4.417   2.026   0.165 -0.0759 -0.1872 -0.3046
 2987TIP3    H130452   4.497   2.071   0.191 -0.1601 -0.2785  0.1193
 2987TIP3    H230453   4.445   1.966   0.096  0.0233  0.5620 -0.9358
 2988TIP3   OH230454   2.700   4.107  12.093 -0.1097  0.1584  0.8560
 2988TIP3    H130455   2.688   4.020  12.054 -0.5888  0.0515  1.2375
 2988TIP3    H230456   2.663   4.168  12.029 -0.7875 -0.0079  1.0869
 2989TIP3   OH230457   4.242   2.008   0.896 -0.4358  0.0238 -0.2004
 2989TIP3    H130458   4.325   2.052   0.874  0.0873 -0.2288  1.1760
 2989TIP3    H230459   4.182   2.079   0.920 -0.3663  0.1533 -0.4066
 2990TIP3   OH230460   1.890   2.159  15.674 -0.6904 -0.0516  0.0310
 2990TIP3    H130461   1.950   2.196  15.739 -0.9476  1.1108 -0.3700
 2990TIP3    H230462   1.941   2.157  15.593 -0.5239 -1.0442  0.1578
 2991TIP3   OH230463   0.447   5.259  16.900 -0.2481 -0.3459  0.2613
 2991TIP3    H130464   0.521   5.311  16.933  0.1152 -0.0520 -0.9445
 2991TIP3    H230465   0.409   5.314  16.831 -1.4143 -0.6297  0.6628
 2992TIP3   OH230466   4.997   4.202   2.572 -0.2226  1.2033 -0.4354
 2992TIP3    H130467   5.044   4.160   2.500  1.5563 -0.8873  1.7797
 2992TIP3    H230468   4.934   4.136   2.601  0.4505  1.1927  1.1240
 2993TIP3   OH230469   5.363   6.576  15.115 -0.1414 -0.3647 -0.0137
 2993TIP3    H130470   5.326   6.511  15.056  1.5086  0.1454 -1.7229
 2993TIP3    H230471   5.294   6.643  15.123 -0.7631 -0.9228 -0.5695
 2994TIP3   OH230472   1.719   0.451   0.743 -0.7350  0.1521  0.0808
 2994TIP3    H130473   1.642   0.404   0.775 -0.3644 -0.3597  0.2285
 2994TIP3    H230474   1.777   0.383   0.710 -0.8538  0.6211 -1.1448
 2995TIP3   OH230475   4.723   0.805   3.940  0.2202  0.0599 -0.4186
 2995TIP3    H130476   4.712   0.752   4.019  0.1181 -0.0958 -0.5371
 2995TIP3    H230477   4.794   0.866   3.963  1.7631 -1.4333 -0.9415
 2996TIP3   OH230478   2.608   5.540  11.968 -0.3850  0.0869  0.0523
 2996TIP3    H130479   2.585   5.560  12.059 -1.0037  2.2161 -0.5291
 2996TIP3    H230480   2.566   5.455  11.951  0.1760 -0.5971  1.8793
 2997TIP3   OH230481   4.066   0.605  14.738  0.0258  0.3596  0.8025
 2997TIP3    H130482   4.087   0.576  14.648 -1.5891 -2.2953  1.1760
 2997TIP3    H230483   3.979   0.643  14.731 -0.0636  0.2326  1.2345
 2998TIP3   OH230484   6.208   6.637   4.444 -0.1169  0.0382 -0.6440
 2998TIP3    H130485   6.225   6.698   4.372  0.1774  0.8203  0.0695
 2998TIP3    H230486   6.113   6.638   4.454 -0.0836  0.7195 -0.3549
 2999TIP3   OH230487   3.113   6.514  14.116 -0.3145  0.2071 -0.1099
 2999TIP3    H130488   3.063   6.588  14.150  2.6919  0.7364  3.9177
 2999TIP3    H230489   3.066   6.437  14.145 -0.3328  0.6634  1.1352
 3000TIP3   OH230490   2.633   3.620   1.019 -0.0344 -0.0013 -0.1103
 3000TIP3    H130491   2.545   3.583   1.015 -0.8286  1.7152  0.5213
 3000TIP3    H230492   2.666   3.595   1.105  1.1531 -2.7625 -1.2487
 3001TIP3   OH230493   2.667   4.369  13.966  0.4666  0.4857 -0.3981
 3001TIP3    H130494   2.722   4.401  14.037  0.0473  0.4978 -0.0693
 3001TIP3    H230495   2.677   4.273  13.969 -1.6553  0.2373  1.4924
 3002TIP3   OH230496   2.920   2.667   1.273  0.0259 -0.3106  0.1341
 3002TIP3    H130497   3.005   2.655   1.314 -0.2402 -1.8246  0.2927
 3002TIP3    H230498   2.937   2.725   1.199  1.6146 -2.2230 -1.0955
 3003TIP3   OH230499   4.362   1.304   3.698 -0.1522 -0.4932  0.1814
 3003TIP3    H130500   4.447   1.346   3.688 -1.1295  1.7142  0.5783
 3003TIP3    H230501   4.362   1.272   3.788  0.1742 -0.2977  0.2548
 3004TIP3   OH230502   2.361   6.212  16.494 -0.3889 -0.3686  0.3720
 3004TIP3    H130503   2.456   6.216  16.489 -0.3500 -2.1896 -1.7322
 3004TIP3    H230504   2.341   6.118  16.492 -2.2089 -0.0874  2.1651
 3005TIP3   OH230505   2.973   4.357   3.383 -0.5808  0.0452  0.2693
 3005TIP3    H130506   3.029   4.378   3.458  0.6918 -0.9871 -0.3545
 3005TIP3    H230507   3.031   4.358   3.308 -1.7668  0.6692 -0.6698
 3006TIP3   OH230508   4.163   1.669   2.711 -0.0640  0.6978 -0.1750
 3006TIP3    H130509   4.221   1.725   2.659 -1.1611  1.3823 -0.6781
 3006TIP3    H230510   4.136   1.724   2.785 -0.7677  0.6918 -0.4192
 3007TIP3   OH230511   4.647   6.714   3.849 -0.1537  0.1458  0.0111
 3007TIP3    H130512   4.605   6.719   3.763 -0.9617 -0.3250  0.3605
 3007TIP3    H230513   4.588   6.658   3.901  0.9738 -0.6500  0.4800
 3008TIP3   OH230514   6.649   4.931   2.780 -0.3154  0.3848 -0.3099
 3008TIP3    H130515   6.643   5.023   2.808  0.9703 -0.0110  1.4633
 3008TIP3    H230516   6.729   4.927   2.728  0.0196  0.1439  0.2162
 3009TIP3   OH230517   0.722   5.300  14.319 -0.0636  0.0744 -0.0952
 3009TIP3    H130518   0.628   5.286  14.308 -0.2125 -0.5480  1.6637
 3009TIP3    H230519   0.758   5.213  14.333  0.4982  0.4641  1.0247
 3010TIP3   OH230520   2.146   5.178   1.169 -0.3172 -0.6144 -0.8290
 3010TIP3    H130521   2.215   5.243   1.180 -0.3225 -0.5498 -1.1786
 3010TIP3    H230522   2.171   5.129   1.091 -0.9471 -0.2371 -1.2739
 3011TIP3   OH230523   2.903   3.192  11.858 -0.4342 -0.5358 -0.6570
 3011TIP3    H130524   2.852   3.126  11.810 -0.1414 -0.1326 -1.5363
 3011TIP3    H230525   2.902   3.269  11.802 -0.4571  0.0979  0.1980
 3012TIP3   OH230526   6.706   0.923  11.171 -0.2313 -0.2490 -0.3966
 3012TIP3    H130527   6.671   0.980  11.103  0.9308  0.0223 -0.7962
 3012TIP3    H230528   6.796   0.955  11.185  0.0889 -1.3154  0.1169
 3013TIP3   OH230529   6.644   2.340  13.783  0.0051 -0.5792 -0.3664
 3013TIP3    H130530   6.697   2.355  13.705  0.9373 -1.6354  0.0294
 3013TIP3    H230531   6.703   2.358  13.856 -1.3288  2.0096  0.1591
 3014TIP3   OH230532   4.281   4.881  14.413  0.2397  0.2312 -0.0083
 3014TIP3    H130533   4.318   4.819  14.476 -1.7620 -1.0286  0.0314
 3014TIP3    H230534   4.307   4.847  14.327  0.9882  0.6173  0.0556
 3015TIP3   OH230535   6.301   1.726   3.874  0.4959 -0.2709 -0.3426
 3015TIP3    H130536   6.255   1.766   3.800  0.0477  1.0579  0.6090
 3015TIP3    H230537   6.386   1.770   3.876 -0.5233  1.7861  1.5656
 3016TIP3   OH230538   2.515   3.981  11.054  0.0296 -0.0261  0.6531
 3016TIP3    H130539   2.497   3.955  10.964  1.7418  1.1574 -0.0874
 3016TIP3    H230540   2.473   4.067  11.062  0.3220  0.1064  0.7929
 3017TIP3   OH230541   6.495   5.930  15.461 -0.3576 -0.0459 -0.7083
 3017TIP3    H130542   6.576   5.900  15.501 -1.1313 -1.2207  0.0582
 3017TIP3    H230543   6.442   5.851  15.453 -1.4642  0.7080 -1.1012
 3018TIP3   OH230544   2.501   0.827  15.516  0.0272  0.4625 -0.3538
 3018TIP3    H130545   2.549   0.910  15.522 -0.9228  0.9498  1.2236
 3018TIP3    H230546   2.410   0.853  15.502 -0.1029 -0.3819 -1.1854
 3019TIP3   OH230547   4.858   6.372  15.045  0.6342 -0.4011  0.0907
 3019TIP3    H130548   4.878   6.352  14.953  0.7210  0.7961 -0.1595
 3019TIP3    H230549   4.847   6.467  15.048  0.8307 -0.3958  1.3625
 3020TIP3   OH230550   0.353   4.305   4.670 -0.2120 -0.5699 -0.6279
 3020TIP3    H130551   0.409   4.332   4.597 -0.2365  0.7464 -0.1805
 3020TIP3    H230552   0.414   4.289   4.742 -0.1711 -2.0360 -0.9438
 3021TIP3   OH230553   0.243   5.041  12.877 -0.0079 -0.4045  0.2313
 3021TIP3    H130554   0.180   5.083  12.819 -0.2895  0.8522  1.4061
 3021TIP3    H230555   0.317   5.101  12.879 -0.7481  0.5148  2.5703
 3022TIP3   OH230556   0.459   0.955  17.141  0.9022  0.2700 -0.3839
 3022TIP3    H130557   0.512   0.887  17.099  0.1325 -0.6340  0.0505
 3022TIP3    H230558   0.472   1.033  17.087 -0.4584 -0.9666 -2.6625
 3023TIP3   OH230559   6.065   5.859   3.342 -0.3053 -0.0593  0.3121
 3023TIP3    H130560   6.091   5.899   3.425 -0.3947 -0.7797  0.6945
 3023TIP3    H230561   5.980   5.819   3.361 -0.2932 -0.2882 -0.1126
 3024TIP3   OH230562   0.471   3.407  15.167  0.2306  0.2070  0.0668
 3024TIP3    H130563   0.429   3.333  15.210 -0.0288  0.0826 -0.3960
 3024TIP3    H230564   0.512   3.457  15.238 -1.5334  0.8700  0.6624
 3025TIP3   OH230565   2.245   6.008   2.442 -0.2454 -0.3173 -0.6107
 3025TIP3    H130566   2.151   6.026   2.438 -0.0766  0.5515 -1.0247
 3025TIP3    H230567   2.276   6.062   2.515 -0.0734 -0.6634 -0.4233
 3026TIP3   OH230568   3.536   1.946  11.297 -0.4696 -0.3926 -0.2008
 3026TIP3    H130569   3.500   2.017  11.244  0.7925 -0.1311 -0.7372
 3026TIP3    H230570   3.627   1.939  11.270  0.0061 -0.7877  1.3906
 3027TIP3   OH230571   1.429   1.517   3.198  0.2936  0.8764  0.0615
 3027TIP3    H130572   1.498   1.469   3.245 -0.8123 -3.3758 -2.2078
 3027TIP3    H230573   1.350   1.501   3.249 -0.1110  0.1366 -0.7798
 3028TIP3   OH230574   0.333   1.060  11.371 -0.9738  0.4241  0.6116
 3028TIP3    H130575   0.326   1.026  11.460  1.0646 -1.6033  0.0856
 3028TIP3    H230576   0.426   1.083  11.361 -0.7034 -1.2863 -1.5671
 3029TIP3   OH230577   0.833   4.172  13.387  0.5519 -0.4553  0.0704
 3029TIP3    H130578   0.922   4.170  13.353  0.1479 -0.9122 -0.9737
 3029TIP3    H230579   0.794   4.089  13.359 -0.1427 -0.3482  0.6892
 3030TIP3   OH230580   2.304   4.597  14.355  0.3846 -0.3127 -0.2890
 3030TIP3    H130581   2.371   4.584  14.422  0.3119 -0.7502 -0.2996
 3030TIP3    H230582   2.350   4.585  14.272  0.2174 -0.9937 -0.2894
 3031TIP3   OH230583   2.248   6.658   0.665 -0.0177 -0.0208 -0.9189
 3031TIP3    H130584   2.341   6.640   0.677  0.4272  2.1080 -0.7235
 3031TIP3    H230585   2.241   6.688   0.575 -0.3611  0.5230 -0.7190
 3032TIP3   OH230586   0.771   6.819  16.032 -0.1706 -0.1128  0.1627
 3032TIP3    H130587   0.711   6.871  15.979 -1.3962 -0.2833  1.3445
 3032TIP3    H230588   0.820   6.884  16.083 -1.3081 -0.0430  1.2216
 3033TIP3   OH230589   0.964   0.677  11.238  0.3296 -0.4228 -0.2038
 3033TIP3    H130590   0.925   0.762  11.262 -0.0195 -0.8680  0.8643
 3033TIP3    H230591   0.992   0.689  11.148 -2.4198 -0.1092 -1.1107
 3034TIP3   OH230592   0.108   5.963   0.231  0.2922  0.7999  0.0832
 3034TIP3    H130593   0.052   5.973   0.155 -0.1138 -1.2918  0.0575
 3034TIP3    H230594   0.073   5.887   0.278  2.6606 -0.1691  0.4228
 3035TIP3   OH230595   3.251   3.761  11.065 -0.6123  0.1366  0.1512
 3035TIP3    H130596   3.297   3.679  11.083 -3.3831 -1.6795 -0.3051
 3035TIP3    H230597   3.237   3.759  10.970 -2.0607  0.3102  0.3401
 3036TIP3   OH230598   0.760   6.607   4.312 -0.7922  0.3795 -0.0510
 3036TIP3    H130599   0.679   6.560   4.292  0.4630 -1.8759 -0.1670
 3036TIP3    H230600   0.808   6.548   4.369  0.0074  2.4843  1.5565
 3037TIP3   OH230601   4.957   3.131  16.610  0.1927  0.1386  0.1775
 3037TIP3    H130602   4.871   3.112  16.648 -0.4210 -0.3798 -1.3908
 3037TIP3    H230603   4.961   3.227  16.606 -0.4537  0.1607 -0.0382
 3038TIP3   OH230604   4.743   0.097   2.093 -0.4954  0.2703 -0.0104
 3038TIP3    H130605   4.837   0.086   2.106 -0.6674 -1.3298  0.1314
 3038TIP3    H230606   4.704   0.077   2.178 -1.0027  0.1522 -0.2656
 3039TIP3   OH230607   5.241   6.718   5.477 -0.6039 -0.3656 -0.3636
 3039TIP3    H130608   5.158   6.763   5.465  0.0058  0.6645 -0.8626
 3039TIP3    H230609   5.263   6.683   5.391 -1.1258 -1.7457  0.0452
 3040TIP3   OH230610   4.166   5.446  15.443  0.1268 -0.0444  0.0167
 3040TIP3    H130611   4.085   5.488  15.414 -0.6852 -2.1921 -0.9640
 3040TIP3    H230612   4.173   5.367  15.391  2.8233 -0.0070  0.1624
 3041TIP3   OH230613   0.601   0.220  11.465  0.3274 -0.7032  0.7540
 3041TIP3    H130614   0.629   0.168  11.540  0.2571 -0.4865  0.9320
 3041TIP3    H230615   0.544   0.287  11.503  0.1881 -0.6707  0.4908
 3042TIP3   OH230616   0.233   4.627   6.330  0.3246 -0.2204 -0.1590
 3042TIP3    H130617   0.329   4.628   6.329  0.3884 -1.2182  1.2845
 3042TIP3    H230618   0.211   4.536   6.354 -0.9502  0.1687  0.1988
 3043TIP3   OH230619   6.763   2.124   0.580 -0.0831 -0.2683 -0.0909
 3043TIP3    H130620   6.836   2.137   0.519  2.5498  1.2098  3.0338
 3043TIP3    H230621   6.768   2.031   0.604  0.7008 -0.2125 -0.0153
 3044TIP3   OH230622   6.334   3.808   3.977 -0.1385  0.2152 -0.5463
 3044TIP3    H130623   6.388   3.733   4.001 -0.1732  0.2434 -0.3744
 3044TIP3    H230624   6.286   3.780   3.899  0.6523  0.4404 -1.1235
 3045TIP3   OH230625   1.461   0.157  16.451 -0.6229 -0.5676  0.0752
 3045TIP3    H130626   1.519   0.084  16.475 -1.6018 -1.5521 -0.4703
 3045TIP3    H230627   1.462   0.158  16.355  0.1052  0.7589  0.0708
 3046TIP3   OH230628   6.127   1.861  17.115  0.0507 -0.4029 -0.4059
 3046TIP3    H130629   6.089   1.784  17.074  0.3313 -1.2796  0.9146
 3046TIP3    H230630   6.222   1.846  17.111  0.1279  0.1268 -0.6109
 3047TIP3   OH230631   0.761   6.753  14.476 -0.0642  0.6767 -0.1010
 3047TIP3    H130632   0.741   6.664  14.504 -1.3000  0.8939 -0.2365
 3047TIP3    H230633   0.784   6.744  14.384  0.6661  0.4042  0.0946
 3048TIP3   OH230634   2.637   5.938  16.587  0.3841 -0.4526 -0.1178
 3048TIP3    H130635   2.569   5.945  16.655 -0.3529 -1.1515 -0.7661
 3048TIP3    H230636   2.717   5.968  16.631 -0.7229  2.7476  0.0019
 3049TIP3   OH230637   5.576   3.046  13.398  0.2911 -0.4258 -0.1948
 3049TIP3    H130638   5.484   3.021  13.405  0.0099  0.5779 -0.1941
 3049TIP3    H230639   5.624   2.965  13.416 -0.5320 -0.3853  2.5075
 3050TIP3   OH230640   2.933   6.407  15.857  0.2378 -0.2215 -0.0689
 3050TIP3    H130641   2.958   6.496  15.834 -0.8942  0.0820 -0.1907
 3050TIP3    H230642   2.873   6.417  15.932  1.7950 -1.0272  1.3461
 3051TIP3   OH230643   0.235   5.943  11.241  0.6400 -0.2225 -0.1413
 3051TIP3    H130644   0.292   5.893  11.183 -0.2703  0.1602 -1.4155
 3051TIP3    H230645   0.290   6.016  11.271  0.4155  1.1809 -2.7676
 3052TIP3   OH230646   0.131   2.230   2.151  0.3723 -0.3121  0.1909
 3052TIP3    H130647   0.055   2.284   2.128 -0.5983 -2.4383 -2.1070
 3052TIP3    H230648   0.093   2.152   2.192  1.3697 -1.0387 -0.2438
 3053TIP3   OH230649   0.842   6.616   5.696  0.1277  0.0145 -0.3869
 3053TIP3    H130650   0.831   6.562   5.774  1.4399 -0.0812 -0.2320
 3053TIP3    H230651   0.928   6.590   5.662 -1.4185 -1.7581 -3.2943
 3054TIP3   OH230652   3.642   5.825   3.316  0.5558  0.4188  0.3249
 3054TIP3    H130653   3.654   5.801   3.224  0.7050  0.1465  0.4127
 3054TIP3    H230654   3.635   5.920   3.315 -2.3196  0.2837 -0.2791
 3055TIP3   OH230655   2.502   3.822   3.647 -0.2952 -0.3757  0.4892
 3055TIP3    H130656   2.465   3.761   3.583  0.3007 -0.3663  0.1378
 3055TIP3    H230657   2.489   3.909   3.607  0.0504 -0.3682  0.3947
 3056TIP3   OH230658   2.005   5.716   0.373 -0.0507 -0.4914 -0.3463
 3056TIP3    H130659   1.956   5.643   0.411  0.5314 -0.5892  0.2286
 3056TIP3    H230660   1.964   5.730   0.287 -0.9092 -0.7418  0.0134
 3057TIP3   OH230661   6.736   3.341  11.326 -0.0850 -0.2157  0.7354
 3057TIP3    H130662   6.740   3.436  11.327  0.2066 -0.2259  0.5956
 3057TIP3    H230663   6.659   3.319  11.379 -0.3193  0.1034  0.5252
 3058TIP3   OH230664   3.580   3.509  13.347  0.5767  0.0826 -0.0377
 3058TIP3    H130665   3.536   3.428  13.372  1.3534 -0.8320 -1.4790
 3058TIP3    H230666   3.509   3.571  13.333 -0.1777 -0.8768 -0.6773
 3059TIP3   OH230667   5.906   2.404   3.117  0.0171 -0.2400  0.0194
 3059TIP3    H130668   5.949   2.336   3.168 -0.8907 -0.7940  0.0651
 3059TIP3    H230669   5.930   2.384   3.026  0.9967  0.2895  0.1520
 3060TIP3   OH230670   6.584   0.516   6.286  0.1109 -0.3352 -0.5794
 3060TIP3    H130671   6.670   0.533   6.324  0.9765 -1.7591 -1.8229
 3060TIP3    H230672   6.555   0.602   6.254  1.4175  0.0124 -0.8703
 3061TIP3   OH230673   4.660   3.115   1.550  0.1612 -0.3753  0.2075
 3061TIP3    H130674   4.598   3.074   1.490 -0.1086  3.8415 -2.8825
 3061TIP3    H230675   4.608   3.137   1.627 -0.6813 -1.8911  0.1072
 3062TIP3   OH230676   2.395   6.193   4.814 -0.4459  0.8505 -0.0634
 3062TIP3    H130677   2.341   6.272   4.808  0.9768  1.7755 -1.7025
 3062TIP3    H230678   2.485   6.226   4.817  0.1193 -0.6861  1.1271
 3063TIP3   OH230679   4.417   6.253   5.619  0.1046  0.0253 -0.1091
 3063TIP3    H130680   4.501   6.296   5.603  0.9078 -1.3867  0.0947
 3063TIP3    H230681   4.441   6.163   5.643 -1.4014  0.0209  1.5407
 3064TIP3   OH230682   2.523   6.182   1.119  0.1645  0.6531  0.0597
 3064TIP3    H130683   2.481   6.266   1.101  0.4548  0.4433 -1.7193
 3064TIP3    H230684   2.608   6.188   1.076 -0.2599 -0.9664 -1.0816
 3065TIP3   OH230685   6.019   2.148   4.763 -0.1518 -0.1399 -0.2140
 3065TIP3    H130686   5.932   2.188   4.771  0.0600 -0.0695  2.7472
 3065TIP3    H230687   6.049   2.137   4.853  4.4196  3.0889 -0.9776
 3066TIP3   OH230688   0.912   5.391  16.808  0.0332 -0.3164 -0.2754
 3066TIP3    H130689   0.847   5.393  16.879  0.2625 -0.1667 -0.0641
 3066TIP3    H230690   0.863   5.415  16.730 -0.4955 -1.6963 -0.3969
 3067TIP3   OH230691   1.744   3.383  14.328 -0.3463 -0.2967  0.0609
 3067TIP3    H130692   1.833   3.359  14.302 -0.3242  0.3660 -0.5181
 3067TIP3    H230693   1.752   3.411  14.419 -0.0509 -0.6872  0.1563
 3068TIP3   OH230694   0.829   3.824  14.995  0.3994  0.6070 -0.1451
 3068TIP3    H130695   0.910   3.803  15.041  0.4079 -1.0683 -0.8635
 3068TIP3    H230696   0.761   3.813  15.061  0.5715 -0.0263 -0.0673
 3069TIP3   OH230697   0.600   6.255  14.671 -0.0665 -0.6512  0.4783
 3069TIP3    H130698   0.554   6.172  14.682  0.5243 -1.0132  0.2845
 3069TIP3    H230699   0.677   6.248  14.727 -0.3506  0.0354  0.9652
 3070TIP3   OH230700   2.519   5.158  14.272  0.1553  0.1165  0.2174
 3070TIP3    H130701   2.450   5.092  14.280  0.8837 -0.7745 -0.6378
 3070TIP3    H230702   2.512   5.190  14.183  0.3671  0.5769  0.3625
 3071TIP3   OH230703   2.551   3.306   2.774 -0.2475  0.3828  0.5001
 3071TIP3    H130704   2.627   3.249   2.761  1.5063  2.5013  0.8835
 3071TIP3    H230705   2.558   3.336   2.865 -0.3376  2.2060 -0.0556
 3072TIP3   OH230706   3.973   2.620  14.514 -0.6192  0.2566  0.0202
 3072TIP3    H130707   4.039   2.615  14.584 -0.8190  1.1732  0.2844
 3072TIP3    H230708   4.011   2.678  14.449 -0.9312  0.3383 -0.0899
 3073TIP3   OH230709   4.300   6.780  14.549  0.0081 -0.1699  0.2204
 3073TIP3    H130710   4.252   6.863  14.542  2.0336  1.3843  2.6955
 3073TIP3    H230711   4.242   6.723  14.600 -1.7102 -0.6274 -2.1220
 3074TIP3   OH230712   1.752   2.455   5.374 -0.6984  0.3648 -0.0547
 3074TIP3    H130713   1.715   2.476   5.289 -3.0290 -2.4145  0.1604
 3074TIP3    H230714   1.726   2.528   5.430 -2.2985  0.4753 -0.9025
 3075TIP3   OH230715   4.924   6.052   3.688 -0.1698  0.0910  0.3611
 3075TIP3    H130716   4.928   6.064   3.593 -0.6338 -1.5953  0.1117
 3075TIP3    H230717   4.974   5.973   3.705  0.6367  0.8342  1.6488
 3076TIP3   OH230718   6.380   1.178  15.117 -0.2145  0.0263 -0.7949
 3076TIP3    H130719   6.295   1.190  15.074 -0.5445 -1.2047 -0.5251
 3076TIP3    H230720   6.414   1.267  15.128 -1.0263  0.4765 -1.7809
 3077TIP3   OH230721   1.972   2.494   1.188 -0.2666 -0.5676 -0.2707
 3077TIP3    H130722   1.893   2.518   1.139 -0.5618 -0.2207  0.3576
 3077TIP3    H230723   1.941   2.435   1.257  0.1414 -1.0459 -0.4941
 3078TIP3   OH230724   4.435   5.587  15.612 -0.3414  0.0568 -0.4729
 3078TIP3    H130725   4.514   5.592  15.664  0.9062 -0.6636 -2.1845
 3078TIP3    H230726   4.449   5.648  15.539 -0.5867 -1.2766 -1.7001
 3079TIP3   OH230727   5.505   1.229  14.523 -0.3050 -0.0532 -0.1245
 3079TIP3    H130728   5.440   1.164  14.497 -1.0420  0.6475 -0.0765
 3079TIP3    H230729   5.459   1.313  14.517  0.4770  0.4202  0.3000
 3080TIP3   OH230730   0.970   0.665   3.619 -0.3435 -0.2663 -0.6183
 3080TIP3    H130731   1.004   0.719   3.547 -0.4726  0.7670  0.0915
 3080TIP3    H230732   0.877   0.655   3.600 -0.0851 -1.3860 -1.4589
 3081TIP3   OH230733   3.317   4.896   1.269 -0.0394  1.2208  0.3243
 3081TIP3    H130734   3.363   4.920   1.189  0.5505 -1.0032 -0.0886
 3081TIP3    H230735   3.250   4.834   1.241 -0.3729  1.0312  1.4547
 3082TIP3   OH230736   4.549   0.139  12.244  0.7039  0.3248 -0.0997
 3082TIP3    H130737   4.625   0.086  12.224  1.1094  0.8438  0.0371
 3082TIP3    H230738   4.575   0.190  12.321  0.4516  0.9696 -0.4323
 3083TIP3   OH230739   0.629   4.294   5.387  0.2008 -0.1496  0.4967
 3083TIP3    H130740   0.593   4.289   5.475  0.0662  0.9663  0.5211
 3083TIP3    H230741   0.700   4.358   5.393 -0.7240  1.0059 -0.4889
 3084TIP3   OH230742   3.269   0.152  12.646  0.0150 -0.2172 -0.2806
 3084TIP3    H130743   3.339   0.093  12.673 -0.8407 -0.6330  1.1073
 3084TIP3    H230744   3.274   0.152  12.550 -0.5687 -3.3702 -0.4398
 3085TIP3   OH230745   0.619   3.150   1.371  1.0132 -0.1707 -0.7168
 3085TIP3    H130746   0.705   3.191   1.381  1.3976 -0.7055 -1.6584
 3085TIP3    H230747   0.558   3.211   1.414  1.8746  0.1062  0.1669
 3086TIP3   OH230748   6.300   3.042  14.343 -0.1027  0.0962 -0.7469
 3086TIP3    H130749   6.217   3.035  14.296 -0.0998  4.2535 -1.7294
 3086TIP3    H230750   6.297   3.127  14.386  3.1354 -0.1925  0.3251
 3087TIP3   OH230751   4.048   5.734  12.321  0.6750  0.0240 -0.1762
 3087TIP3    H130752   4.068   5.717  12.229 -0.1907  0.7056 -0.5049
 3087TIP3    H230753   4.115   5.797  12.349  1.7231 -1.1481  0.0458
 3088TIP3   OH230754   1.256   0.852  10.358  0.3204  0.4675 -0.2019
 3088TIP3    H130755   1.217   0.929  10.399  2.6144  2.1057 -0.8935
 3088TIP3    H230756   1.183   0.791  10.346 -1.7632  2.8430 -0.3765
 3089TIP3   OH230757   5.211   6.300   1.575  0.0622 -0.0433  0.2081
 3089TIP3    H130758   5.297   6.291   1.534  0.3297 -0.2250  0.7960
 3089TIP3    H230759   5.229   6.291   1.669 -0.6916 -0.7950  0.2880
 3090TIP3   OH230760   0.429   6.612  14.438  0.0095 -0.3087 -0.7736
 3090TIP3    H130761   0.520   6.621  14.466 -0.4795 -0.9152  1.1253
 3090TIP3    H230762   0.430   6.537  14.379  0.6242 -0.8445 -0.1008
 3091TIP3   OH230763   4.746   0.848  10.863  0.6143 -0.3916 -0.0177
 3091TIP3    H130764   4.663   0.839  10.909  0.3111 -2.1597 -0.8125
 3091TIP3    H230765   4.812   0.821  10.927  0.5527  0.5377  0.4559
 3092TIP3   OH230766   2.407   2.346   2.321 -0.0844 -0.2989  0.3182
 3092TIP3    H130767   2.453   2.292   2.256 -0.4056  0.6159 -0.7145
 3092TIP3    H230768   2.315   2.340   2.296 -0.0719  1.1762 -0.2205
 3093TIP3   OH230769   0.745   3.155   4.496  0.4915  0.3791 -0.0417
 3093TIP3    H130770   0.746   3.070   4.452  1.5406  0.4452 -0.1588
 3093TIP3    H230771   0.687   3.209   4.442 -1.5657 -0.7101  0.9417
 3094TIP3   OH230772   1.333   2.402   4.743 -0.0263 -0.0015  0.7240
 3094TIP3    H130773   1.322   2.324   4.688  3.2559 -0.2336  0.1827
 3094TIP3    H230774   1.335   2.474   4.680 -0.4735  0.2282  0.9732
 3095TIP3   OH230775   5.895   4.030  16.195 -0.2999  0.3305 -0.4457
 3095TIP3    H130776   5.803   4.037  16.217 -0.3701  2.3534 -1.1513
 3095TIP3    H230777   5.902   4.071  16.108  1.3927  1.1753  0.0408
 3096TIP3   OH230778   0.465   3.994   2.898  0.2271  0.0828 -0.4909
 3096TIP3    H130779   0.511   4.061   2.847  0.5323  0.9249  0.8457
 3096TIP3    H230780   0.535   3.946   2.942 -0.0705 -0.0079 -0.1153
 3097TIP3   OH230781   1.243   0.521  17.201 -0.1564  0.1042 -0.2004
 3097TIP3    H130782   1.205   0.501  17.286 -1.4578 -0.8900 -0.9835
 3097TIP3    H230783   1.235   0.616  17.193 -0.8214  0.1072  0.4140
 3098TIP3   OH230784   5.294   2.953   0.275 -0.4273 -0.1237 -0.0413
 3098TIP3    H130785   5.354   2.974   0.204 -1.4729 -1.0977 -1.2604
 3098TIP3    H230786   5.274   3.037   0.316  0.4101  0.4093 -0.6987
 3099TIP3   OH230787   5.924   2.577  15.511  0.0559 -0.3404  0.5419
 3099TIP3    H130788   5.864   2.644  15.545 -0.4817 -0.8604  0.6358
 3099TIP3    H230789   5.971   2.546  15.588 -0.2045 -0.5701  0.6109
 3100TIP3   OH230790   2.414   5.513   1.358 -0.1587  0.0145  1.1495
 3100TIP3    H130791   2.371   5.447   1.411  1.4188 -0.5246  1.8253
 3100TIP3    H230792   2.496   5.533   1.405  0.5360  0.6857 -0.2583
 3101TIP3   OH230793   4.883   0.305  12.394 -0.2482  0.2736  0.8819
 3101TIP3    H130794   4.923   0.219  12.413 -1.0342  0.1278  1.9959
 3101TIP3    H230795   4.792   0.295  12.421 -0.5935  1.1704  0.0872
 3102TIP3   OH230796   6.014   0.498  15.637 -0.5892  0.1874 -0.4767
 3102TIP3    H130797   6.020   0.523  15.729  0.7410 -0.2235 -0.4322
 3102TIP3    H230798   5.968   0.414  15.638  0.6183 -0.5040 -0.0313
 3103TIP3   OH230799   0.849   1.301  12.523 -1.3711  0.5216  0.2956
 3103TIP3    H130800   0.875   1.389  12.496  1.0738  1.5521  5.0667
 3103TIP3    H230801   0.931   1.255  12.539 -2.3366 -0.1162  4.6382
 3104TIP3   OH230802   4.921   0.153  11.541 -0.0213  0.3779  0.4476
 3104TIP3    H130803   4.832   0.160  11.575 -0.6661  0.1107 -1.1229
 3104TIP3    H230804   4.937   0.238  11.499  0.7150  0.6493  1.2345
 3105TIP3   OH230805   6.422   4.320  15.832  0.0625 -0.1847 -0.1545
 3105TIP3    H130806   6.421   4.361  15.745  0.8811 -1.3369 -0.7304
 3105TIP3    H230807   6.463   4.386  15.888 -1.7788  1.1622 -0.2911
 3106TIP3   OH230808   5.630   4.793   1.133 -0.0987  0.2852 -0.5257
 3106TIP3    H130809   5.542   4.785   1.170 -0.0804  0.9778 -0.3170
 3106TIP3    H230810   5.633   4.882   1.098  0.1612 -0.0834 -1.4806
 3107TIP3   OH230811   1.655   2.665  13.564 -0.0470  0.8779  0.0696
 3107TIP3    H130812   1.639   2.635  13.474  0.4326 -0.9134  0.5415
 3107TIP3    H230813   1.713   2.740  13.554  2.2909 -0.9213 -1.0759
 3108TIP3   OH230814   6.378   4.191  10.956  0.2467  0.1203  0.2141
 3108TIP3    H130815   6.349   4.142  10.879  0.2427  0.6439 -0.1266
 3108TIP3    H230816   6.388   4.126  11.025 -0.2328 -0.2789 -0.0976
 3109TIP3   OH230817   0.902   6.278   1.290  0.5302  0.1553  0.1446
 3109TIP3    H130818   0.845   6.204   1.270 -0.4277  1.0564 -0.5453
 3109TIP3    H230819   0.871   6.309   1.375  2.1037 -1.2951  1.3301
 3110TIP3   OH230820   2.935   3.877  16.544  0.1880  0.4563  0.1251
 3110TIP3    H130821   2.925   3.809  16.611  1.6469  2.3440  2.4072
 3110TIP3    H230822   2.880   3.949  16.574  0.9407  1.3739 -0.6379
 3111TIP3   OH230823   2.515   4.707  11.027 -0.1989  0.2072 -0.8810
 3111TIP3    H130824   2.605   4.737  11.015  0.0171 -0.1623 -0.2310
 3111TIP3    H230825   2.482   4.760  11.100  0.0768 -0.8839  0.0604
 3112TIP3   OH230826   1.169   0.251  12.125  0.2791 -0.2415 -0.3260
 3112TIP3    H130827   1.099   0.231  12.064  0.2240  0.9011 -0.6695
 3112TIP3    H230828   1.250   0.235  12.076  0.2719 -1.5356  0.0629
 3113TIP3   OH230829   2.986   4.109  14.916 -0.1342  0.2004 -0.0602
 3113TIP3    H130830   3.007   4.017  14.935  0.7674  0.3891 -0.1297
 3113TIP3    H230831   2.921   4.104  14.846 -0.6628 -0.3987  0.4491
 3114TIP3   OH230832   6.439   0.522  15.373  0.5410  0.5923 -0.1057
 3114TIP3    H130833   6.365   0.564  15.417  0.9860 -0.0804  1.3588
 3114TIP3    H230834   6.424   0.429  15.386  1.7376  0.4526  0.3887
 3115TIP3   OH230835   5.178   5.315  12.322  0.3270  0.2855  0.2513
 3115TIP3    H130836   5.245   5.276  12.377 -0.3837 -2.2512 -0.5129
 3115TIP3    H230837   5.225   5.348  12.245  0.8415 -0.1995  0.3546
 3116TIP3   OH230838   0.055   3.067  16.178 -0.0464  0.0288 -0.2818
 3116TIP3    H130839  -0.025   3.103  16.216  0.0447  1.0175 -0.9848
 3116TIP3    H230840   0.125   3.120  16.216  0.2540 -0.5977  0.0572
 3117TIP3   OH230841   0.641   2.847   4.569  0.6679 -0.3287 -0.2883
 3117TIP3    H130842   0.683   2.818   4.649 -1.3726  0.6061  1.2116
 3117TIP3    H230843   0.713   2.867   4.510  2.2813 -0.0728  1.6644
 3118TIP3   OH230844   2.493   4.466   3.559 -0.4205 -0.1201 -0.6358
 3118TIP3    H130845   2.486   4.470   3.463 -0.5757  1.1385 -0.5885
 3118TIP3    H230846   2.404   4.480   3.591  0.0501  2.7011 -0.2870
 3119TIP3   OH230847   5.856   5.644  17.093 -0.5216  0.4721 -0.4001
 3119TIP3    H130848   5.835   5.624  17.184  1.2105 -0.3418 -0.1497
 3119TIP3    H230849   5.907   5.725  17.097  0.0400  0.1283 -0.5915
 3120TIP3   OH230850   5.332   6.252   2.864  0.3806  0.0541 -0.4644
 3120TIP3    H130851   5.259   6.193   2.843 -0.6235  1.3262 -0.6464
 3120TIP3    H230852   5.352   6.232   2.956  0.4133 -0.9356 -0.6779
 3121TIP3   OH230853   1.753   4.257   3.691 -0.1452 -0.8394 -0.2033
 3121TIP3    H130854   1.663   4.290   3.700  0.8737  1.7832  1.6727
 3121TIP3    H230855   1.783   4.290   3.607 -0.7079 -1.2178 -0.5627
 3122TIP3   OH230856   6.350   1.081  14.033 -0.2548  0.4530 -0.4223
 3122TIP3    H130857   6.406   1.150  14.068 -1.3572  0.4105  1.5817
 3122TIP3    H230858   6.287   1.064  14.102 -0.3209 -2.2553 -1.0443
 3123TIP3   OH230859   5.742   1.268  12.963 -0.0062 -0.2552 -0.4648
 3123TIP3    H130860   5.673   1.289  13.025  0.9925 -0.4840  0.7662
 3123TIP3    H230861   5.733   1.333  12.894 -1.1951 -0.0485 -0.1382
 3124TIP3   OH230862   4.690   1.561  13.518 -0.1064  0.8001 -0.4707
 3124TIP3    H130863   4.608   1.517  13.493 -0.4054  1.1413 -0.1023
 3124TIP3    H230864   4.752   1.536  13.450 -0.6421  0.9107 -1.0027
 3125TIP3   OH230865   6.704   4.100  16.021 -0.2352  0.1286 -0.2396
 3125TIP3    H130866   6.661   4.106  16.107  0.8297 -2.8155  0.5983
 3125TIP3    H230867   6.719   4.007  16.008 -0.6613  0.4326 -3.8451
 3126TIP3   OH230868   4.769   0.234  13.372 -0.2316 -0.7188 -0.3353
 3126TIP3    H130869   4.847   0.212  13.321 -0.4460 -0.0756 -0.9440
 3126TIP3    H230870   4.705   0.167  13.347 -0.4750 -0.1570 -1.2380
 3127TIP3   OH230871   5.249   2.995   4.561  0.8624  0.0552  0.8539
 3127TIP3    H130872   5.188   2.954   4.623  1.4934 -0.5092  1.1164
 3127TIP3    H230873   5.248   3.088   4.583  0.2428  0.0242  0.9764
 3128TIP3   OH230874   1.091   5.302   1.802  0.3249  0.0545  0.2856
 3128TIP3    H130875   1.166   5.286   1.858 -0.0637  1.1140  1.1313
 3128TIP3    H230876   1.094   5.395   1.783 -0.4740  0.0080 -0.1310
 3129TIP3   OH230877   1.152   0.795   0.021 -0.2065  0.3953  0.0123
 3129TIP3    H130878   1.173   0.772   0.112  0.8880 -0.4436 -0.4304
 3129TIP3    H230879   1.056   0.802   0.020 -0.2325  0.5009  1.2389
 3130TIP3   OH230880   6.693   1.291   0.360  0.3077  0.3345  0.7892
 3130TIP3    H130881   6.757   1.257   0.297  1.4784  1.5065  1.3120
 3130TIP3    H230882   6.730   1.374   0.390 -1.2250  0.7975  1.4962
 3131TIP3   OH230883   3.996   1.025  11.935  0.6432  0.5855 -0.1450
 3131TIP3    H130884   3.939   1.085  11.887 -0.9761 -0.7807 -0.0039
 3131TIP3    H230885   3.945   0.945  11.945  3.0889 -1.2961 -1.3343
 3132TIP3   OH230886   6.186   0.737   1.387 -0.0182 -1.0133  0.6223
 3132TIP3    H130887   6.177   0.756   1.481  1.4966 -0.2722  0.6619
 3132TIP3    H230888   6.261   0.678   1.383  0.3874 -0.4550 -0.1698
 3133TIP3   OH230889   4.938   2.717  14.172 -0.2363 -0.6694  0.1665
 3133TIP3    H130890   4.882   2.640  14.158 -1.4836 -0.0363  1.3902
 3133TIP3    H230891   5.009   2.707  14.109 -2.0443 -1.2065 -1.9239
 3134TIP3   OH230892   6.496   3.775  12.515 -0.4572  0.0340 -0.2341
 3134TIP3    H130893   6.446   3.773  12.596  0.9242 -1.1605  0.6392
 3134TIP3    H230894   6.558   3.848  12.527 -1.2073  0.7929 -0.8485
 3135TIP3   OH230895   1.520   2.377   1.281 -0.7935  0.1801  0.2771
 3135TIP3    H130896   1.564   2.436   1.342 -0.8393  0.5076 -0.0077
 3135TIP3    H230897   1.588   2.315   1.254 -0.8847 -0.2554  1.0190
 3136TIP3   OH230898   5.653   0.913   0.876  1.2339  0.2825  0.5205
 3136TIP3    H130899   5.600   0.977   0.828  1.0438 -2.1114 -2.8644
 3136TIP3    H230900   5.600   0.890   0.952 -0.2810  1.5725 -0.0825
 3137TIP3   OH230901   4.269   3.400   0.556  0.4396  0.3449 -0.5049
 3137TIP3    H130902   4.190   3.437   0.517  0.7382 -0.2175 -1.7121
 3137TIP3    H230903   4.249   3.307   0.568  0.5385  0.4108  0.2365
 3138TIP3   OH230904   6.478   3.730   4.253 -0.3865  0.3755 -0.1291
 3138TIP3    H130905   6.513   3.713   4.166 -0.5383 -0.0502 -0.1067
 3138TIP3    H230906   6.421   3.806   4.241 -0.0333  0.6149 -0.3054
 3139TIP3   OH230907   2.886   5.130  15.628 -0.3068  0.7262  0.4522
 3139TIP3    H130908   2.821   5.079  15.676  2.3467 -1.2278  2.2347
 3139TIP3    H230909   2.838   5.164  15.552 -2.9552 -1.9974  0.7088
 3140TIP3   OH230910   3.533   1.853   1.396 -0.1179  0.2292 -0.1366
 3140TIP3    H130911   3.480   1.778   1.371  0.4345 -0.6044  1.1092
 3140TIP3    H230912   3.591   1.867   1.322  1.0225 -1.7579  0.3034
 3141TIP3   OH230913   2.979   0.573  12.800  0.1507 -0.5446  0.0885
 3141TIP3    H130914   3.019   0.499  12.754 -0.4847 -0.8743  0.0691
 3141TIP3    H230915   2.892   0.582  12.762  0.3784  0.5060 -0.2351
 3142TIP3   OH230916   3.543   0.949   3.239  0.1018 -0.1995  0.8019
 3142TIP3    H130917   3.565   1.030   3.194 -2.7675 -0.0421 -0.4929
 3142TIP3    H230918   3.570   0.880   3.178 -1.1236 -0.0604  0.0681
 3143TIP3   OH230919   2.671   4.962   2.256  0.2187  0.1481  0.0256
 3143TIP3    H130920   2.607   5.030   2.237 -0.0521 -0.2230 -0.4255
 3143TIP3    H230921   2.671   4.954   2.351  0.2638  0.7814  0.0823
 3144TIP3   OH230922   3.688   6.352  12.108 -0.0906  0.0749 -0.1155
 3144TIP3    H130923   3.675   6.283  12.173 -0.3657 -0.5017 -0.7689
 3144TIP3    H230924   3.782   6.368  12.108  0.1890 -1.3878 -1.0371
 3145TIP3   OH230925   2.929   0.336   4.368 -0.1220 -0.3907 -0.1306
 3145TIP3    H130926   2.919   0.430   4.384 -1.0618 -0.3558 -0.8393
 3145TIP3    H230927   3.023   0.324   4.354  0.1648  0.2452  1.1063
 3146TIP3   OH230928   0.372   6.302   0.567 -0.0324  0.4070  0.0492
 3146TIP3    H130929   0.394   6.273   0.655 -1.8962 -0.8705  0.1552
 3146TIP3    H230930   0.305   6.240   0.537 -1.3817  2.3616 -1.2215
 3147TIP3   OH230931   2.650   1.987   5.091  0.4681  1.0189 -0.4513
 3147TIP3    H130932   2.674   1.904   5.050  1.4282  0.9081  0.2940
 3147TIP3    H230933   2.632   2.046   5.018  1.3426  0.5942 -1.0216
 3148TIP3   OH230934   1.630   5.388  14.383  0.1488  0.2468  0.0397
 3148TIP3    H130935   1.671   5.333  14.450 -0.8008 -0.1296  0.3302
 3148TIP3    H230936   1.562   5.332  14.344  1.0225  0.2764 -1.6241
 3149TIP3   OH230937   4.861   4.710  10.970 -0.1311 -0.1519 -0.0960
 3149TIP3    H130938   4.909   4.788  10.941 -1.8875  0.8561 -0.4477
 3149TIP3    H230939   4.929   4.645  10.988  1.2727  0.7393 -1.9013
 3150TIP3   OH230940   1.726   0.065  14.373  0.0580  0.1353 -0.1988
 3150TIP3    H130941   1.751   0.059  14.465 -1.8572  1.5424  0.4953
 3150TIP3    H230942   1.763   0.148  14.343 -0.0699  0.1137 -0.4225
 3151TIP3   OH230943   4.067   1.735  13.943 -0.6880 -0.0338 -0.2804
 3151TIP3    H130944   4.091   1.826  13.925  0.0210 -0.2631 -0.5317
 3151TIP3    H230945   4.071   1.728  14.039  1.4268 -0.3539 -0.3439
 3152TIP3   OH230946   5.930   1.233  14.255 -0.5298 -0.2407 -0.6055
 3152TIP3    H130947   5.862   1.169  14.277 -1.2262  1.2308  1.9878
 3152TIP3    H230948   5.903   1.268  14.170 -1.4930 -1.6063 -0.8979
 3153TIP3   OH230949   2.640   2.446   5.284  0.0044  0.4855 -0.1371
 3153TIP3    H130950   2.616   2.428   5.193  0.3374 -0.1917 -0.1010
 3153TIP3    H230951   2.719   2.500   5.278  1.0040 -0.9091 -0.2840
 3154TIP3   OH230952   0.576   2.655   4.030 -0.3992 -0.4461  0.1007
 3154TIP3    H130953   0.648   2.669   4.091 -0.5589  0.0059  0.1861
 3154TIP3    H230954   0.499   2.687   4.076 -0.5978 -0.5735 -0.1394
 3155TIP3   OH230955   4.412   4.090  17.085  0.2072  0.5454  0.3842
 3155TIP3    H130956   4.363   4.031  17.028 -0.1748  2.3768 -1.2967
 3155TIP3    H230957   4.355   4.166  17.096  1.3367  1.3197  1.1147
 3156TIP3   OH230958   2.618   2.339   5.023  0.6748  0.0282  0.7545
 3156TIP3    H130959   2.631   2.428   4.991  1.7236  0.5150  2.3589
 3156TIP3    H230960   2.658   2.283   4.957  0.5308  0.7982  0.0088
 3157TIP3   OH230961   4.831   2.849  12.551 -0.7356 -0.6418 -0.2037
 3157TIP3    H130962   4.745   2.853  12.592 -0.2656 -0.6712  0.8037
 3157TIP3    H230963   4.817   2.886  12.464 -1.9150 -1.3194 -0.3282
 3158TIP3   OH230964   3.094   4.658   2.877 -0.2673 -0.1774  0.5190
 3158TIP3    H130965   3.004   4.656   2.844 -0.3628  1.2531  0.6137
 3158TIP3    H230966   3.148   4.649   2.798 -0.4815 -1.0410  0.4623
 3159TIP3   OH230967   3.663   6.546   3.104 -0.2319  0.1276 -0.2853
 3159TIP3    H130968   3.683   6.593   3.023  1.8114  0.2244  0.2248
 3159TIP3    H230969   3.741   6.557   3.158 -1.2214 -0.6494  1.3752
 3160TIP3   OH230970   0.887   3.467   0.636  0.2592 -0.1220  0.1102
 3160TIP3    H130971   0.910   3.484   0.728  0.3064  0.0808  0.0623
 3160TIP3    H230972   0.969   3.479   0.589  0.1614  0.1182 -0.0011
 3161TIP3   OH230973   2.462   6.722  12.588 -0.1045 -0.1996  0.5375
 3161TIP3    H130974   2.549   6.757  12.570 -0.5870  0.8996  0.2370
 3161TIP3    H230975   2.416   6.728  12.504 -0.7667  0.1514  0.9112
 3162TIP3   OH230976   2.468   5.759   3.902 -0.0713 -0.0023 -0.8220
 3162TIP3    H130977   2.378   5.792   3.900  0.3336  1.1904 -0.6141
 3162TIP3    H230978   2.467   5.681   3.847 -1.7277 -1.3580  1.0152
 3163TIP3   OH230979   4.086   2.148  13.754  0.5727 -0.0003 -0.0300
 3163TIP3    H130980   4.046   2.234  13.766  0.8930 -0.0141  1.2621
 3163TIP3    H230981   4.028   2.103  13.692 -0.8271  0.3601  0.9741
 3164TIP3   OH230982   4.817   4.885  11.560  0.2901  0.3252  0.0478
 3164TIP3    H130983   4.776   4.799  11.549 -0.4022  0.8380 -1.6095
 3164TIP3    H230984   4.854   4.882  11.648 -0.7530 -1.2351  0.4800
 3165TIP3   OH230985   3.925   6.600  15.769  0.0225 -0.3969 -0.4168
 3165TIP3    H130986   3.915   6.552  15.687 -2.1461 -0.2661 -0.2841
 3165TIP3    H230987   3.860   6.562  15.828 -0.7279  1.6524  0.1884
 3166TIP3   OH230988   1.854   3.088   1.752 -0.5878 -0.3841  0.0589
 3166TIP3    H130989   1.919   3.106   1.683 -0.6510  1.9629  0.5098
 3166TIP3    H230990   1.887   3.010   1.796  1.8210  0.5653  0.0945
 3167TIP3   OH230991   4.653   6.041   1.631 -0.7026  0.3869 -0.0104
 3167TIP3    H130992   4.709   6.075   1.700 -0.7537  0.1264  0.1591
 3167TIP3    H230993   4.713   6.025   1.558 -0.6401  0.6067 -0.0066
 3168TIP3   OH230994   0.715   3.929  15.533  0.0595  0.2066 -0.5244
 3168TIP3    H130995   0.671   3.868  15.474 -0.2566  0.6651 -0.7635
 3168TIP3    H230996   0.673   3.914  15.618  1.9409 -1.9709  0.1258
 3169TIP3   OH230997   3.089   1.618  15.470  0.4821  0.4360 -0.7624
 3169TIP3    H130998   3.167   1.674  15.465  1.0479 -0.3980 -1.5624
 3169TIP3    H230999   3.043   1.634  15.388 -0.6304  1.4966  0.0166
 3170TIP3   OH231000   0.276   6.025  13.869 -0.0967 -0.5683 -0.0757
 3170TIP3    H131001   0.305   6.063  13.786 -1.3383 -0.3257 -0.4134
 3170TIP3    H231002   0.356   5.988  13.907  1.0583  1.7603 -0.0441
 3171TIP3   OH231003   5.186   1.730   2.199 -0.5342 -0.2728 -0.7117
 3171TIP3    H131004   5.125   1.801   2.180  0.4466  0.7568 -0.1664
 3171TIP3    H231005   5.229   1.713   2.115 -0.3183  0.2397 -0.7091
 3172TIP3   OH231006   2.976   3.600   2.643 -0.5204  0.5445 -0.2074
 3172TIP3    H131007   3.011   3.511   2.636 -0.6904  0.2816  1.7451
 3172TIP3    H231008   3.044   3.655   2.603 -0.1893 -0.3874 -0.9913
 3173TIP3   OH231009   6.477   1.998  12.437  0.2823 -0.4295  0.3015
 3173TIP3    H131010   6.423   1.983  12.360 -0.2182 -0.5687  0.6755
 3173TIP3    H231011   6.448   2.083  12.470 -0.2158 -0.8297  0.9135
 3174TIP3   OH231012   1.158   0.085   2.498  0.3917 -0.2996 -0.1311
 3174TIP3    H131013   1.244   0.112   2.530  0.0023  1.2981 -0.3411
 3174TIP3    H231014   1.158   0.108   2.405 -0.3491 -0.0057 -0.0721
 3175TIP3   OH231015   0.241   1.607  13.022 -0.2052 -0.2612  0.0245
 3175TIP3    H131016   0.155   1.642  13.002  0.3648  0.8366 -0.5881
 3175TIP3    H231017   0.226   1.513  13.035 -1.1997 -0.4456 -2.0647
 3176TIP3   OH231018   0.459   2.145  16.060  0.6150 -0.3101  0.7549
 3176TIP3    H131019   0.408   2.226  16.063  0.3505 -0.2771 -1.8157
 3176TIP3    H231020   0.455   2.110  16.149 -0.6804  1.6251  1.5279
 3177TIP3   OH231021   0.632   1.389  13.729 -0.1616 -0.2092  0.6633
 3177TIP3    H131022   0.545   1.348  13.727  0.1210 -0.7956  0.2094
 3177TIP3    H231023   0.693   1.318  13.710  0.3650  0.3579  0.1771
 3178TIP3   OH231024   2.998   5.808  16.350  0.2537 -0.0565 -0.1240
 3178TIP3    H131025   3.073   5.840  16.300  0.2232  1.9247  1.0344
 3178TIP3    H231026   2.930   5.792  16.284  1.4198 -1.1938 -1.1026
 3179TIP3   OH231027   0.129   6.226   6.088 -0.2574 -0.4629 -0.2582
 3179TIP3    H131028   0.072   6.230   6.164 -0.2208  1.1840 -0.2738
 3179TIP3    H231029   0.213   6.195   6.122 -0.1096  0.7034  0.4771
 3180TIP3   OH231030   5.143   1.316  15.917 -0.6310 -0.2351 -0.3552
 3180TIP3    H131031   5.166   1.337  16.007 -0.4910 -1.5487 -0.0559
 3180TIP3    H231032   5.133   1.220  15.917 -0.5481 -0.2648 -1.7460
 3181TIP3   OH231033   0.728   4.084  14.559  0.8088  0.1532  0.4156
 3181TIP3    H131034   0.640   4.069  14.524  0.0093  0.4836  2.1892
 3181TIP3    H231035   0.778   4.006  14.533 -0.3892 -0.6844  0.5723
 3182TIP3   OH231036   3.269   5.353  12.681 -0.0794  0.1869 -0.0095
 3182TIP3    H131037   3.358   5.320  12.667 -0.1311 -0.6079  1.3518
 3182TIP3    H231038   3.268   5.439  12.640  1.3761  0.2820  0.1186
 3183TIP3   OH231039   3.865   3.717   1.325  0.3056  0.1229 -0.3923
 3183TIP3    H131040   3.812   3.691   1.250  0.3365 -1.9679  0.2585
 3183TIP3    H231041   3.801   3.747   1.390  0.2740  1.8643 -1.1569
 3184TIP3   OH231042   5.982   4.476  15.832  0.0615  0.4981  0.3093
 3184TIP3    H131043   6.061   4.530  15.822 -1.0153  2.0606 -0.1165
 3184TIP3    H231044   5.915   4.537  15.863 -0.9547 -0.8320  0.7909
 3185TIP3   OH231045   4.339   2.462   2.757  0.2679 -0.7276  0.4614
 3185TIP3    H131046   4.433   2.461   2.737  0.3963  1.3512  0.7589
 3185TIP3    H231047   4.328   2.538   2.814 -1.6620 -0.7263  0.1321
 3186TIP3   OH231048   0.792   2.223   1.632 -0.2803  0.0248  0.0493
 3186TIP3    H131049   0.821   2.288   1.696  0.4604 -1.2041  1.0009
 3186TIP3    H231050   0.740   2.273   1.569  2.0133  1.9417 -0.4689
 3187TIP3   OH231051   5.145   3.329  12.872  0.1788  0.6712 -0.2907
 3187TIP3    H131052   5.115   3.416  12.899  0.0357  1.1172 -1.7792
 3187TIP3    H231053   5.208   3.347  12.802  0.6048 -0.4116 -0.1988
 3188TIP3   OH231054   3.651   4.282   3.486 -0.4146  0.4128  0.4167
 3188TIP3    H131055   3.646   4.365   3.439 -2.4164  0.7314  1.1100
 3188TIP3    H231056   3.708   4.301   3.560 -0.5075  1.0567  0.3328
 3189TIP3   OH231057   1.950   5.053   1.545  0.1495 -0.6902 -0.0133
 3189TIP3    H131058   2.026   5.022   1.593  0.1624 -0.3064  0.2147
 3189TIP3    H231059   1.983   5.070   1.457  0.6875  0.9372  0.4757
 3190TIP3   OH231060   4.324   1.087  12.608 -0.5204  0.2108  0.1333
 3190TIP3    H131061   4.287   1.165  12.567 -0.0890  0.1369 -0.4020
 3190TIP3    H231062   4.404   1.118  12.650 -0.1877  0.0013 -0.3391
 3191TIP3   OH231063   5.092   0.237  10.896 -0.3948  0.3141 -0.3937
 3191TIP3    H131064   5.112   0.259  10.805  1.0803  2.4677  0.3674
 3191TIP3    H231065   5.015   0.180  10.891 -1.6469  2.0535 -2.8848
 3192TIP3   OH231066   3.944   0.941   4.549  0.2316  0.0334 -0.0929
 3192TIP3    H131067   3.963   0.925   4.456  0.1477  0.0419 -0.1118
 3192TIP3    H231068   3.849   0.947   4.552  0.2434  0.1607 -0.0249
 3193TIP3   OH231069   3.245   0.558  11.665 -0.2414 -1.2592  0.1344
 3193TIP3    H131070   3.307   0.554  11.592  2.0833  4.4340  1.2575
 3193TIP3    H231071   3.288   0.614  11.729 -4.2945 -1.7296  3.6706
 3194TIP3   OH231072   2.517   0.143  14.598  0.4158 -0.3073  0.1343
 3194TIP3    H131073   2.471   0.227  14.597 -0.8960 -0.9969 -0.7668
 3194TIP3    H231074   2.478   0.094  14.526  0.7097 -1.9371  1.0424
 3195TIP3   OH231075   4.104   1.077  14.169 -0.2448 -0.8504 -0.1500
 3195TIP3    H131076   4.150   1.152  14.205 -0.0423 -1.4949  0.9842
 3195TIP3    H231077   4.031   1.115  14.119  0.4533  0.1153 -0.4557
 3196TIP3   OH231078   0.908   2.363  12.466  0.0290  0.0314 -0.4351
 3196TIP3    H131079   0.902   2.335  12.374  0.7531  0.0971 -0.5127
 3196TIP3    H231080   0.911   2.281  12.516  1.6731 -0.0694 -0.6288
 3197TIP3   OH231081   5.371   2.468  11.971  0.0148  0.2745 -0.5202
 3197TIP3    H131082   5.307   2.476  11.900  0.7191 -0.8574 -1.3222
 3197TIP3    H231083   5.393   2.558  11.994  0.5834  0.6873 -2.5043
 3198TIP3   OH231084   4.281   0.732  16.784  0.0328  0.0873  0.0488
 3198TIP3    H131085   4.309   0.644  16.807  0.8721  0.6209  1.2056
 3198TIP3    H231086   4.279   0.733  16.688 -0.6714 -1.3661  0.0281
 3199TIP3   OH231087   3.069   2.651   3.992  0.0452  0.1052 -0.0669
 3199TIP3    H131088   3.069   2.682   4.083  0.5493  0.4695 -0.1875
 3199TIP3    H231089   3.120   2.717   3.944  0.3881 -0.4614 -0.4890
 3200TIP3   OH231090   3.565   4.053   2.910 -0.0335 -0.0423  0.0445
 3200TIP3    H131091   3.502   3.985   2.889 -2.0759  1.2354  1.6916
 3200TIP3    H231092   3.522   4.108   2.975  2.4955  1.3712  0.6880
 3201TIP3   OH231093   1.975   6.226   3.068  0.0564  0.6898 -0.3124
 3201TIP3    H131094   2.011   6.270   2.991  3.8583  0.5387  1.1756
 3201TIP3    H231095   1.967   6.134   3.042 -0.8134  0.9949 -1.1651
 3202TIP3   OH231096   2.248   4.978   5.727 -0.0548  0.0343 -0.2141
 3202TIP3    H131097   2.218   4.921   5.798 -1.1598 -1.1831 -1.6109
 3202TIP3    H231098   2.170   5.025   5.699  0.0362 -0.5967 -1.5918
 3203TIP3   OH231099   3.814   2.553  17.196  0.1007 -0.3224 -0.0576
 3203TIP3    H131100   3.825   2.515  17.109  0.2669  2.4186 -1.3593
 3203TIP3    H231101   3.725   2.530  17.222  0.8632 -3.3054  0.2608
 3204TIP3   OH231102   6.029   2.916   5.058 -0.8015 -0.3432 -0.6162
 3204TIP3    H131103   5.953   2.953   5.102  0.1982  0.5173  0.4552
 3204TIP3    H231104   6.034   2.826   5.090 -1.0654 -0.2421 -0.2927
 3205TIP3   OH231105   0.830   5.723   4.003  0.2939 -0.2898 -0.1621
 3205TIP3    H131106   0.838   5.804   3.952  0.8633 -0.1881  0.0734
 3205TIP3    H231107   0.772   5.667   3.951 -0.3911  0.3993 -0.1531
 3206TIP3   OH231108   4.942   1.048  13.812 -0.1261 -0.5220 -0.2097
 3206TIP3    H131109   4.975   1.058  13.723 -2.4715 -1.2565 -1.2455
 3206TIP3    H231110   4.970   0.959  13.837  1.1958 -0.0363  0.1347
 3207TIP3   OH231111   2.747   1.035  13.679 -0.0497  0.4504 -0.4621
 3207TIP3    H131112   2.727   1.092  13.605  0.1526 -0.6556 -1.3946
 3207TIP3    H231113   2.665   0.989  13.697 -0.0235  0.5119 -0.1843
 3208TIP3   OH231114   2.269   0.159   0.266  0.7621 -0.3454  0.3647
 3208TIP3    H131115   2.216   0.181   0.342  1.2890 -1.9681  1.2531
 3208TIP3    H231116   2.358   0.152   0.299  0.6637 -3.5990  0.2323
 3209TIP3   OH231117   3.846   2.010   0.567 -0.4152 -0.3495 -0.0375
 3209TIP3    H131118   3.773   2.047   0.519 -1.2655 -0.9604  0.7433
 3209TIP3    H231119   3.820   2.016   0.659  0.4246 -0.7626  0.2418
 3210TIP3   OH231120   2.696   4.715  16.355 -0.1197 -0.5373  0.2266
 3210TIP3    H131121   2.791   4.704  16.365  0.1506  0.3705 -1.0740
 3210TIP3    H231122   2.661   4.707  16.443  1.3054  0.2555  0.8924
 3211TIP3   OH231123   6.562   5.112   0.568  0.5334 -0.0820 -0.2408
 3211TIP3    H131124   6.541   5.030   0.524 -2.1928 -0.6059  1.7352
 3211TIP3    H231125   6.489   5.170   0.547 -0.0272  0.1840  2.1273
 3212TIP3   OH231126   3.124   1.212   2.956 -0.2544 -0.1392  0.3516
 3212TIP3    H131127   3.186   1.165   3.011  0.8495 -2.4995 -2.6271
 3212TIP3    H231128   3.056   1.149   2.936 -0.2575  0.3679 -1.4595
 3213TIP3   OH231129   5.262   1.686   5.797  0.4116  0.0366  0.1978
 3213TIP3    H131130   5.303   1.612   5.841  0.4579  0.8369  1.5809
 3213TIP3    H231131   5.174   1.690   5.835  0.4094  0.6713  0.1371
 3214TIP3   OH231132   4.281   3.118  11.158 -0.0624  0.0442 -0.3473
 3214TIP3    H131133   4.375   3.127  11.172  0.0304  2.6186 -1.9519
 3214TIP3    H231134   4.249   3.074  11.237  2.3368 -0.0718  0.6483
 3215TIP3   OH231135   0.995   1.414  14.787 -0.0715  0.3167  0.4861
 3215TIP3    H131136   0.935   1.342  14.807  1.1564 -0.9789 -0.2993
 3215TIP3    H231137   1.074   1.392  14.836  0.3129  1.1525  0.2503
 3216TIP3   OH231138   0.632   6.368  15.738 -0.2354 -0.4310  0.1285
 3216TIP3    H131139   0.680   6.419  15.803 -0.2789 -1.8926  1.3637
 3216TIP3    H231140   0.686   6.290  15.724 -1.1719 -1.0544 -0.1037
 3217TIP3   OH231141   2.177   6.559   4.158  0.3110  0.1931  0.0844
 3217TIP3    H131142   2.262   6.524   4.130  0.9509  1.4392  0.4041
 3217TIP3    H231143   2.127   6.568   4.077 -0.0138 -1.7394  0.0199
 3218TIP3   OH231144   0.374   3.087   4.755 -0.0810  0.0260 -0.0677
 3218TIP3    H131145   0.370   3.004   4.707  2.7901 -0.4110  0.2782
 3218TIP3    H231146   0.352   3.064   4.845  1.7293 -0.6461  0.2476
 3219TIP3   OH231147   6.035   1.618  14.517  0.0186 -0.1490 -0.9176
 3219TIP3    H131148   6.105   1.562  14.549  1.0642  2.1528  1.1973
 3219TIP3    H231149   5.972   1.558  14.476  1.2498 -2.7517  0.7486
 3220TIP3   OH231150   0.102   5.996   4.293 -0.3689  0.3504 -0.3105
 3220TIP3    H131151   0.145   6.075   4.261  0.1332 -0.3195 -1.3200
 3220TIP3    H231152   0.171   5.945   4.334 -0.6051  0.2173 -0.0713
 3221TIP3   OH231153   1.203   6.316   4.644 -0.2886  0.0676 -0.1380
 3221TIP3    H131154   1.165   6.403   4.637  0.4299  0.4507  0.5320
 3221TIP3    H231155   1.172   6.270   4.566 -0.3267  1.0615 -0.7268
 3222TIP3   OH231156   3.224   5.192  17.017  0.3288 -0.7572  0.3482
 3222TIP3    H131157   3.153   5.255  17.026  2.0343  1.8123 -2.3334
 3222TIP3    H231158   3.261   5.183  17.105 -1.1789  0.4691  1.1464
 3223TIP3   OH231159   6.659   6.362  14.990 -0.1788  0.2667  0.1076
 3223TIP3    H131160   6.626   6.423  15.055  3.2300  0.6860  1.6684
 3223TIP3    H231161   6.653   6.409  14.907  0.1778  1.8408  0.9417
 3224TIP3   OH231162   5.378   0.177  12.494  0.2638  0.4346 -0.5724
 3224TIP3    H131163   5.453   0.211  12.543  0.0166  1.3730 -0.8194
 3224TIP3    H231164   5.368   0.237  12.420 -0.3276 -0.0637 -0.9117
 3225TIP3   OH231165   3.422   6.075  12.018  0.1962 -0.1829  0.2048
 3225TIP3    H131166   3.416   6.104  12.109 -2.4125 -0.0581  0.0685
 3225TIP3    H231167   3.483   6.136  11.977  1.2292 -0.0964  1.8058
 3226TIP3   OH231168   5.657   2.385   3.837  0.1841  0.3028 -0.1081
 3226TIP3    H131169   5.706   2.378   3.755 -0.0591  2.0353 -0.4428
 3226TIP3    H231170   5.659   2.479   3.859  0.1257 -0.0923  1.8025
 3227TIP3   OH231171   1.978   3.634   0.631  0.0221  0.4020 -0.0054
 3227TIP3    H131172   1.914   3.703   0.612  0.2404  0.8586  0.8734
 3227TIP3    H231173   2.016   3.659   0.716 -0.7493 -1.3938  0.9296
 3228TIP3   OH231174   4.976   4.644  15.361  0.3387  0.3324  0.3597
 3228TIP3    H131175   4.884   4.669  15.358 -0.2935 -1.8260  0.4326
 3228TIP3    H231176   4.994   4.611  15.273  2.0288  3.7029 -0.7393
 3229TIP3   OH231177   6.280   6.134   0.986  0.0487 -0.1706  0.0518
 3229TIP3    H131178   6.316   6.048   0.965 -0.4738 -0.3352 -0.2069
 3229TIP3    H231179   6.206   6.144   0.926 -0.5968 -0.0334  0.8371
 3230TIP3   OH231180   3.662   1.974   1.136  0.2904 -0.7137  0.0901
 3230TIP3    H131181   3.739   1.925   1.110 -0.7825 -1.4393 -1.9772
 3230TIP3    H231182   3.687   2.066   1.125  0.1632 -0.9435 -3.1441
 3231TIP3   OH231183   1.768   4.621   5.646 -0.1213 -0.3565 -0.0265
 3231TIP3    H131184   1.738   4.657   5.729  2.0033 -1.0143  1.0898
 3231TIP3    H231185   1.710   4.547   5.629 -0.8177  0.0235  0.6362
 3232TIP3   OH231186   0.298   2.023   2.404 -0.1469 -0.4970 -0.6269
 3232TIP3    H131187   0.245   2.088   2.449 -1.3712 -2.1409  0.4338
 3232TIP3    H231188   0.369   2.004   2.465  0.7407  0.4852 -1.3301
 3233TIP3   OH231189   4.413   0.193  11.400  0.2700  0.2010 -0.1520
 3233TIP3    H131190   4.448   0.108  11.373  1.4426  0.9710 -1.1735
 3233TIP3    H231191   4.400   0.185  11.494  0.3901 -1.0923 -0.2286
 3234TIP3   OH231192   2.921   1.518  10.992  0.0094  0.2511  0.2758
 3234TIP3    H131193   2.848   1.562  10.949 -1.0224 -1.4633  0.1723
 3234TIP3    H231194   2.974   1.483  10.921  0.2281  0.4167  0.3578
 3235TIP3   OH231195   1.677   6.088  12.458 -0.3476  0.4423  0.2635
 3235TIP3    H131196   1.723   6.116  12.379  0.3235  1.5593  1.0189
 3235TIP3    H231197   1.606   6.152  12.467 -3.4220 -2.3257 -1.9578
 3236TIP3   OH231198   4.770   2.372  13.742 -0.5374 -0.3853  0.4019
 3236TIP3    H131199   4.783   2.459  13.704  0.6699 -0.2942  0.9815
 3236TIP3    H231200   4.853   2.352  13.785 -1.6139 -0.7757  2.4101
 3237TIP3   OH231201   0.249   4.104  14.485 -0.8145  0.0937 -0.2801
 3237TIP3    H131202   0.252   4.190  14.527  2.9320 -0.5820  1.1931
 3237TIP3    H231203   0.240   4.043  14.558  0.1155 -0.8836 -0.9663
 3238TIP3   OH231204   0.439   6.145   2.273 -0.1157  0.0257 -0.0711
 3238TIP3    H131205   0.522   6.144   2.322 -0.4256 -0.8318  0.4574
 3238TIP3    H231206   0.376   6.105   2.333 -0.3478 -1.7674 -1.4486
 3239TIP3   OH231207   0.294   3.889   1.845 -0.3035 -0.0893  0.1383
 3239TIP3    H131208   0.320   3.861   1.933  0.0294 -2.3307 -0.5892
 3239TIP3    H231209   0.199   3.900   1.849 -0.1990  0.5349  0.9427
 3240TIP3   OH231210   4.311   1.705   0.326  0.1506  0.4857  0.2827
 3240TIP3    H131211   4.332   1.761   0.251 -1.7248 -2.5268 -2.7587
 3240TIP3    H231212   4.394   1.661   0.347  0.5018  0.6681 -0.6765
 3241TIP3   OH231213   1.478   1.770  16.508  0.1118 -0.0514 -0.2208
 3241TIP3    H131214   1.478   1.691  16.562 -0.7505 -0.2013 -0.4283
 3241TIP3    H231215   1.396   1.766  16.459 -0.2275  1.2702  0.2055
 3242TIP3   OH231216   3.407   2.878   1.841 -0.5278 -0.3617  0.3622
 3242TIP3    H131217   3.461   2.893   1.764 -1.5099  2.0442  0.0396
 3242TIP3    H231218   3.354   2.958   1.849 -1.5181 -1.1544  2.6691
 3243TIP3   OH231219   3.533   3.311  12.685 -0.3321 -0.5929  0.4499
 3243TIP3    H131220   3.488   3.360  12.617  0.3273 -0.1426  0.3279
 3243TIP3    H231221   3.591   3.375  12.727  2.9777 -1.8484 -1.7891
 3244TIP3   OH231222   4.054   6.428  14.958 -0.2676  0.0422 -0.0421
 3244TIP3    H131223   4.068   6.400  15.048 -1.9643  1.1945  0.6260
 3244TIP3    H231224   3.998   6.505  14.965 -0.6649 -0.0058 -2.1020
 3245TIP3   OH231225   0.385   5.557   4.590 -0.5021 -0.0381  0.2920
 3245TIP3    H131226   0.426   5.575   4.505  1.0634  0.3082  1.0886
 3245TIP3    H231227   0.300   5.600   4.585 -0.2546  0.3538 -0.9428
 3246TIP3   OH231228   3.379   2.310  11.637 -0.4331  0.2447  0.7904
 3246TIP3    H131229   3.301   2.342  11.592  0.5869  1.8614  0.0796
 3246TIP3    H231230   3.382   2.359  11.719 -0.0657  0.3439  0.7206
 3247TIP3   OH231231   5.704   1.385   0.866  0.1116 -0.1752 -0.0196
 3247TIP3    H131232   5.663   1.358   0.948  0.0063 -1.7110 -0.5466
 3247TIP3    H231233   5.788   1.338   0.866  0.8869  1.1797  0.0019
 3248TIP3   OH231234   1.790   1.568   2.374 -0.2150 -0.0004 -0.1295
 3248TIP3    H131235   1.729   1.585   2.302 -0.3486 -0.7167 -0.1905
 3248TIP3    H231236   1.829   1.654   2.394  0.0779  0.1459 -1.2827
 3249TIP3   OH231237   3.869   1.523   0.858  0.1000 -0.0765 -0.2115
 3249TIP3    H131238   3.890   1.440   0.816 -2.4518  0.2106 -2.2349
 3249TIP3    H231239   3.897   1.590   0.795 -0.8384  0.4778 -0.0559
 3250TIP3   OH231240   3.620   4.524   1.417  0.0160  0.1162 -0.1789
 3250TIP3    H131241   3.701   4.491   1.378  1.9362  1.2130  2.5867
 3250TIP3    H231242   3.627   4.620   1.408 -0.8322  0.2423  0.3968
 3251TIP3   OH231243   4.001   1.044   3.257  0.1666 -0.1450  0.0579
 3251TIP3    H131244   4.018   1.052   3.351  0.1793 -0.2296  0.0634
 3251TIP3    H231245   3.943   1.117   3.237 -0.2174 -0.3948  0.2265
 3252TIP3   OH231246   5.869   4.128   3.621 -0.6626 -0.6078 -0.3576
 3252TIP3    H131247   5.841   4.218   3.637  0.4761 -0.0431 -1.3554
 3252TIP3    H231248   5.824   4.077   3.687  0.0525  0.9181  1.3929
 3253TIP3   OH231249   3.202   6.026  12.683 -0.2836  0.0437  0.2761
 3253TIP3    H131250   3.167   5.937  12.677  1.3001 -0.5845  0.1208
 3253TIP3    H231251   3.247   6.028  12.767  2.3308 -0.3165 -1.0391
 3254TIP3   OH231252   4.013   2.002   6.216 -0.4375 -0.0101 -0.9342
 3254TIP3    H131253   4.049   1.989   6.129 -1.6722 -0.3035 -1.4276
 3254TIP3    H231254   3.990   2.095   6.219  1.5280  0.5025 -0.1252
 3255TIP3   OH231255   3.079   4.421   4.629 -0.7163  0.1995 -0.4437
 3255TIP3    H131256   3.044   4.396   4.544 -0.1034  1.1242 -0.9873
 3255TIP3    H231257   3.002   4.449   4.680 -1.2157 -1.2942 -0.3244
 3256TIP3   OH231258   2.563   5.467   3.487 -0.1198 -1.0654 -0.3436
 3256TIP3    H131259   2.572   5.500   3.398  2.5801  1.4792  0.7087
 3256TIP3    H231260   2.484   5.511   3.520 -0.0959 -0.5823 -0.9101
 3257TIP3   OH231261   5.209   3.304   4.606 -0.0944 -0.0167 -0.0793
 3257TIP3    H131262   5.189   3.345   4.690  0.5584  2.0693 -0.8672
 3257TIP3    H231263   5.150   3.348   4.544  0.1650 -0.7642 -0.8808
 3258TIP3   OH231264   6.503   6.670  16.957 -0.1051 -0.3610 -0.5631
 3258TIP3    H131265   6.580   6.676  17.014 -1.1765 -0.2489  0.9227
 3258TIP3    H231266   6.457   6.592  16.986 -2.6228  1.6408  1.3596
 3259TIP3   OH231267   5.828   3.649  12.131  0.4425  0.4186  0.0750
 3259TIP3    H131268   5.790   3.732  12.100 -0.3614 -0.0174 -0.1330
 3259TIP3    H231269   5.805   3.586  12.064 -0.3004 -0.2990  0.9722
 3260TIP3   OH231270   1.830   3.661   4.151 -0.0853  0.3072  0.3279
 3260TIP3    H131271   1.817   3.593   4.084  0.4666  1.0227 -0.5350
 3260TIP3    H231272   1.903   3.628   4.204  0.0804  0.1516  0.0081
 3261TIP3   OH231273   3.406   6.453  14.733 -0.2961  0.6023 -0.1021
 3261TIP3    H131274   3.408   6.508  14.655  0.5785 -0.9122 -1.1990
 3261TIP3    H231275   3.321   6.408  14.729  0.8600 -1.5939 -1.7818
 3262TIP3   OH231276   0.574   3.034  14.385  0.5526  0.2582  0.1994
 3262TIP3    H131277   0.639   2.996  14.326  2.1341  1.1244  1.3000
 3262TIP3    H231278   0.620   3.041  14.469  0.0770  3.6082  0.3071
 3263TIP3   OH231279   5.569   3.413  15.020 -0.3282  0.2514 -0.2796
 3263TIP3    H131280   5.590   3.502  14.993 -0.8047  1.1610  2.1286
 3263TIP3    H231281   5.602   3.358  14.949  2.0252  2.1746 -0.7901
 3264TIP3   OH231282   2.079   4.085  11.079 -0.3410 -0.2029 -0.1382
 3264TIP3    H131283   2.047   4.010  11.131 -1.4386  0.4326  0.1271
 3264TIP3    H231284   2.099   4.047  10.994  0.0768 -0.9927  0.2941
 3265TIP3   OH231285   3.867   0.973   4.080  0.1731 -0.2221 -0.1923
 3265TIP3    H131286   3.869   0.903   4.145 -0.3074 -0.0860 -0.0314
 3265TIP3    H231287   3.936   0.949   4.017  4.0117  1.9504  2.7469
 3266TIP3   OH231288   4.015   5.544   0.580  0.0104 -0.4272  0.7666
 3266TIP3    H131289   3.972   5.459   0.593 -0.8230  0.0270  1.0367
 3266TIP3    H231290   3.949   5.598   0.538  0.3332  0.2668  1.1349
 3267TIP3   OH231291   3.571   2.347   1.041 -0.6479  0.3119  0.2299
 3267TIP3    H131292   3.519   2.273   1.010  1.4476 -1.5214  0.8506
 3267TIP3    H231293   3.566   2.342   1.136 -1.2239  1.5655  0.2857
 3268TIP3   OH231294   3.742   1.130  11.443  0.3831  0.1244  0.5170
 3268TIP3    H131295   3.834   1.135  11.417 -0.2490  0.9592 -1.7005
 3268TIP3    H231296   3.735   1.045  11.487  1.8880 -0.6464 -0.6431
 3269TIP3   OH231297   0.699   1.351   0.669 -0.5246 -0.0483 -0.1948
 3269TIP3    H131298   0.619   1.299   0.662  0.0894 -0.8506 -1.4617
 3269TIP3    H231299   0.740   1.320   0.750 -1.5498  0.4900  0.5625
 3270TIP3   OH231300   3.604   3.357  11.254  0.3138  0.1492  0.6030
 3270TIP3    H131301   3.588   3.274  11.298 -0.4760 -0.8759 -1.5168
 3270TIP3    H231302   3.627   3.333  11.164 -2.0949  2.2505 -0.6936
 3271TIP3   OH231303   1.342   2.082  12.563 -0.2501 -0.5426  0.4889
 3271TIP3    H131304   1.405   2.011  12.579  0.4345  0.1175  0.8111
 3271TIP3    H231305   1.397   2.155  12.534 -0.9249 -0.0740  0.3820
 3272TIP3   OH231306   0.001   4.383  15.358  0.0471  0.8041  0.0703
 3272TIP3    H131307  -0.065   4.452  15.354  0.0707  0.8566  0.5539
 3272TIP3    H231308   0.056   4.398  15.281  3.0138  4.3014  2.5238
 3273TIP3   OH231309   5.362   0.250   4.091  0.3821 -0.6843 -0.2864
 3273TIP3    H131310   5.324   0.207   4.014  0.2490 -0.0673 -0.5637
 3273TIP3    H231311   5.374   0.341   4.065  0.7652 -0.5728  0.2711
 3274TIP3   OH231312   2.436   5.491   1.740  0.2763 -0.4735 -0.5418
 3274TIP3    H131313   2.528   5.481   1.764  0.5890  0.0605 -1.4760
 3274TIP3    H231314   2.410   5.574   1.780 -0.3327 -1.4513  1.2310
 3275TIP3   OH231315   2.768   2.598  10.930  0.4527  0.1983  0.2374
 3275TIP3    H131316   2.758   2.692  10.946 -1.4429  0.3889 -1.6423
 3275TIP3    H231317   2.736   2.556  11.009  2.7866  1.0754  1.7524
 3276TIP3   OH231318   1.367   2.208  16.397  0.1483 -0.2799 -0.3783
 3276TIP3    H131319   1.300   2.152  16.437  0.0314 -0.3697 -0.6949
 3276TIP3    H231320   1.433   2.219  16.465  1.3018 -2.6437 -1.0091
 3277TIP3   OH231321   6.098   6.812   4.733  0.0527 -0.3957 -0.0931
 3277TIP3    H131322   6.052   6.768   4.662  0.0501  1.2735 -1.1800
 3277TIP3    H231323   6.129   6.894   4.695  1.0884  0.0167  1.5159
 3278TIP3   OH231324   6.689   0.647  15.415  0.3118  0.1674  0.5506
 3278TIP3    H131325   6.728   0.623  15.499  1.7596 -0.6937 -0.3283
 3278TIP3    H231326   6.608   0.596  15.410  1.6990 -2.1157  0.1645
 3279TIP3   OH231327   5.439   3.477  16.007  0.0383 -0.1178  0.2071
 3279TIP3    H131328   5.348   3.450  16.019 -0.4994  1.6446  0.2883
 3279TIP3    H231329   5.488   3.394  16.005 -1.8073 -1.2807 -2.2011
 3280TIP3   OH231330   3.200   3.957  12.505  0.1512 -0.4346  0.1791
 3280TIP3    H131331   3.166   3.881  12.458 -1.3159  0.5879 -0.4989
 3280TIP3    H231332   3.177   3.942  12.596 -2.2899  0.2326 -0.2593
 3281TIP3   OH231333   2.634   5.473  15.257  0.7079 -0.3715 -0.0042
 3281TIP3    H131334   2.707   5.490  15.316  1.5602  2.2144 -1.6196
 3281TIP3    H231335   2.561   5.523  15.295  1.0855  0.7799 -0.7431
 3282TIP3   OH231336   3.588   2.286   1.311 -0.1230 -0.3765  0.0247
 3282TIP3    H131337   3.498   2.255   1.303 -0.5681  0.6665  0.7922
 3282TIP3    H231338   3.630   2.220   1.366 -0.2830 -1.1021 -0.6991
 3283TIP3   OH231339   3.684   5.082  12.721  0.4915 -0.3813  0.1053
 3283TIP3    H131340   3.666   4.999  12.678 -0.7997  1.4537 -3.3079
 3283TIP3    H231341   3.601   5.107  12.761  0.1792  0.2581 -0.8908
 3284TIP3   OH231342   5.305   4.679  10.900 -0.1825 -0.6429  0.1717
 3284TIP3    H131343   5.277   4.755  10.851 -1.3445  0.0419  1.8128
 3284TIP3    H231344   5.380   4.710  10.951 -1.5628 -0.0988  1.9744
 3285TIP3   OH231345   4.482   6.294   5.063 -0.3168 -0.1872  0.2268
 3285TIP3    H131346   4.470   6.241   4.984 -0.0924  1.0700 -0.6750
 3285TIP3    H231347   4.505   6.381   5.031 -1.5450  0.7071  1.6517
 3286TIP3   OH231348   2.737   2.134   6.259 -0.1250 -0.1156 -0.2218
 3286TIP3    H131349   2.768   2.205   6.315 -1.5596  0.0632  0.4041
 3286TIP3    H231350   2.804   2.126   6.191  0.9424  0.6260  0.7098
 3287TIP3   OH231351   4.735   3.488   1.672  0.2173 -0.2843  0.0677
 3287TIP3    H131352   4.712   3.526   1.588  1.8140  0.8437  0.1050
 3287TIP3    H231353   4.678   3.411   1.680  0.9231 -1.1790 -2.6218
 3288TIP3   OH231354   5.802   3.059   1.687 -0.1683  0.1269  0.0814
 3288TIP3    H131355   5.834   3.003   1.615  0.2237 -0.2561  0.5442
 3288TIP3    H231356   5.712   3.030   1.701 -0.2926  0.3009 -0.3524
 3289TIP3   OH231357   3.672   2.707   4.104 -0.3839  0.2629 -0.0605
 3289TIP3    H131358   3.611   2.738   4.037  1.2434  1.6739 -0.9724
 3289TIP3    H231359   3.673   2.775   4.171 -0.4189 -0.1391  0.3573
 3290TIP3   OH231360   4.814   3.697   2.925 -0.3876  0.2841  0.1933
 3290TIP3    H131361   4.868   3.621   2.902 -0.2957 -0.1011  1.5417
 3290TIP3    H231362   4.766   3.719   2.845 -0.4256 -1.2204 -0.2263
 3291TIP3   OH231363   0.187   5.617   2.576  0.4727  0.7700  0.2216
 3291TIP3    H131364   0.253   5.552   2.551 -0.0290  0.4768 -0.3540
 3291TIP3    H231365   0.110   5.594   2.524 -0.2761  0.7523  1.3088
 3292TIP3   OH231366   0.483   1.469   5.593 -0.6873 -0.0639  0.7397
 3292TIP3    H131367   0.566   1.483   5.547 -1.8445 -0.4776 -1.6254
 3292TIP3    H231368   0.475   1.374   5.598 -2.1189 -0.1143 -1.3345
 3293TIP3   OH231369   6.559   3.905   3.758  0.1743  0.0082  0.0220
 3293TIP3    H131370   6.529   3.824   3.716  1.7649  0.3362 -1.8704
 3293TIP3    H231371   6.494   3.971   3.732  0.5527 -0.0273 -1.0307
 3294TIP3   OH231372   5.786   4.878   5.548 -0.2590 -0.7179 -0.2878
 3294TIP3    H131373   5.758   4.969   5.562 -1.9607 -1.1996 -0.3627
 3294TIP3    H231374   5.881   4.880   5.564 -0.5173  0.7258  1.4209
 3295TIP3   OH231375   2.517   1.760  10.737 -0.0729 -0.2437  0.0153
 3295TIP3    H131376   2.585   1.814  10.696 -0.7076  1.0045  0.5526
 3295TIP3    H231377   2.566   1.697  10.789  0.6903  0.2323 -0.0987
 3296TIP3   OH231378   2.590   3.908  14.433  0.6620  0.1294 -0.0381
 3296TIP3    H131379   2.565   3.953  14.352  0.1535 -3.3699 -2.0364
 3296TIP3    H231380   2.685   3.909  14.433  0.6674  1.4521  0.1742
 3297TIP3   OH231381   3.407   0.490   3.949  0.3619  0.0663  0.1070
 3297TIP3    H131382   3.377   0.570   3.905  0.2290  0.4930  0.9444
 3297TIP3    H231383   3.328   0.435   3.954  0.3750  0.0219 -0.1755
 3298TIP3   OH231384   0.737   2.844  11.548 -0.1483  0.0807 -0.4009
 3298TIP3    H131385   0.698   2.767  11.506  2.1110 -2.0897  1.1947
 3298TIP3    H231386   0.786   2.887  11.477  0.1854 -1.1079 -0.9262
 3299TIP3   OH231387   4.202   3.123   4.000 -0.0965  0.3654  0.1171
 3299TIP3    H131388   4.254   3.147   3.923  0.2924  1.6150  0.7367
 3299TIP3    H231389   4.112   3.116   3.968  0.0708  0.8046 -0.4542
 3300TIP3   OH231390   5.008   2.590  12.405 -0.6563  0.5692 -0.1571
 3300TIP3    H131391   4.915   2.596  12.426 -1.0599  2.8125 -2.1030
 3300TIP3    H231392   5.012   2.593  12.309  1.3982 -0.5134 -0.1673
 3301TIP3   OH231393   4.641   5.192  11.684 -0.4636  0.1155 -0.1702
 3301TIP3    H131394   4.734   5.207  11.670 -0.7720  0.1313 -2.5470
 3301TIP3    H231395   4.634   5.097  11.697  0.0351  0.3111  1.7674
 3302TIP3   OH231396   2.261   5.271   5.399 -0.2355 -0.3271 -0.5548
 3302TIP3    H131397   2.308   5.286   5.316 -0.5523 -0.9232 -0.8423
 3302TIP3    H231398   2.294   5.187   5.430 -0.8643 -0.5831 -0.5843
 3303TIP3   OH231399   4.626   4.282   5.326 -0.2290  0.7522  0.2885
 3303TIP3    H131400   4.542   4.244   5.352  0.0279  0.6642  1.0145
 3303TIP3    H231401   4.689   4.249   5.391  0.2462  1.3409  0.1399
 3304TIP3   OH231402   3.518   1.068  14.223 -0.5295 -0.2268 -0.1207
 3304TIP3    H131403   3.456   1.093  14.155  0.2797 -0.3876 -0.9468
 3304TIP3    H231404   3.524   1.144  14.280  0.4390  0.7863 -1.4978
 3305TIP3   OH231405   1.819   0.335  10.889 -0.2869 -0.0697 -0.2869
 3305TIP3    H131406   1.764   0.337  10.811 -1.2150 -2.7461  0.2114
 3305TIP3    H231407   1.786   0.261  10.940  0.5818  1.2812  2.4479
 3306TIP3   OH231408   0.980   4.531   2.663  0.1550  0.7272  0.5041
 3306TIP3    H131409   0.921   4.555   2.735 -0.3737  1.3903 -0.1348
 3306TIP3    H231410   0.947   4.581   2.588  0.0507 -0.7600 -0.4691
 3307TIP3   OH231411   3.494   2.526  15.839 -0.1373 -0.0733  0.0857
 3307TIP3    H131412   3.466   2.440  15.870 -0.0658  0.1425  0.7603
 3307TIP3    H231413   3.566   2.507  15.778 -0.6468 -0.5294 -0.3843
 3308TIP3   OH231414   3.557   2.646   5.003 -0.0700  0.5875 -0.1422
 3308TIP3    H131415   3.645   2.634   5.039 -0.2859  0.2771  0.2870
 3308TIP3    H231416   3.542   2.740   5.008 -0.1377  0.5359  0.6732
 3309TIP3   OH231417   2.159   6.709   5.557  0.0823 -0.4939 -0.5355
 3309TIP3    H131418   2.207   6.627   5.545  0.8006  0.0976 -1.8617
 3309TIP3    H231419   2.226   6.777   5.552 -0.3389  0.1711  1.6255
 3310TIP3   OH231420   2.274   3.561   1.901 -0.0025 -0.2332  0.2815
 3310TIP3    H131421   2.350   3.614   1.926 -1.1070  0.4833  2.3730
 3310TIP3    H231422   2.287   3.478   1.947  0.3068 -0.7249 -0.6813
 3311TIP3   OH231423   1.186   2.611  12.805 -0.1776 -0.2470 -0.3810
 3311TIP3    H131424   1.191   2.551  12.731 -1.6208  0.4559 -1.0902
 3311TIP3    H231425   1.199   2.555  12.882  0.8754 -1.0613 -1.1187
 3312TIP3   OH231426   6.816   1.679  12.082 -0.2711 -0.1135 -0.0761
 3312TIP3    H131427   6.724   1.661  12.065 -0.2753  0.6054 -0.8982
 3312TIP3    H231428   6.817   1.735  12.159 -0.6113  0.7969 -0.7135
 3313TIP3   OH231429   0.736   3.732  12.130  0.4089  0.0552  0.4233
 3313TIP3    H131430   0.656   3.680  12.139  0.0841  0.2843 -0.9655
 3313TIP3    H231431   0.714   3.817  12.168  0.0215  0.0789  0.1500
 3314TIP3   OH231432   0.138   0.559   0.497 -0.5564 -0.1055  0.0883
 3314TIP3    H131433   0.144   0.495   0.426  1.1980  0.5150 -0.3634
 3314TIP3    H231434   0.220   0.608   0.493 -1.6984  1.9587  0.6494
 3315TIP3   OH231435   3.529   4.823  11.960 -0.5545 -0.0413  0.2909
 3315TIP3    H131436   3.590   4.769  11.910  0.0061  1.5031 -0.7537
 3315TIP3    H231437   3.584   4.865  12.026 -0.5333  1.0877 -0.4337
 3316TIP3   OH231438   4.961   3.242  12.315  0.4886 -0.4481  0.0960
 3316TIP3    H131439   5.005   3.162  12.344 -0.6883 -1.1606  0.0011
 3316TIP3    H231440   4.885   3.249  12.373  0.0188  0.0382 -0.5698
 3317TIP3   OH231441   4.242   0.864   0.813  0.0779  0.0227 -0.2481
 3317TIP3    H131442   4.260   0.867   0.719  0.0258 -1.2460 -0.3098
 3317TIP3    H231443   4.231   0.956   0.838  1.3803  0.4693 -1.2212
 3318TIP3   OH231444   0.168   5.934   0.675 -0.7491 -0.0743  0.5941
 3318TIP3    H131445   0.158   6.024   0.645 -3.3331 -0.2618  0.6637
 3318TIP3    H231446   0.199   5.886   0.598  0.5503  0.8165  0.5337
 3319TIP3   OH231447   1.241   1.114  16.583  0.2950  0.1352  0.1175
 3319TIP3    H131448   1.245   1.207  16.561  1.7123  0.0898  0.0982
 3319TIP3    H231449   1.225   1.070  16.500  1.1579  0.2731 -0.1309
 3320TIP3   OH231450   5.665   1.781  12.187  0.2327 -0.3283 -0.2294
 3320TIP3    H131451   5.675   1.876  12.198 -1.0905 -0.2395  0.5119
 3320TIP3    H231452   5.683   1.765  12.095 -2.1057  1.0822 -1.0304
 3321TIP3   OH231453   2.894   2.482  13.062  0.4112  0.4683  0.0646
 3321TIP3    H131454   2.965   2.423  13.087 -0.5685  0.1789  2.4319
 3321TIP3    H231455   2.821   2.423  13.041  0.2141  0.8077 -0.2174
 3322TIP3   OH231456   2.382   6.044   0.693 -0.2229 -0.5582 -0.1636
 3322TIP3    H131457   2.360   5.956   0.663  0.3782 -0.4242 -1.0609
 3322TIP3    H231458   2.474   6.038   0.719 -0.4154 -0.3885  0.5572
 3323TIP3   OH231459   0.171   2.214  11.004 -0.4623 -0.4246  0.0196
 3323TIP3    H131460   0.181   2.290  10.947 -1.0833 -0.9244 -0.7702
 3323TIP3    H231461   0.169   2.139  10.945 -0.3892 -1.0256  0.7509
 3324TIP3   OH231462   5.675   0.073   2.367 -0.1737 -0.3876  0.4697
 3324TIP3    H131463   5.720   0.156   2.381 -0.0805 -0.1038 -1.2525
 3324TIP3    H231464   5.705   0.017   2.438  3.6414 -0.4983 -0.9654
 3325TIP3   OH231465   2.176   0.148   2.556  0.4974  0.2467 -0.3721
 3325TIP3    H131466   2.192   0.112   2.469 -0.5418 -0.1552 -0.4148
 3325TIP3    H231467   2.203   0.240   2.550  0.9515  0.0770 -0.9535
 3326TIP3   OH231468   1.077   6.134   0.407 -0.1162  0.2836 -0.3502
 3326TIP3    H131469   1.121   6.209   0.367 -1.2913 -0.2723 -2.8931
 3326TIP3    H231470   1.149   6.077   0.437  0.8174  1.1783 -0.8339
 3327TIP3   OH231471   0.099   1.659  12.467  0.1304 -0.6843  0.4358
 3327TIP3    H131472   0.018   1.612  12.490  0.3116 -0.7116  1.0331
 3327TIP3    H231473   0.127   1.700  12.549 -0.1068  0.6060 -0.1102
 3328TIP3   OH231474   0.011   0.704   5.659 -0.0914  0.3010  0.0346
 3328TIP3    H131475   0.074   0.774   5.642  0.7562 -0.9440 -2.3472
 3328TIP3    H231476   0.056   0.646   5.721 -0.4674  1.3604  1.3492
 3329TIP3   OH231477   2.529   1.452   4.901  0.0024 -0.2416  0.4897
 3329TIP3    H131478   2.531   1.440   4.806 -2.1104  2.0705  0.0390
 3329TIP3    H231479   2.606   1.504   4.921 -1.0330  1.7965 -0.4982
 3330TIP3   OH231480   2.962   4.703   5.875 -0.4445  0.7741 -0.0307
 3330TIP3    H131481   2.871   4.699   5.903 -1.3867  0.5248 -2.8493
 3330TIP3    H231482   2.979   4.617   5.835  2.3366 -0.7271  3.7218
 3331TIP3   OH231483   1.616   0.155   6.822  0.0992 -0.1987  0.2573
 3331TIP3    H131484   1.669   0.102   6.763 -0.4750 -0.5016  0.0073
 3331TIP3    H231485   1.678   0.188   6.887  0.5103 -0.9546  0.2574
 3332TIP3   OH231486   4.506   4.014   0.144  0.6724  0.6835  0.1127
 3332TIP3    H131487   4.449   3.946   0.181 -0.8783  0.8908 -1.7641
 3332TIP3    H231488   4.467   4.035   0.059  1.4266  3.4971  0.3445
 3333TIP3   OH231489   2.782   1.450  16.399  0.0616 -0.3211  0.2063
 3333TIP3    H131490   2.828   1.366  16.402 -1.0476 -1.0067 -1.0984
 3333TIP3    H231491   2.806   1.488  16.314 -0.8644 -0.1540  0.0094
 3334TIP3   OH231492   2.854   0.275  16.591  0.0304  0.5601 -0.1212
 3334TIP3    H131493   2.874   0.279  16.685 -1.3700  0.2297  0.2135
 3334TIP3    H231494   2.760   0.288  16.586 -0.1242 -0.7531 -1.3747
 3335TIP3   OH231495   2.976   6.175   3.624  0.1747 -0.8056  0.0519
 3335TIP3    H131496   3.068   6.202   3.624  1.0227 -3.3150  1.1576
 3335TIP3    H231497   2.959   6.150   3.534  0.4188  0.1258 -0.2617
 3336TIP3   OH231498   2.626   6.036   4.962 -0.8969  0.0687  0.0089
 3336TIP3    H131499   2.655   6.010   4.875 -2.3252 -0.6273 -0.2812
 3336TIP3    H231500   2.660   6.124   4.973  1.1283 -0.6213 -0.3753
 3337TIP3   OH231501   4.328   1.303  15.204  0.0407 -0.1765 -0.4722
 3337TIP3    H131502   4.285   1.270  15.125 -1.0683 -3.7067  1.4313
 3337TIP3    H231503   4.409   1.253  15.210  0.5227  0.6675  0.2075
 3338TIP3   OH231504   3.004   4.716  13.078  0.2469 -0.1334  0.4745
 3338TIP3    H131505   3.066   4.682  13.141  0.8676  0.0330 -0.0362
 3338TIP3    H231506   2.919   4.710  13.122  0.4503 -1.5051  0.7298
 3339TIP3   OH231507   2.320   0.297  16.616  0.0911 -0.3617  0.4176
 3339TIP3    H131508   2.286   0.356  16.549  0.5027 -0.9058 -0.2870
 3339TIP3    H231509   2.298   0.210  16.584 -0.6641 -0.6029  1.5278
 3340TIP3   OH231510   1.047   5.841  15.604 -0.7725  0.1421 -0.2907
 3340TIP3    H131511   1.036   5.931  15.634 -0.3009 -0.1060  0.6706
 3340TIP3    H231512   1.110   5.803  15.666  1.2457 -0.0385 -2.3303
 3341TIP3   OH231513   5.878   5.910  11.106  0.4088  0.2775  0.1781
 3341TIP3    H131514   5.876   6.004  11.086 -0.2228  0.1752 -0.2633
 3341TIP3    H231515   5.808   5.873  11.054  1.6908 -0.7005 -0.9143
 3342TIP3   OH231516   5.089   0.148   6.493  0.4367  0.2429  0.1942
 3342TIP3    H131517   5.106   0.203   6.417 -2.3525  0.8444 -0.1100
 3342TIP3    H231518   5.004   0.178   6.526  0.2077 -1.9205  1.8277
 3343TIP3   OH231519   0.363   3.178   4.442 -0.4747  0.5943  0.1143
 3343TIP3    H131520   0.390   3.098   4.398 -0.4953 -0.5323  2.0500
 3343TIP3    H231521   0.279   3.156   4.482 -0.0604  1.2766  1.4151
 3344TIP3   OH231522   4.029   2.075  16.017 -0.0212  0.0075  0.1543
 3344TIP3    H131523   3.940   2.080  16.051 -0.0407 -0.4293  0.1733
 3344TIP3    H231524   4.029   2.130  15.940 -0.6162 -0.8737 -0.4955
 3345TIP3   OH231525   5.853   1.968   1.101  0.7810  1.0103 -0.1275
 3345TIP3    H131526   5.826   2.045   1.151 -0.8353  0.5064 -0.1593
 3345TIP3    H231527   5.786   1.902   1.121  2.0509 -0.3631 -0.1912
 3346TIP3   OH231528   2.151   2.360   2.169 -0.0972 -0.0787 -0.0662
 3346TIP3    H131529   2.108   2.286   2.211 -2.1055  0.6563 -0.7072
 3346TIP3    H231530   2.129   2.351   2.076 -1.9224  2.1987  0.0529
 3347TIP3   OH231531   4.210   2.573  15.438 -0.0395 -0.6049  0.0946
 3347TIP3    H131532   4.294   2.619  15.427 -0.1188 -0.3857  0.3721
 3347TIP3    H231533   4.225   2.514  15.512 -0.7438  0.9560  1.5533
 3348TIP3   OH231534   4.719   6.626  12.664  0.3503 -0.1912  0.7664
 3348TIP3    H131535   4.809   6.593  12.656  0.0572 -1.0925  1.1800
 3348TIP3    H231536   4.728   6.704  12.719  0.8679 -0.3312  0.8892
 3349TIP3   OH231537   2.770   0.419   3.257 -0.7737  0.6277 -0.0071
 3349TIP3    H131538   2.756   0.334   3.215 -0.2783  0.9555 -0.8535
 3349TIP3    H231539   2.793   0.478   3.185 -1.0966  1.4771  0.5733
 3350TIP3   OH231540   1.686   3.577  14.136 -0.1249  0.4340  0.3384
 3350TIP3    H131541   1.768   3.623  14.115 -0.7358  2.2690  1.6489
 3350TIP3    H231542   1.710   3.516  14.206  0.1288  1.0574  0.8073
 3351TIP3   OH231543   6.185   4.896  13.250 -0.6367 -0.1236 -0.4489
 3351TIP3    H131544   6.278   4.911  13.268 -0.4910  0.9241 -1.9736
 3351TIP3    H231545   6.139   4.933  13.326 -0.0110  3.4859 -1.6745
 3352TIP3   OH231546   6.776   2.966   1.165 -0.3737  0.6578  0.5128
 3352TIP3    H131547   6.717   3.018   1.220  1.3128  2.3097  0.8376
 3352TIP3    H231548   6.860   3.010   1.172  0.6936 -1.0901 -0.7076
 3353TIP3   OH231549   3.638   3.992  13.611 -0.0169 -0.5994  0.5736
 3353TIP3    H131550   3.593   3.996  13.527 -0.6239 -0.1087  0.9143
 3353TIP3    H231551   3.675   3.904  13.614 -2.6439 -1.7816  1.1498
 3354TIP3   OH231552   4.200   2.244   2.480  0.2591  0.0955  0.5200
 3354TIP3    H131553   4.262   2.315   2.461 -0.1780  0.8672  1.8103
 3354TIP3    H231554   4.164   2.266   2.566  1.5818 -2.7366  1.9400
 3355TIP3   OH231555   4.490   2.519  10.923 -0.0767 -0.0547 -0.1306
 3355TIP3    H131556   4.553   2.537  10.992 -1.1791 -0.8263  1.1135
 3355TIP3    H231557   4.529   2.448  10.872  1.8565  2.0874 -1.8628
 3356TIP3   OH231558   4.063   1.447   1.349 -0.4430  0.5454  0.3588
 3356TIP3    H131559   3.968   1.432   1.342 -0.4037 -1.0859  2.3749
 3356TIP3    H231560   4.086   1.494   1.268 -2.9220  0.8349 -0.2581
 3357TIP3   OH231561   0.487   2.118   1.896 -0.3179  0.2974 -0.2655
 3357TIP3    H131562   0.479   2.081   1.984  0.6555 -1.4246 -0.8428
 3357TIP3    H231563   0.401   2.154   1.877 -0.2191  1.8701  1.8533
 3358TIP3   OH231564   2.622   6.628   2.016  0.0885  0.3892  0.0034
 3358TIP3    H131565   2.595   6.717   1.995 -0.3914 -0.4000 -3.3254
 3358TIP3    H231566   2.711   6.638   2.051 -0.3999  2.2340  0.8153
 3359TIP3   OH231567   4.453   4.931   1.737 -0.2253 -0.6088 -0.8506
 3359TIP3    H131568   4.381   4.961   1.793 -0.8635  1.1649 -2.5061
 3359TIP3    H231569   4.470   4.841   1.766 -1.9289 -0.4770  0.7426
 3360TIP3   OH231570   4.401   3.574  14.794  0.4173  0.2307  0.0801
 3360TIP3    H131571   4.358   3.568  14.709 -1.7665 -0.3826  1.1622
 3360TIP3    H231572   4.370   3.657  14.830 -0.5437 -0.6048  1.2200
 3361TIP3   OH231573   2.756   1.219   6.161 -0.0996 -0.7121  0.5216
 3361TIP3    H131574   2.705   1.206   6.241  0.4327 -0.5532  0.8930
 3361TIP3    H231575   2.798   1.304   6.173 -1.4293  0.1623 -0.7228
 3362TIP3   OH231576   2.322   1.795   1.895 -0.3519 -0.1519 -0.7023
 3362TIP3    H131577   2.392   1.840   1.848  0.3315  1.0027  1.3093
 3362TIP3    H231578   2.330   1.704   1.867  0.0511  0.4476 -2.7216
 3363TIP3   OH231579   1.404   6.511   0.970 -0.3671 -0.3490 -0.5687
 3363TIP3    H131580   1.362   6.460   1.040 -0.9503  1.1871  0.2540
 3363TIP3    H231581   1.333   6.530   0.908 -0.5308  0.7506 -0.0734
 3364TIP3   OH231582   4.368   4.217   5.033 -0.1566  0.7931  0.1607
 3364TIP3    H131583   4.368   4.226   5.128 -0.1457  0.9202  0.1475
 3364TIP3    H231584   4.401   4.128   5.018  0.2045  0.9063  0.2633
 3365TIP3   OH231585   5.872   2.114   2.892 -0.3594  0.0517 -0.0152
 3365TIP3    H131586   5.883   2.114   2.988 -1.4187 -0.0139  0.1130
 3365TIP3    H231587   5.798   2.055   2.876 -2.5384  2.7164 -0.5603
 3366TIP3   OH231588   2.468   0.463  14.985 -0.4662 -0.3237  0.4075
 3366TIP3    H131589   2.460   0.554  15.016  0.0341 -0.0138 -0.3427
 3366TIP3    H231590   2.558   0.439  15.005 -0.8750 -1.0022  1.4875
 3367TIP3   OH231591   5.915   2.560  12.694  0.0612  0.1025  0.4925
 3367TIP3    H131592   5.840   2.558  12.754  0.9534  1.5694  1.7204
 3367TIP3    H231593   5.900   2.487  12.634 -1.1349 -1.0818  2.1727
 3368TIP3   OH231594   6.134   0.849   2.423 -0.0103  0.3016  0.9328
 3368TIP3    H131595   6.156   0.759   2.448  0.2100  0.1581  0.2279
 3368TIP3    H231596   6.121   0.894   2.507 -2.5930 -0.9711  1.3234
 3369TIP3   OH231597   0.223   3.520  15.118 -0.1056 -0.5860  0.1785
 3369TIP3    H131598   0.199   3.530  15.210 -1.5654  0.7507 -0.3058
 3369TIP3    H231599   0.318   3.507  15.119 -0.1229 -0.7811  1.8669
 3370TIP3   OH231600   3.305   3.361  15.365  0.1158 -0.2353  0.7055
 3370TIP3    H131601   3.391   3.343  15.401 -0.2412 -0.8755  1.2589
 3370TIP3    H231602   3.278   3.278  15.324 -0.6988 -0.3908  1.5206
 3371TIP3   OH231603   6.289   6.570  15.555  0.1831  0.4811  0.1663
 3371TIP3    H131604   6.303   6.485  15.514  1.3611  0.5404  0.4162
 3371TIP3    H231605   6.263   6.627  15.483 -1.4566 -0.2482  0.1216
 3372TIP3   OH231606   1.607   6.258  15.951  0.9046  0.0437  0.0920
 3372TIP3    H131607   1.587   6.261  16.045  1.6613  0.7206  0.2482
 3372TIP3    H231608   1.665   6.333  15.937  2.3518 -1.1642 -0.5581
 3373TIP3   OH231609   1.959   5.704  15.188  0.1793 -0.1879  0.0037
 3373TIP3    H131610   2.013   5.742  15.118 -0.5152 -0.3141 -0.6130
 3373TIP3    H231611   1.908   5.777  15.221 -0.1805 -0.3168 -0.2665
 3374TIP3   OH231612   0.637   1.256   5.464 -0.0777 -0.3627  0.1453
 3374TIP3    H131613   0.606   1.266   5.374  1.0219 -0.8712 -0.3007
 3374TIP3    H231614   0.642   1.161   5.477 -0.6014 -0.3019  0.8897
 3375TIP3   OH231615   5.227   5.382  15.688  0.2548 -0.1168 -0.0051
 3375TIP3    H131616   5.317   5.407  15.711 -0.0618  0.7231  0.3645
 3375TIP3    H231617   5.184   5.369  15.773 -0.0031 -0.3968 -0.1796
 3376TIP3   OH231618   3.105   2.087   4.691 -0.0263 -0.8716 -0.6977
 3376TIP3    H131619   3.123   1.995   4.669  0.0241 -1.0652  0.1259
 3376TIP3    H231620   3.049   2.117   4.620 -0.1887 -1.5915 -0.8910
 3377TIP3   OH231621   0.128   0.013  13.656 -0.2946 -0.0022  0.8527
 3377TIP3    H131622   0.183  -0.057  13.690  0.5439 -1.1822 -2.5101
 3377TIP3    H231623   0.044  -0.028  13.638 -0.8506  0.6885  1.7612
 3378TIP3   OH231624   2.384   2.567   4.748 -0.2623  0.3547 -0.7466
 3378TIP3    H131625   2.373   2.472   4.740  0.7037  0.3742 -2.7496
 3378TIP3    H231626   2.305   2.603   4.708  0.8586  0.3655 -3.1290
 3379TIP3   OH231627   2.488   6.499   3.450  0.0804  0.0809  0.0600
 3379TIP3    H131628   2.569   6.457   3.478 -1.2520 -1.2982  2.1536
 3379TIP3    H231629   2.432   6.427   3.422 -0.8800  0.8704 -0.1309
 3380TIP3   OH231630   1.387   5.119  12.856  0.2642  0.2690  0.5213
 3380TIP3    H131631   1.442   5.043  12.836  0.6796  0.6296  0.2452
 3380TIP3    H231632   1.428   5.190  12.807 -1.1119  0.3206 -0.6322
 3381TIP3   OH231633   6.075   5.802  11.585  0.0383 -0.1461  0.2470
 3381TIP3    H131634   6.050   5.832  11.497 -0.6152 -0.8955  0.1673
 3381TIP3    H231635   6.170   5.814  11.588  0.1759 -0.8336 -0.8470
 3382TIP3   OH231636   4.891   6.576  15.955 -0.7336 -0.6016  0.3574
 3382TIP3    H131637   4.891   6.652  15.896  0.9447  0.1643  1.2669
 3382TIP3    H231638   4.865   6.502  15.899 -3.0642  0.6919 -0.3992
 3383TIP3   OH231639   5.186   0.729   0.603  0.5016  0.4349  0.0952
 3383TIP3    H131640   5.243   0.787   0.654  0.8253  0.6988 -0.5571
 3383TIP3    H231641   5.234   0.647   0.598 -0.3803 -0.2496  1.8527
 3384TIP3   OH231642   1.145   1.680  12.849  0.4335  0.1063  0.1843
 3384TIP3    H131643   1.119   1.659  12.760 -0.9252  0.5745  0.4536
 3384TIP3    H231644   1.206   1.753  12.839  0.2183  0.2167 -0.3597
 3385TIP3   OH231645   2.797   5.643  13.748 -0.4401 -0.4491  0.1541
 3385TIP3    H131646   2.743   5.583  13.800 -0.5943  0.9081  1.6491
 3385TIP3    H231647   2.887   5.619  13.769 -0.4702  1.2788  2.6388
 3386TIP3   OH231648   5.576   1.847  12.659 -0.4454  0.1579 -0.3595
 3386TIP3    H131649   5.670   1.867  12.664 -0.0019 -1.2356 -2.0093
 3386TIP3    H231650   5.561   1.784  12.729  0.5014 -1.6316 -1.6618
 3387TIP3   OH231651   2.715   3.615  14.696  0.1135  0.2525  0.7550
 3387TIP3    H131652   2.644   3.626  14.632  0.5534  0.3303  0.2710
 3387TIP3    H231653   2.732   3.704  14.727 -0.2823  0.1802  1.1831
 3388TIP3   OH231654   6.796   6.386   4.117 -0.7180 -0.7606  0.0564
 3388TIP3    H131655   6.776   6.424   4.032  0.1008  0.8404  0.5240
 3388TIP3    H231656   6.745   6.305   4.121 -3.8976  1.0568 -0.3774
 3389TIP3   OH231657   1.859   3.354  11.593  0.2086  0.5363  0.3850
 3389TIP3    H131658   1.811   3.294  11.650  0.6503 -0.1296  0.0797
 3389TIP3    H231659   1.810   3.436  11.597 -0.9879 -0.1347  0.0250
 3390TIP3   OH231660   4.145   2.779  14.762  0.2934  0.4508 -0.0767
 3390TIP3    H131661   4.230   2.793  14.804 -0.1735 -0.4026  1.2116
 3390TIP3    H231662   4.095   2.727  14.826 -1.6903  2.0866 -0.2165
 3391TIP3   OH231663   4.325   3.791   6.207 -1.2420  0.3273  0.1401
 3391TIP3    H131664   4.303   3.856   6.274  1.5942 -0.4797  2.0331
 3391TIP3    H231665   4.294   3.708   6.242  1.4939 -0.3121  1.2532
 3392TIP3   OH231666   1.183   4.507   2.186 -0.3342  0.2254 -0.0937
 3392TIP3    H131667   1.203   4.558   2.107 -1.9455 -2.8803 -2.7285
 3392TIP3    H231668   1.262   4.456   2.203  0.8381  2.4478  1.8365
 3393TIP3   OH231669   1.527   0.639   4.652 -0.1280  0.3495 -0.1624
 3393TIP3    H131670   1.479   0.718   4.677  2.4802  1.8970  0.3204
 3393TIP3    H231671   1.584   0.668   4.580  1.9448 -0.6532  1.0020
 3394TIP3   OH231672   2.316   1.896   3.760  0.1687  0.1704  0.1931
 3394TIP3    H131673   2.369   1.918   3.683  0.4981 -0.5089  0.2127
 3394TIP3    H231674   2.228   1.880   3.725  0.4900 -0.9145 -0.1738
 3395TIP3   OH231675   1.998   4.691   6.149  0.4344  0.1455  0.1063
 3395TIP3    H131676   1.927   4.715   6.209  0.4882 -0.5084  0.4413
 3395TIP3    H231677   1.981   4.743   6.070  0.7437  1.5290  0.9151
 3396TIP3   OH231678   4.694   4.627  15.491  0.3157  0.1286 -0.2180
 3396TIP3    H131679   4.695   4.532  15.503 -0.5268 -0.1670 -2.1290
 3396TIP3    H231680   4.684   4.639  15.397 -1.1841  2.0938  0.1277
 3397TIP3   OH231681   5.176   4.600  16.969  0.0932 -0.1348 -0.2581
 3397TIP3    H131682   5.156   4.556  17.052 -2.4762  0.7788 -0.3106
 3397TIP3    H231683   5.144   4.540  16.902  0.8852 -0.2315 -0.5680
 3398TIP3   OH231684   6.107   5.239   1.334  0.2947  0.5872 -0.0146
 3398TIP3    H131685   6.033   5.235   1.394  0.3112  1.6912  0.0955
 3398TIP3    H231686   6.171   5.294   1.379  1.3185 -0.5878  0.0249
 3399TIP3   OH231687   0.752   5.151   1.853  0.1236 -0.1663 -0.2508
 3399TIP3    H131688   0.660   5.138   1.877 -0.2461  1.5670 -0.5460
 3399TIP3    H231689   0.782   5.220   1.913  0.3516  1.3776 -2.0489
 3400TIP3   OH231690   5.339   6.449   2.656 -0.6517  0.0425 -0.3811
 3400TIP3    H131691   5.392   6.499   2.719 -0.0622 -0.4176 -0.5019
 3400TIP3    H231692   5.304   6.376   2.707  1.2250 -1.3144 -0.9372
 3401TIP3   OH231693   0.250   0.286   4.218  0.6900 -0.3464  0.0029
 3401TIP3    H131694   0.200   0.231   4.158  0.3610  0.7708 -0.7998
 3401TIP3    H231695   0.341   0.275   4.191  0.5607  0.0058 -0.6060
 3402TIP3   OH231696   4.823   1.138   5.275  0.1192 -0.1364 -0.3933
 3402TIP3    H131697   4.759   1.196   5.316 -0.1279 -1.4503  1.1607
 3402TIP3    H231698   4.906   1.184   5.283  0.1303 -0.4587  1.9121
 3403TIP3   OH231699   5.835   5.988   1.724  0.3264 -0.5398  0.4221
 3403TIP3    H131700   5.771   5.938   1.673  1.5293 -1.4983 -0.2131
 3403TIP3    H231701   5.890   5.921   1.766  2.5932  0.1600 -1.2217
 3404TIP3   OH231702   4.674   5.022   4.355  0.0954  0.0200 -0.1610
 3404TIP3    H131703   4.765   4.996   4.352 -0.3235 -1.4767 -0.6865
 3404TIP3    H231704   4.630   4.968   4.290 -0.8953  1.9475 -1.1972
 3405TIP3   OH231705   3.836   4.779  13.148  0.3111 -0.4799  0.3002
 3405TIP3    H131706   3.886   4.855  13.120 -0.9746  0.5212  0.5993
 3405TIP3    H231707   3.837   4.783  13.243 -2.8358  1.4116  0.4170
 3406TIP3   OH231708   2.194   5.828   3.899 -0.2820 -0.1024  0.7291
 3406TIP3    H131709   2.100   5.814   3.891 -0.3410  0.4959  0.3197
 3406TIP3    H231710   2.209   5.843   3.992 -0.2193 -2.7488  1.2288
 3407TIP3   OH231711   5.165   4.660   3.025 -0.1036 -0.2117  0.3674
 3407TIP3    H131712   5.220   4.631   3.098  1.0805  2.7557  0.7932
 3407TIP3    H231713   5.221   4.648   2.948  1.2884  2.6562  0.7830
 3408TIP3   OH231714   0.314   6.068  12.040 -0.0170 -0.1655 -0.1313
 3408TIP3    H131715   0.334   5.977  12.059 -0.6785 -0.6951 -1.8279
 3408TIP3    H231716   0.400   6.112  12.038  0.3786 -0.9341 -0.1963
 3409TIP3   OH231717   3.102   4.458  14.479  0.4509  0.8817  0.0794
 3409TIP3    H131718   3.156   4.519  14.530  0.4421  0.2606  0.8379
 3409TIP3    H231719   3.124   4.479  14.388  2.6786  0.0573  0.3626
 3410TIP3   OH231720   4.369   6.215   5.333 -0.0335  0.2768  0.1848
 3410TIP3    H131721   4.385   6.258   5.249  0.5777 -2.1918 -1.0521
 3410TIP3    H231722   4.392   6.282   5.398  1.2953  1.6800 -1.5905
 3411TIP3   OH231723   5.638   4.178  13.227 -0.0938  0.2535 -0.0479
 3411TIP3    H131724   5.720   4.143  13.261 -0.2927  0.5293  0.7440
 3411TIP3    H231725   5.652   4.273  13.228  0.0825  0.2488 -1.2366
 3412TIP3   OH231726   4.406   0.913   3.522 -0.6042  0.0238 -0.4800
 3412TIP3    H131727   4.384   1.006   3.510 -0.9341  0.0102 -0.0035
 3412TIP3    H231728   4.371   0.871   3.444 -0.4581  0.2971 -0.6981
 3413TIP3   OH231729   6.021   5.033  13.470 -0.1684  0.2004  1.2823
 3413TIP3    H131730   6.098   5.011  13.521  0.3121  0.1511  0.5540
 3413TIP3    H231731   6.002   5.124  13.492  1.4263  0.9245 -0.1656
 3414TIP3   OH231732   1.894   3.288  11.317  1.0322  0.0586  0.8471
 3414TIP3    H131733   1.853   3.294  11.403  0.0801 -2.1659  0.6234
 3414TIP3    H231734   1.885   3.376  11.280  0.0794  0.6592  2.4108
 3415TIP3   OH231735   2.500   3.638  14.508 -0.2650  0.3902 -0.4027
 3415TIP3    H131736   2.565   3.663  14.442 -1.2097  3.2692 -0.3931
 3415TIP3    H231737   2.455   3.720  14.529 -3.2870 -1.3027  0.2689
 3416TIP3   OH231738   3.795   5.682  11.225 -0.0030 -0.7183  0.1591
 3416TIP3    H131739   3.829   5.603  11.266  0.1186 -0.6495  0.1945
 3416TIP3    H231740   3.705   5.662  11.202 -0.7479 -0.0705  2.3432
 3417TIP3   OH231741   3.782   2.308   4.762  0.4357  0.1771 -1.1004
 3417TIP3    H131742   3.729   2.346   4.692 -1.0668  0.2933  0.0384
 3417TIP3    H231743   3.862   2.360   4.763 -0.4073  1.5236 -1.3718
 3418TIP3   OH231744   1.062   1.978  15.680  0.3440  0.1896  0.7127
 3418TIP3    H131745   1.125   1.926  15.731  2.7718  2.6291  0.4423
 3418TIP3    H231746   1.079   2.068  15.707 -2.5185  1.0609 -0.0678
 3419TIP3   OH231747   5.107   5.663  15.987  0.2538 -0.3748 -0.2950
 3419TIP3    H131748   5.033   5.720  16.010 -0.0648 -0.0963 -1.9173
 3419TIP3    H231749   5.069   5.575  15.986  1.0911 -1.0112  3.8686
 3420TIP3   OH231750   5.748   0.829   5.104 -0.0010  0.0075  0.5574
 3420TIP3    H131751   5.733   0.868   5.190  2.4457 -0.5751  1.3402
 3420TIP3    H231752   5.719   0.895   5.042 -0.5401  1.0054  1.8279
 3421TIP3   OH231753   3.513   3.671  12.652 -0.0159  0.1043  0.2135
 3421TIP3    H131754   3.422   3.641  12.650 -0.1584  0.5424 -1.3615
 3421TIP3    H231755   3.535   3.676  12.745 -1.4710 -0.3872  0.6088
 3422TIP3   OH231756   1.884   1.266   3.210  0.0513  0.3277  0.1957
 3422TIP3    H131757   1.863   1.183   3.253  0.1473  0.4007  0.3899
 3422TIP3    H231758   1.937   1.312   3.275  1.0652  0.0174 -0.3983
 3423TIP3   OH231759   6.199   3.999   0.804 -0.0337  0.4760  0.1934
 3423TIP3    H131760   6.229   3.994   0.713  0.4314  1.4624  0.2837
 3423TIP3    H231761   6.223   3.914   0.841  0.2820  0.2771 -0.4498
 3424TIP3   OH231762   0.901   3.712  10.640  0.7381  0.3559  0.2631
 3424TIP3    H131763   0.958   3.650  10.686  1.0716 -0.6135 -1.3703
 3424TIP3    H231764   0.941   3.798  10.655  1.9556 -0.1701  0.1364
 3425TIP3   OH231765   6.185   4.463   4.802 -0.6805 -0.6157 -0.1660
 3425TIP3    H131766   6.157   4.372   4.814 -1.3717 -0.2737  0.9671
 3425TIP3    H231767   6.117   4.515   4.845 -0.1704  0.4325 -0.5913
 3426TIP3   OH231768   5.457   1.934   1.250  0.3868 -0.6042 -0.5277
 3426TIP3    H131769   5.419   2.014   1.213 -0.7246 -0.9762 -0.2126
 3426TIP3    H231770   5.407   1.919   1.330  1.4972 -0.8687  0.1308
 3427TIP3   OH231771   2.389   2.145   5.579  0.2119 -0.3501  0.1613
 3427TIP3    H131772   2.468   2.090   5.587 -0.6493 -1.7776 -0.6513
 3427TIP3    H231773   2.384   2.164   5.485  0.5651  1.2870  0.4478
 3428TIP3   OH231774   6.368   4.988  16.840  0.3026  0.6851  0.5702
 3428TIP3    H131775   6.396   4.918  16.781  1.1468  0.2200  1.4868
 3428TIP3    H231776   6.381   5.068  16.790 -0.3916  0.2150 -0.3921
 3429TIP3   OH231777   0.165   2.023  12.051  0.3260 -0.4046  0.0383
 3429TIP3    H131778   0.075   1.996  12.032 -0.3755 -0.9964  3.5084
 3429TIP3    H231779   0.171   2.113  12.021 -1.6787 -0.1480  0.3080
 3430TIP3   OH231780   2.291   6.234   1.485  0.3625  0.0182 -0.6481
 3430TIP3    H131781   2.350   6.303   1.454  0.6718 -0.2526 -0.6540
 3430TIP3    H231782   2.253   6.270   1.565  0.7030  0.1033 -0.5222
 3431TIP3   OH231783   3.530   1.599  15.522 -0.1684  0.0957  0.5694
 3431TIP3    H131784   3.476   1.566  15.450  0.1900 -0.7837  0.6859
 3431TIP3    H231785   3.512   1.692  15.525 -0.4762  0.0800 -0.4218
 3432TIP3   OH231786   4.566   6.788  11.362 -0.3407  0.1135 -0.2636
 3432TIP3    H131787   4.614   6.789  11.279  1.8219  1.3599  0.9005
 3432TIP3    H231788   4.515   6.707  11.360  1.1544 -0.8517 -1.9673
 3433TIP3   OH231789   0.500   0.274   6.127 -0.5392  0.0464  0.0521
 3433TIP3    H131790   0.586   0.233   6.118 -0.7997 -0.4315 -0.3283
 3433TIP3    H231791   0.518   0.360   6.164  0.1059 -0.0353 -0.0618
 3434TIP3   OH231792   1.536   1.091  11.345 -0.0350  0.2954  0.3001
 3434TIP3    H131793   1.585   1.094  11.427  0.2413 -1.9970  0.2649
 3434TIP3    H231794   1.599   1.120  11.279  0.5715 -0.4283  0.5526
 3435TIP3   OH231795   0.213   6.291   4.623 -0.3207  0.6592 -0.4244
 3435TIP3    H131796   0.234   6.204   4.587 -2.8060  0.2773 -1.1348
 3435TIP3    H231797   0.255   6.291   4.709  1.4345 -0.4234 -1.2111
 3436TIP3   OH231798   4.407   1.244   4.004  0.1356  0.3818  0.1016
 3436TIP3    H131799   4.345   1.181   4.040  0.8700  0.8638  2.3836
 3436TIP3    H231800   4.482   1.190   3.976  0.7089  0.1683  1.9258
 3437TIP3   OH231801   5.221   3.458  12.465  0.1047 -0.3828  0.1895
 3437TIP3    H131802   5.141   3.494  12.503  0.0105 -1.0004  0.5962
 3437TIP3    H231803   5.201   3.449  12.372 -0.2060 -0.2859  0.2458
 3438TIP3   OH231804   0.313   1.099  16.024  0.4569  0.1585 -0.8193
 3438TIP3    H131805   0.262   1.060  16.094 -0.9101  1.8095 -0.8192
 3438TIP3    H231806   0.350   1.025  15.976 -0.1649 -1.0343  0.4752
 3439TIP3   OH231807   0.643   0.218   5.103 -0.6307  0.5605 -0.1375
 3439TIP3    H131808   0.603   0.224   5.190  2.6845 -0.9950  1.6949
 3439TIP3    H231809   0.588   0.157   5.055 -2.9493  2.0117  0.5238
 3440TIP3   OH231810   5.916   4.690   0.229 -0.2372 -0.0277  0.2522
 3440TIP3    H131811   5.964   4.771   0.244  0.1758  0.0568 -1.3987
 3440TIP3    H231812   5.833   4.703   0.276 -0.1144  1.2813  0.1401
 3441TIP3   OH231813   0.485   1.669   1.868  0.6287  0.2336  0.2350
 3441TIP3    H131814   0.393   1.661   1.891  0.3801  2.4279  0.1893
 3441TIP3    H231815   0.532   1.660   1.951  0.2567  0.7602  0.5035
 3442TIP3   OH231816   4.387   1.710   3.378 -0.3359 -0.4679  0.0535
 3442TIP3    H131817   4.327   1.783   3.366 -1.3143 -1.2705 -0.0333
 3442TIP3    H231818   4.337   1.644   3.425  0.6340 -0.9662  0.4232
 3443TIP3   OH231819   3.913   6.082  14.460 -0.5551  0.0618 -0.6036
 3443TIP3    H131820   3.953   6.035  14.533 -0.0922  0.8546 -0.3375
 3443TIP3    H231821   3.935   6.030  14.383 -0.0829 -0.1723 -0.3124
 3444TIP3   OH231822   4.545   0.495  11.616  0.3312  0.3522 -0.3422
 3444TIP3    H131823   4.492   0.495  11.536 -0.9558 -1.5749  0.4207
 3444TIP3    H231824   4.495   0.550  11.677 -0.5921 -1.0618  0.2194
 3445TIP3   OH231825   1.403   3.602   2.548  0.2002 -0.4330  0.4212
 3445TIP3    H131826   1.373   3.691   2.568 -0.0944 -1.0019  2.8061
 3445TIP3    H231827   1.449   3.610   2.465  1.3982  2.2304  1.2419
 3446TIP3   OH231828   3.739   1.437   4.550  0.1599 -0.2258  0.5037
 3446TIP3    H131829   3.740   1.461   4.643 -0.3379  2.2978 -0.0746
 3446TIP3    H231830   3.820   1.473   4.515 -1.0041  1.5438 -0.5745
 3447TIP3   OH231831   1.375   3.569   5.536  0.4652 -0.5026 -0.6797
 3447TIP3    H131832   1.372   3.541   5.627 -0.2261 -1.1725 -0.8884
 3447TIP3    H231833   1.301   3.630   5.527  1.6365  1.0187 -0.3630
 3448TIP3   OH231834   3.670   0.604  16.607 -0.8690  0.2003 -0.8712
 3448TIP3    H131835   3.765   0.600  16.621 -0.8033  1.5238 -0.7678
 3448TIP3    H231836   3.659   0.661  16.531 -1.5666 -0.3321 -1.1809
 3449TIP3   OH231837   5.383   3.993  11.747  0.2935 -0.4184 -0.3655
 3449TIP3    H131838   5.451   3.948  11.797 -0.5358  0.2846  1.4714
 3449TIP3    H231839   5.305   3.938  11.757 -0.6939  1.2007  1.7692
 3450TIP3   OH231840   1.367   0.328  12.986 -0.0432  0.2022  0.1032
 3450TIP3    H131841   1.395   0.404  12.935 -1.2023  0.4864 -0.1430
 3450TIP3    H231842   1.304   0.284  12.930 -0.4690 -0.1367  0.8339
 3451TIP3   OH231843   0.118   0.653   3.286 -0.1408  0.3397  0.6542
 3451TIP3    H131844   0.169   0.732   3.307 -0.6806  1.3558 -1.5428
 3451TIP3    H231845   0.176   0.603   3.229  0.2797 -1.0353  2.2087
 3452TIP3   OH231846   4.459   3.053  16.361 -0.1704  0.5902 -0.1988
 3452TIP3    H131847   4.368   3.057  16.332  0.2540  0.5932 -1.5960
 3452TIP3    H231848   4.498   2.982  16.309  0.7101  0.8208  0.1236
 3453TIP3   OH231849   1.197   1.019   1.435 -0.1032  0.2474 -0.4035
 3453TIP3    H131850   1.238   0.987   1.516  0.1175  0.3541 -0.4731
 3453TIP3    H231851   1.107   0.987   1.440 -0.3280  0.9771  0.2897
 3454TIP3   OH231852   4.371   5.102   3.180 -0.1047 -0.2650  0.4711
 3454TIP3    H131853   4.395   5.176   3.236 -0.7604  1.0000 -0.8811
 3454TIP3    H231854   4.315   5.139   3.113  0.9763 -1.6667 -1.2897
 3455TIP3   OH231855   1.791   6.196  11.664 -0.4195 -0.5387  0.1595
 3455TIP3    H131856   1.846   6.141  11.609 -0.6095  0.4778 -1.0869
 3455TIP3    H231857   1.701   6.170  11.642 -0.4908 -1.0280  0.9665
 3456TIP3   OH231858   6.702   4.165  15.730  0.0187 -0.0162 -0.0701
 3456TIP3    H131859   6.673   4.148  15.819 -0.5491  0.9849 -0.0458
 3456TIP3    H231860   6.702   4.080  15.687 -1.1908 -0.2907  0.4489
 3457TIP3   OH231861   0.029   6.314  15.820  0.2727  0.0343  0.5699
 3457TIP3    H131862   0.084   6.236  15.821 -0.4324 -0.5227 -0.6139
 3457TIP3    H231863   0.006   6.329  15.911  1.7665 -0.1544  0.9967
 3458TIP3   OH231864   0.832   1.005   0.202 -0.8726 -0.2762  0.1346
 3458TIP3    H131865   0.784   1.077   0.160 -2.1847 -2.2541 -2.0491
 3458TIP3    H231866   0.868   0.955   0.128  1.9416 -0.6579  1.6364
 3459TIP3   OH231867   6.747   3.912  15.247 -0.9615  0.4549  0.3113
 3459TIP3    H131868   6.825   3.934  15.298 -1.6536 -1.5089  2.3632
 3459TIP3    H231869   6.773   3.836  15.194 -1.0385  0.7951 -0.2258
 3460TIP3   OH231870   4.174   0.710  11.990  0.0544 -0.2042 -0.0338
 3460TIP3    H131871   4.230   0.745  12.060 -0.5598  0.3268  0.2054
 3460TIP3    H231872   4.136   0.631  12.027 -1.5057  0.8965  0.8653
 3461TIP3   OH231873   0.894   0.799  14.578 -0.1323 -0.2998  0.2164
 3461TIP3    H131874   0.841   0.877  14.590 -0.1779 -0.1685 -0.8266
 3461TIP3    H231875   0.866   0.740  14.649 -1.2627 -0.0178  0.0166
 3462TIP3   OH231876   1.425   4.418  16.002  0.3178  0.6212  0.5383
 3462TIP3    H131877   1.348   4.474  16.009  0.0883  0.5361 -1.0627
 3462TIP3    H231878   1.499   4.475  16.025 -0.0655  1.1336  0.5033
 3463TIP3   OH231879   6.676   0.476  12.867 -0.4322  0.8005 -0.2862
 3463TIP3    H131880   6.725   0.507  12.791 -0.8647  0.4955 -0.6968
 3463TIP3    H231881   6.586   0.503  12.850 -0.8042 -0.5561 -0.6086
 3464TIP3   OH231882   4.400   1.711   0.791  0.3483 -0.0686  0.6779
 3464TIP3    H131883   4.305   1.694   0.796 -0.2000  2.8607  2.7887
 3464TIP3    H231884   4.410   1.764   0.712 -0.0671  0.8349  1.2062
 3465TIP3   OH231885   4.951   2.775  15.484  0.2850  0.3702 -0.8668
 3465TIP3    H131886   4.978   2.743  15.570 -2.2990  1.1536  0.3215
 3465TIP3    H231887   4.945   2.870  15.494 -3.6845  0.2585 -0.6179
 3466TIP3   OH231888   6.572   2.574   2.558  0.6379  0.4333 -0.3435
 3466TIP3    H131889   6.479   2.580   2.582  0.7401 -0.2016  0.2224
 3466TIP3    H231890   6.571   2.542   2.468  0.3305 -1.1716  0.2051
 3467TIP3   OH231891   1.365   1.182  13.048  0.4292  0.0164 -0.2093
 3467TIP3    H131892   1.325   1.096  13.064 -0.5221  0.2894 -1.0454
 3467TIP3    H231893   1.371   1.189  12.953 -0.2646  1.2014 -0.1890
 3468TIP3   OH231894   4.688   2.550  13.082  0.0921  0.1364  0.4443
 3468TIP3    H131895   4.638   2.501  13.016 -0.0867  0.0906  0.6142
 3468TIP3    H231896   4.777   2.516  13.073 -0.3195 -1.3647  1.6162
 3469TIP3   OH231897   4.675   1.090  12.777 -0.8685 -0.1783 -0.0395
 3469TIP3    H131898   4.629   1.173  12.794 -0.9481 -0.3966  0.8639
 3469TIP3    H231899   4.753   1.095  12.833 -1.1425 -0.9350  0.4193
 3470TIP3   OH231900   0.448   3.705   1.182  0.4461 -0.0004 -0.8026
 3470TIP3    H131901   0.431   3.775   1.244  0.0134  0.1854 -1.1277
 3470TIP3    H231902   0.363   3.663   1.169  0.6133 -0.2971 -0.9610
 3471TIP3   OH231903   1.881   2.796  12.527 -0.0332 -0.6153 -0.3345
 3471TIP3    H131904   1.955   2.781  12.585 -0.6611 -0.9819  0.3882
 3471TIP3    H231905   1.909   2.760  12.442 -0.1962 -2.7734  0.4760
 3472TIP3   OH231906   2.334   6.651   0.041  0.1429  0.1104  0.5680
 3472TIP3    H131907   2.280   6.580   0.076  0.4859  0.1112  1.1040
 3472TIP3    H231908   2.274   6.700  -0.016 -0.0804 -0.6402  0.1385
 3473TIP3   OH231909   4.218   2.541   5.045 -0.0402 -0.0343 -0.5845
 3473TIP3    H131910   4.223   2.635   5.026  1.5949  0.1413  0.5681
 3473TIP3    H231911   4.302   2.519   5.084 -0.3500 -2.0236 -0.9063
 3474TIP3   OH231912   0.948   4.643  14.434  0.5026 -0.0180  0.2572
 3474TIP3    H131913   0.922   4.568  14.381 -1.9826  0.1647  1.0703
 3474TIP3    H231914   0.961   4.714  14.371  1.5832 -0.7821 -0.4042
 3475TIP3   OH231915   0.365   3.208   5.338  0.4480  0.2645  0.1228
 3475TIP3    H131916   0.282   3.248   5.365 -0.6266 -1.4201 -0.5580
 3475TIP3    H231917   0.391   3.258   5.260  0.4130  1.1877  0.6811
 3476TIP3   OH231918   4.610   6.675  14.125  0.3530 -0.5450  0.3003
 3476TIP3    H131919   4.523   6.680  14.164  0.0300 -0.1678 -0.4560
 3476TIP3    H231920   4.661   6.741  14.172  0.5704 -1.5576  1.5475
 3477TIP3   OH231921   4.967   6.356  16.211 -0.8071  1.0790  0.2334
 3477TIP3    H131922   4.936   6.270  16.182  0.9759  0.6023 -0.4149
 3477TIP3    H231923   4.898   6.416  16.184 -2.1647 -0.1435  0.8332
 3478TIP3   OH231924   3.795   1.971  10.734 -0.3899 -0.1724  0.1189
 3478TIP3    H131925   3.765   1.987  10.645  0.7590 -3.1533 -0.9105
 3478TIP3    H231926   3.886   1.998  10.734 -0.5260  0.3004  0.5560
 3479TIP3   OH231927   5.652   6.576  16.345  0.0891 -1.0415 -0.2507
 3479TIP3    H131928   5.667   6.491  16.304  2.1879 -1.2747  0.8617
 3479TIP3    H231929   5.727   6.629  16.317  0.0404 -0.3174  0.9608
 3480TIP3   OH231930   1.921   2.272  15.216  0.1498  0.5239  0.9264
 3480TIP3    H131931   1.968   2.221  15.151 -0.8819  0.1309  0.4637
 3480TIP3    H231932   1.856   2.321  15.165 -0.0955  0.8742  1.5656
 3481TIP3   OH231933   2.397   2.897   3.139 -0.0621  0.0636  0.7777
 3481TIP3    H131934   2.384   2.802   3.143  1.4211 -0.3581 -1.8325
 3481TIP3    H231935   2.345   2.925   3.064  2.0347  0.7049 -0.5134
 3482TIP3   OH231936   6.479   0.352   5.703 -0.0673  0.0954 -0.1726
 3482TIP3    H131937   6.481   0.323   5.612 -0.1650 -0.8115  0.1079
 3482TIP3    H231938   6.386   0.353   5.727 -0.0130 -0.1540  0.0612
 3483TIP3   OH231939   5.641   3.409   0.088 -0.4002  0.2482  0.2946
 3483TIP3    H131940   5.734   3.397   0.108 -0.7459 -1.6841  1.0015
 3483TIP3    H231941   5.639   3.437  -0.003  0.9052  1.3989  0.5887
 3484TIP3   OH231942   3.054   3.390   6.552  0.6326 -0.3415 -0.7071
 3484TIP3    H131943   3.118   3.404   6.622  1.0399 -0.8211 -0.9780
 3484TIP3    H231944   3.017   3.477   6.537 -0.2067 -0.3973  0.8001
 3485TIP3   OH231945   1.023   1.197  11.137 -0.9977 -0.5483  0.5724
 3485TIP3    H131946   1.002   1.253  11.062 -1.7981 -0.5831  0.7542
 3485TIP3    H231947   1.062   1.256  11.201  1.1457 -0.7887 -0.4315
 3486TIP3   OH231948   0.261   3.825  15.018  0.3680 -0.0708 -0.1750
 3486TIP3    H131949   0.266   3.749  14.960  0.2228  0.0370 -0.3320
 3486TIP3    H231950   0.300   3.896  14.968 -0.4708  0.2068 -0.4591
 3487TIP3   OH231951   2.464   6.397   1.341  0.0641  0.1562  0.2014
 3487TIP3    H131952   2.498   6.487   1.340  0.8579 -0.1349 -1.4606
 3487TIP3    H231953   2.407   6.392   1.264  1.9767 -1.4529 -1.2038
 3488TIP3   OH231954   4.644   0.570   3.127  0.0652  0.2628 -0.4998
 3488TIP3    H131955   4.574   0.595   3.186  0.2713  0.0837 -0.1780
 3488TIP3    H231956   4.632   0.626   3.050 -0.2316  0.4571 -0.3122
 3489TIP3   OH231957   5.979   3.386  15.644 -0.1407  0.3505 -0.0692
 3489TIP3    H131958   5.940   3.325  15.582 -1.4282  2.2784 -1.2866
 3489TIP3    H231959   6.063   3.347  15.667 -0.9934 -1.9519 -0.5835
 3490TIP3   OH231960   6.783   0.261   3.551  0.3047  0.1624 -0.3024
 3490TIP3    H131961   6.816   0.174   3.529 -0.1313 -0.2991  0.8153
 3490TIP3    H231962   6.857   0.304   3.595 -0.1262 -0.4164  1.0463
 3491TIP3   OH231963   5.659   3.531   2.342 -0.3669  0.3236 -0.3031
 3491TIP3    H131964   5.573   3.509   2.379 -0.2251  0.8150  0.3319
 3491TIP3    H231965   5.664   3.479   2.261 -0.2489 -1.6044  0.8819
 3492TIP3   OH231966   3.425   5.990  16.986  0.0913  0.5762 -0.7093
 3492TIP3    H131967   3.379   5.930  16.927  0.9791 -0.7182 -0.1447
 3492TIP3    H231968   3.361   6.010  17.054  0.4470 -1.6769  0.3976
 3493TIP3   OH231969   5.580   2.953  11.303 -0.6054  0.9176 -0.0217
 3493TIP3    H131970   5.567   3.023  11.239 -2.9142  0.9443  0.3628
 3493TIP3    H231971   5.491   2.929  11.330  0.1709 -1.2438  0.8635
 3494TIP3   OH231972   5.682   0.657  13.696  0.4493 -0.1185 -0.3966
 3494TIP3    H131973   5.623   0.729  13.716  0.9185 -0.3598  2.0871
 3494TIP3    H231974   5.763   0.700  13.667  0.1770  0.2757 -0.5933
 3495TIP3   OH231975   3.534   2.291  12.152 -0.4417  0.0611 -0.3213
 3495TIP3    H131976   3.512   2.208  12.108  0.1496 -0.2486 -0.0324
 3495TIP3    H231977   3.454   2.343  12.145 -0.6227 -0.2969 -1.0496
 3496TIP3   OH231978   5.782   0.879   5.385  0.0844 -0.4954  0.2406
 3496TIP3    H131979   5.724   0.909   5.454 -1.4209 -0.8518 -0.8210
 3496TIP3    H231980   5.854   0.942   5.384 -1.8563  1.8292 -0.4530
 3497TIP3   OH231981   4.844   1.322   0.686 -0.0431  0.4439 -0.3143
 3497TIP3    H131982   4.828   1.392   0.623 -0.8384 -0.4404 -1.1144
 3497TIP3    H231983   4.825   1.241   0.639 -2.6576 -0.1907  1.6277
 3498TIP3   OH231984   3.239   2.357  17.037 -0.4943  0.7414 -0.4006
 3498TIP3    H131985   3.183   2.379  16.962 -0.4175  0.1868 -0.6177
 3498TIP3    H231986   3.276   2.272  17.016 -0.3016  0.6805  0.1717
 3499TIP3   OH231987   4.891   0.515  13.103  0.2173  0.6320  0.3394
 3499TIP3    H131988   4.904   0.582  13.035 -1.2279 -0.5645 -1.2178
 3499TIP3    H231989   4.815   0.545  13.152  0.0139  0.4912  0.1108
 3500TIP3   OH231990   1.192   2.983   0.993 -0.7249  0.2226  0.7692
 3500TIP3    H131991   1.154   3.038   0.925 -0.7398 -0.5882  0.1197
 3500TIP3    H231992   1.286   2.999   0.987 -0.7432  0.3086  0.7086
 3501TIP3   OH231993   5.188   4.340  15.270 -0.2493 -0.8572  0.3154
 3501TIP3    H131994   5.215   4.355  15.361 -0.4105 -0.6157  0.3247
 3501TIP3    H231995   5.213   4.249  15.252  0.6828 -0.6053  0.2839
 3502TIP3   OH231996   2.775   1.038   4.322 -0.5795 -0.4215  0.4974
 3502TIP3    H131997   2.733   1.031   4.236 -1.7113  3.0625  0.6047
 3502TIP3    H231998   2.703   1.031   4.385 -0.1576 -0.2240  1.0126
 3503TIP3   OH231999   5.376   3.673   6.485 -0.3773  0.3573  0.2022
 3503TIP3    H132000   5.464   3.642   6.465  1.1319  1.9785  3.4497
 3503TIP3    H232001   5.319   3.599   6.465  1.7323 -0.8815 -1.6908
 3504TIP3   OH232002   0.002   0.461   1.733  0.1817 -0.2098 -0.3390
 3504TIP3    H132003  -0.022   0.464   1.826 -0.0246  0.1937 -0.3993
 3504TIP3    H232004  -0.065   0.516   1.690  0.9041  0.5032 -0.5821
 3505TIP3   OH232005   1.185   4.841  13.671 -0.5192 -0.3940  0.1286
 3505TIP3    H132006   1.129   4.814  13.744 -0.3034 -1.1184  0.0364
 3505TIP3    H232007   1.255   4.891  13.712 -1.8657  1.6253  0.1283
 3506TIP3   OH232008   5.676   2.774   1.421  0.7155  0.0029 -0.3262
 3506TIP3    H132009   5.655   2.844   1.358  2.5043 -0.5885 -1.6637
 3506TIP3    H232010   5.761   2.799   1.457  0.3990 -0.4503  0.7474
 3507TIP3   OH232011   0.782   6.171  15.577 -0.0041  0.5523  0.0223
 3507TIP3    H132012   0.875   6.180  15.599 -0.0689  0.5476  0.2993
 3507TIP3    H232013   0.781   6.169  15.481  0.2449  0.9588  0.0054
 3508TIP3   OH232014   2.536   0.820   3.259 -0.0078 -0.1125  0.1694
 3508TIP3    H132015   2.618   0.869   3.259  0.7007 -1.1887  2.2377
 3508TIP3    H232016   2.469   0.886   3.242  1.0075  1.4071  1.8099
 3509TIP3   OH232017   3.276   4.054  11.064  0.1117  0.1673  0.2880
 3509TIP3    H132018   3.211   4.083  11.001  1.7201 -1.1638 -2.1251
 3509TIP3    H232019   3.283   3.959  11.050  2.8899  0.3281  0.0413
 3510TIP3   OH232020   0.934   4.656  17.173 -0.0446  0.1923  0.6170
 3510TIP3    H132021   0.952   4.749  17.154 -1.0460  0.6908  2.0023
 3510TIP3    H232022   1.021   4.619  17.190  0.3443  0.9288  0.3190
 3511TIP3   OH232023   4.034   3.540   0.444  0.1660  0.5488  0.2140
 3511TIP3    H132024   3.962   3.516   0.387  2.2793  0.6333 -2.7012
 3511TIP3    H232025   4.026   3.635   0.453  0.2886  0.6468 -0.6594
 3512TIP3   OH232026   5.419   0.610   2.467 -0.4779  0.1675 -0.2805
 3512TIP3    H132027   5.355   0.597   2.396  1.2250 -0.9603 -1.7054
 3512TIP3    H232028   5.470   0.686   2.440 -1.0245  0.9308  0.7479
 3513TIP3   OH232029   5.056   1.017  14.419  0.2103 -0.1870  0.4138
 3513TIP3    H132030   5.103   0.979  14.493 -0.0618  0.7952  1.1167
 3513TIP3    H232031   4.965   0.988  14.432  0.3321 -0.8136 -0.0859
 3514TIP3   OH232032   2.763   5.738  14.535  0.0041  0.0631  0.0351
 3514TIP3    H132033   2.855   5.713  14.528  0.0579  0.1564  0.3743
 3514TIP3    H232034   2.763   5.833  14.530  0.3110  0.3835  3.3822
 3515TIP3   OH232035   3.427   3.592  12.276  0.7364 -0.0183 -0.1416
 3515TIP3    H132036   3.513   3.624  12.248  0.4341  0.0688 -0.9884
 3515TIP3    H232037   3.365   3.656  12.242  0.2520 -0.6087 -0.3886
 3516TIP3   OH232038   1.976   0.358   4.779 -0.0933 -0.0902 -0.2699
 3516TIP3    H132039   2.032   0.435   4.788 -0.3641 -0.0427  1.2798
 3516TIP3    H232040   2.037   0.284   4.778  0.0308 -0.0500  1.5638
 3517TIP3   OH232041   2.156   1.405   5.938  0.2436 -0.0885  0.0892
 3517TIP3    H132042   2.205   1.430   6.016 -1.7226  4.1974  0.2476
 3517TIP3    H232043   2.115   1.321   5.961 -1.0500  1.4394  4.1555
 3518TIP3   OH232044   5.654   4.221  16.953  0.6076  0.2294  0.2232
 3518TIP3    H132045   5.597   4.161  17.000  2.5596 -1.0912  1.0470
 3518TIP3    H232046   5.662   4.183  16.865 -1.2307  1.4728 -0.5520
 3519TIP3   OH232047   6.132   2.690   3.049 -0.2986  0.3174 -0.2920
 3519TIP3    H132048   6.040   2.717   3.054 -0.6317 -0.5966 -1.1123
 3519TIP3    H232049   6.150   2.684   2.955  0.3176 -0.4261 -0.1340
 3520TIP3   OH232050   0.281   6.776   6.010 -0.2248  0.2200 -0.1303
 3520TIP3    H132051   0.218   6.772   6.082  0.8670  2.3059  1.0534
 3520TIP3    H232052   0.363   6.802   6.052  0.2670  2.3501 -2.1857
 3521TIP3   OH232053   3.253   0.692   4.063  0.4731 -0.3281  0.6168
 3521TIP3    H132054   3.195   0.705   4.139  0.4761  0.8829  0.4293
 3521TIP3    H232055   3.339   0.675   4.102  0.1046 -1.7231  0.8917
 3522TIP3   OH232056   1.009   3.507  11.041 -0.0160 -0.1950  0.0649
 3522TIP3    H132057   0.985   3.597  11.062 -3.3377 -0.9749  0.1670
 3522TIP3    H232058   1.016   3.505  10.946 -0.3648  0.0938  0.0297
 3523TIP3   OH232059   3.758   0.712  13.967 -0.5264  0.0086 -0.1768
 3523TIP3    H132060   3.755   0.750  14.055 -0.1227  2.1405 -1.0224
 3523TIP3    H232061   3.676   0.664  13.959  0.0696 -1.5171  1.8705
 3524TIP3   OH232062   6.586   5.924   1.488  0.0084  0.0806 -0.0304
 3524TIP3    H132063   6.675   5.894   1.467 -0.0273 -0.1131  0.0877
 3524TIP3    H232064   6.597   6.015   1.515 -0.1330  0.8987 -2.4647
 3525TIP3   OH232065   3.529   6.292  16.957  0.5441 -0.2584 -0.0357
 3525TIP3    H132066   3.543   6.201  16.932  0.5308 -0.4901  0.7553
 3525TIP3    H232067   3.577   6.302  17.040  1.0108  0.6051 -0.3930
 3526TIP3   OH232068   6.498   3.884   5.984  0.8389 -0.2560  0.3557
 3526TIP3    H132069   6.491   3.826   6.060 -2.3424  1.1338  1.3198
 3526TIP3    H232070   6.543   3.962   6.017 -0.5074  0.3310  0.9010
 3527TIP3   OH232071   3.068   1.500   1.381  0.0943 -0.5625 -0.1815
 3527TIP3    H132072   3.004   1.434   1.357  0.5274 -0.9687 -0.2485
 3527TIP3    H232073   3.038   1.580   1.339 -0.5269 -0.6749  0.0375
 3528TIP3   OH232074   5.923   4.330   2.714 -0.5816 -0.4246 -0.1363
 3528TIP3    H132075   5.927   4.412   2.663 -2.5031 -0.1252  0.1296
 3528TIP3    H232076   5.848   4.283   2.677 -1.1292 -0.8531  1.4664
 3529TIP3   OH232077   1.491   0.349  11.738  0.4534 -0.2467 -0.4326
 3529TIP3    H132078   1.582   0.363  11.762  0.0933  0.6439  0.4883
 3529TIP3    H232079   1.453   0.437  11.734 -0.0811 -0.5149 -2.0199
 3530TIP3   OH232080   2.811   3.200  14.081  0.2108  0.7094  0.3347
 3530TIP3    H132081   2.734   3.256  14.080 -1.1626 -1.0963 -1.2664
 3530TIP3    H232082   2.859   3.222  14.001  1.2991  1.6386  1.1906
 3531TIP3   OH232083   5.024   5.086  13.215  0.0768  0.5064  0.9960
 3531TIP3    H132084   5.098   5.031  13.243 -0.9360 -0.1324  2.5800
 3531TIP3    H232085   5.064   5.169  13.190  1.4608 -0.2819  0.4825
 3532TIP3   OH232086   2.375   6.718   2.583 -0.1158 -0.5833  0.1305
 3532TIP3    H132087   2.453   6.769   2.559  0.0586 -1.3940 -1.0968
 3532TIP3    H232088   2.397   6.628   2.559 -2.2385 -0.5382 -2.3925
 3533TIP3   OH232089   5.711   2.170  12.407 -0.2294 -0.0807  0.0191
 3533TIP3    H132090   5.748   2.084  12.428 -1.6636 -0.8140 -0.3026
 3533TIP3    H232091   5.623   2.168  12.444 -0.1585  1.4011  0.3079
 3534TIP3   OH232092   3.933   0.725  16.999 -0.1579 -0.2107  0.4315
 3534TIP3    H132093   3.942   0.637  17.036  0.6454 -0.6689 -0.7974
 3534TIP3    H232094   3.841   0.747  17.012 -0.3570 -1.2033  0.8100
 3535TIP3   OH232095   1.908   2.201  11.190 -0.4301 -0.1033 -0.5503
 3535TIP3    H132096   1.875   2.123  11.235  0.7702 -0.2769  0.0705
 3535TIP3    H232097   1.903   2.179  11.097 -0.6566 -0.6849 -0.4075
 3536TIP3   OH232098   3.270   5.566  16.619 -0.3467 -0.4813 -0.3715
 3536TIP3    H132099   3.174   5.570  16.611 -0.5642 -2.0567  0.9883
 3536TIP3    H232100   3.287   5.587  16.711  0.5230 -1.4019 -0.3093
 3537TIP3   OH232101   1.845   4.808   1.869 -0.3303 -0.1064 -0.5698
 3537TIP3    H132102   1.937   4.829   1.888 -0.2386 -1.0483  0.0493
 3537TIP3    H232103   1.849   4.731   1.813 -0.7563 -0.4226 -0.1673
 3538TIP3   OH232104   2.790   2.885   0.775  0.9885  0.1751  0.1952
 3538TIP3    H132105   2.796   2.980   0.776 -0.2675  0.2794  0.1809
 3538TIP3    H232106   2.738   2.863   0.853 -0.7176 -0.2883 -0.9980
 3539TIP3   OH232107   0.289   1.222  12.804 -0.3376 -0.0808 -0.1254
 3539TIP3    H132108   0.300   1.316  12.787  0.8710 -0.6113 -2.7367
 3539TIP3    H232109   0.194   1.211  12.815 -0.9176  1.0386 -3.0959
 3540TIP3   OH232110   3.048   0.946   5.197 -0.0217  0.4165  0.0370
 3540TIP3    H132111   2.963   0.976   5.230 -0.3039 -0.5137  0.2058
 3540TIP3    H232112   3.104   1.023   5.200 -0.9186  1.0941 -0.2633
 3541TIP3   OH232113   1.783   3.241  13.746  0.2969  0.1744  0.2830
 3541TIP3    H132114   1.784   3.148  13.766 -0.3408 -0.3045 -1.6604
 3541TIP3    H232115   1.735   3.281  13.819  1.7393 -0.7875  1.8369
 3542TIP3   OH232116   0.688   0.836   6.391  0.6139 -0.6894  0.3171
 3542TIP3    H132117   0.596   0.811   6.395  0.3146  0.1501 -1.0224
 3542TIP3    H232118   0.690   0.928   6.419  0.7193 -0.0172 -1.7587
 3543TIP3   OH232119   2.654   6.618  10.440 -0.1888 -0.5061 -0.1092
 3543TIP3    H132120   2.608   6.702  10.430  0.8941  0.0316 -0.6605
 3543TIP3    H232121   2.745   6.642  10.454 -0.0795 -1.5576  1.1779
 3544TIP3   OH232122   1.936   3.577  17.199  0.1149  0.4481  0.1023
 3544TIP3    H132123   1.969   3.601  17.113  1.1112  1.2101  0.6642
 3544TIP3    H232124   1.844   3.605  17.199 -0.0420 -0.0497 -0.8755
 3545TIP3   OH232125   6.320   1.656  15.632 -0.3781  0.2844  0.6761
 3545TIP3    H132126   6.342   1.564  15.647 -0.2331  0.5217  1.9943
 3545TIP3    H232127   6.235   1.653  15.589 -0.2510 -0.4741  0.4616
 3546TIP3   OH232128   0.613   1.550  11.584  0.2686 -0.0665 -0.1943
 3546TIP3    H132129   0.581   1.474  11.632 -1.2515  0.3486 -0.4966
 3546TIP3    H232130   0.554   1.621  11.609 -1.0237  0.0251 -3.0974
 3547TIP3   OH232131   5.521   6.466  13.970  0.1964  0.1981 -0.0488
 3547TIP3    H132132   5.484   6.431  14.051  1.2764  2.1317  1.3625
 3547TIP3    H232133   5.495   6.403  13.903 -0.8316 -1.4218  1.7612
 3548TIP3   OH232134   0.227   5.513   6.333 -0.0956 -0.1998  0.4947
 3548TIP3    H132135   0.146   5.486   6.289  0.6119  0.0327 -0.9899
 3548TIP3    H232136   0.269   5.573   6.272  2.2447 -1.9511  0.2608
 3549TIP3   OH232137   1.005   1.269  10.813  0.0062 -0.1815  0.1828
 3549TIP3    H132138   0.992   1.176  10.795 -0.2691 -0.2645  0.7720
 3549TIP3    H232139   0.930   1.312  10.772 -0.6463 -0.3736  1.1490
 3550TIP3   OH232140   4.359   4.273  13.542 -0.0952 -0.4487  0.2754
 3550TIP3    H132141   4.408   4.327  13.480  0.4179 -2.4802 -1.1906
 3550TIP3    H232142   4.282   4.325  13.563  0.7380  1.1603 -0.4788
 3551TIP3   OH232143   2.253   1.083  10.779  0.3104 -0.1762  0.0966
 3551TIP3    H132144   2.283   1.032  10.854 -0.9184 -0.0062  0.7417
 3551TIP3    H232145   2.170   1.041  10.754 -0.4442  1.1598  0.2939
 3552TIP3   OH232146   0.602   2.404   6.234 -0.4102 -0.7452 -0.5220
 3552TIP3    H132147   0.659   2.479   6.252 -0.0906 -1.0513 -0.2527
 3552TIP3    H232148   0.621   2.381   6.143 -0.1957 -0.7667 -0.4724
 3553TIP3   OH232149   6.774   4.984  13.805 -0.1275 -0.3653  0.0406
 3553TIP3    H132150   6.757   4.907  13.751  0.8962 -1.2387  0.9097
 3553TIP3    H232151   6.707   4.980  13.873  0.0141 -0.5759  0.1695
 3554TIP3   OH232152   3.134   4.451   1.853 -0.0845 -0.4322  0.2250
 3554TIP3    H132153   3.153   4.426   1.944  1.0854 -0.9486 -0.1361
 3554TIP3    H232154   3.191   4.395   1.801 -0.1877  0.3897 -0.7941
 3555TIP3   OH232155   3.766   5.601  16.521  0.3720 -0.0196  0.3159
 3555TIP3    H132156   3.675   5.628  16.513  0.0016 -1.7335 -2.3586
 3555TIP3    H232157   3.796   5.641  16.603 -2.2963  1.8551  0.4851
 3556TIP3   OH232158   3.932   2.599   4.018 -0.3239 -0.3612  0.1157
 3556TIP3    H132159   3.887   2.661   4.075 -0.2832 -0.7324  0.5581
 3556TIP3    H232160   4.025   2.624   4.024 -0.3056 -0.4720  0.3074
 3557TIP3   OH232161   4.389   3.923   5.123  0.3499  0.5355  0.1842
 3557TIP3    H132162   4.370   3.830   5.111 -0.1200  0.5852  0.5415
 3557TIP3    H232163   4.480   3.932   5.095  0.8334 -0.2747  1.4018
 3558TIP3   OH232164   0.184   3.712  11.301 -0.2559 -0.5453  0.1328
 3558TIP3    H132165   0.183   3.668  11.386  1.5108 -0.3537  0.2878
 3558TIP3    H232166   0.111   3.775  11.305  1.1173  1.0382  2.3773
 3559TIP3   OH232167   5.240   2.770   2.421 -0.1304 -0.2834 -0.6900
 3559TIP3    H132168   5.187   2.755   2.499  1.0048 -1.1280 -0.0355
 3559TIP3    H232169   5.320   2.720   2.437  0.4341  0.1203 -2.0849
 3560TIP3   OH232170   0.914   3.882  15.820 -0.6560 -0.3133 -0.5789
 3560TIP3    H132171   0.930   3.947  15.752 -1.6901 -0.3568 -0.8769
 3560TIP3    H232172   0.973   3.908  15.892  0.0304  0.0600 -1.2604
 3561TIP3   OH232173   5.436   6.250   1.856  0.4170  0.4906 -0.5017
 3561TIP3    H132174   5.497   6.302   1.804 -1.1916  0.9480 -2.0297
 3561TIP3    H232175   5.409   6.309   1.927  3.2131 -0.3974  1.4656
 3562TIP3   OH232176   3.189   4.469  14.196 -0.1585 -0.7253  0.5389
 3562TIP3    H132177   3.135   4.461  14.117  0.4337 -0.3896  0.0865
 3562TIP3    H232178   3.262   4.524  14.169 -1.4574  2.0097  2.0973
 3563TIP3   OH232179   2.686   3.091  14.299 -0.1202 -0.1774 -0.6450
 3563TIP3    H132180   2.757   3.089  14.363 -0.1792  0.7573 -0.5356
 3563TIP3    H232181   2.730   3.107  14.215 -0.0033 -1.7943 -0.9229
 3564TIP3   OH232182   0.221   5.068  11.785  0.2156  0.2433  0.0383
 3564TIP3    H132183   0.242   5.076  11.878  3.0144 -0.5674 -0.4498
 3564TIP3    H232184   0.287   5.121  11.740 -0.0242 -0.7646 -1.5899
 3565TIP3   OH232185   3.470   2.081   4.130  0.0649 -0.1415 -0.6674
 3565TIP3    H132186   3.556   2.117   4.152 -0.2895  0.6447 -0.5355
 3565TIP3    H232187   3.464   2.091   4.035  0.6825 -1.4848 -0.8631
 3566TIP3   OH232188   5.200   2.011  13.004  0.2435  0.2242  0.0688
 3566TIP3    H132189   5.106   2.022  13.010  0.2636 -0.1353  2.0298
 3566TIP3    H232190   5.213   1.917  12.992  0.3589  0.4889 -2.4214
 3567TIP3   OH232191   6.196   1.927   4.392 -0.2323  0.5620 -0.0076
 3567TIP3    H132192   6.220   1.846   4.437 -1.6176  0.7665  1.1682
 3567TIP3    H232193   6.249   1.927   4.312  0.2913 -1.1592  0.3077
 3568TIP3   OH232194   5.603   0.568  15.705 -0.1405 -0.6707 -0.1008
 3568TIP3    H132195   5.574   0.478  15.692 -2.6725  0.0443  0.0895
 3568TIP3    H232196   5.673   0.580  15.641  0.5190 -2.8571  0.1343
 3569TIP3   OH232197   4.424   6.455  16.821 -0.0861 -0.3186 -0.1716
 3569TIP3    H132198   4.480   6.386  16.785 -1.5913 -0.6295 -2.0867
 3569TIP3    H232199   4.484   6.514  16.866  1.8018 -0.6559 -2.0984
 3570TIP3   OH232200   3.513   5.296   2.955 -0.3825 -0.8052  0.0899
 3570TIP3    H132201   3.533   5.224   2.895  1.5478  0.6666 -1.2054
 3570TIP3    H232202   3.581   5.291   3.022  1.2459  1.0116 -1.2710
 3571TIP3   OH232203   2.990   2.243  12.272 -0.5087  0.5080  0.2256
 3571TIP3    H132204   3.009   2.337  12.276 -1.1947  0.6883 -0.5428
 3571TIP3    H232205   3.075   2.201  12.258 -0.1936  1.0009  0.6195
 3572TIP3   OH232206   0.629   0.739  11.009 -0.1167  0.1599  0.0605
 3572TIP3    H132207   0.695   0.802  10.981  0.8404 -1.1111 -0.6687
 3572TIP3    H232208   0.660   0.655  10.974 -2.7624 -0.3061 -1.4349
 3573TIP3   OH232209   4.522   4.210   2.444  0.1894  0.7677 -0.0744
 3573TIP3    H132210   4.588   4.159   2.396 -0.0977  0.7010 -0.4017
 3573TIP3    H232211   4.557   4.216   2.533 -0.5806 -1.4941  0.4381
 3574TIP3   OH232212   0.285   4.536   4.352  0.0991 -0.1774 -0.1599
 3574TIP3    H132213   0.312   4.627   4.367 -0.3423 -0.0274 -0.2489
 3574TIP3    H232214   0.191   4.536   4.370  0.1455 -0.6761  0.0828
 3575TIP3   OH232215   4.460   4.790  16.134  0.1964 -0.3077 -0.2944
 3575TIP3    H132216   4.515   4.824  16.204  1.0098  0.1111 -1.1285
 3575TIP3    H232217   4.373   4.784  16.174  0.6864 -0.3111  0.8240
 3576TIP3   OH232218   4.480   5.977   1.299  0.8949  0.2128 -0.5355
 3576TIP3    H132219   4.412   5.976   1.366  1.8249  2.0911  0.5075
 3576TIP3    H232220   4.513   5.887   1.297  0.7945  0.1014  1.4598
 3577TIP3   OH232221   5.705   4.988   0.380  0.2398 -0.6071 -0.1138
 3577TIP3    H132222   5.665   5.060   0.332 -0.2797 -1.1382 -0.4881
 3577TIP3    H232223   5.645   4.915   0.369  0.9126 -1.1912 -0.0048
 3578TIP3   OH232224   3.726   4.045   3.302  0.3601  0.2401  0.4258
 3578TIP3    H132225   3.656   4.079   3.358  0.6393  1.3110  0.1559
 3578TIP3    H232226   3.797   4.024   3.362  0.0052 -0.3714  0.6473
 3579TIP3   OH232227   1.651   4.590  16.099  0.4079 -0.4514  0.0667
 3579TIP3    H132228   1.661   4.625  16.187  1.7042  1.5625 -0.8182
 3579TIP3    H232229   1.706   4.511  16.098  1.2768  0.1286  0.7404
 3580TIP3   OH232230   3.663   0.778  11.860  0.9052  0.0623 -0.6803
 3580TIP3    H132231   3.759   0.768  11.861  1.0874  1.3926 -2.2714
 3580TIP3    H232232   3.632   0.698  11.818  1.2889 -0.4781  0.0377
 3581TIP3   OH232233   5.178   4.297   3.181  0.2150  0.6270 -0.3219
 3581TIP3    H132234   5.106   4.236   3.166  0.6040 -0.0740  0.5204
 3581TIP3    H232235   5.256   4.250   3.151  0.5249  0.6757  0.3876
 3582TIP3   OH232236   2.812   5.216   4.265 -0.0011 -0.4819 -0.0515
 3582TIP3    H132237   2.718   5.227   4.281  0.4541  1.2547  1.7054
 3582TIP3    H232238   2.855   5.252   4.342  2.1677 -0.0133 -1.3818
 3583TIP3   OH232239   3.992   2.487  12.045 -0.5689  0.0091 -0.3287
 3583TIP3    H132240   4.041   2.450  12.118  0.9746  1.4824 -0.5558
 3583TIP3    H232241   3.913   2.524  12.085  0.4680  1.1833  0.7070
 3584TIP3   OH232242   2.642   3.043   0.510  0.5401 -0.0591 -0.0905
 3584TIP3    H132243   2.673   2.954   0.522  2.0850  0.3539 -0.8036
 3584TIP3    H232244   2.578   3.055   0.580  1.2225 -1.3147  0.7957
 3585TIP3   OH232245   6.371   4.787  12.393  0.3097 -0.1311 -0.2778
 3585TIP3    H132246   6.414   4.868  12.420 -0.1224  0.1971 -0.5601
 3585TIP3    H232247   6.362   4.796  12.298 -0.0685 -0.3497 -0.2618
 3586TIP3   OH232248   5.171   3.243   5.361 -0.2432  0.1851  0.2322
 3586TIP3    H132249   5.252   3.254   5.311  0.5626 -1.7028  1.0213
 3586TIP3    H232250   5.187   3.287   5.444  0.6049 -1.4020  0.9674
 3587TIP3   OH232251   1.036   6.010  12.602  0.3604 -0.1293 -0.3057
 3587TIP3    H132252   1.037   6.077  12.670 -0.7952 -0.8040  0.4131
 3587TIP3    H232253   0.994   6.053  12.527  3.0572  1.1210 -1.2169
 3588TIP3   OH232254   0.267   0.304  11.288 -0.1470  0.1923  0.1886
 3588TIP3    H132255   0.205   0.345  11.228  0.3397 -0.2950 -0.6819
 3588TIP3    H232256   0.264   0.211  11.265  1.4787  0.2560 -0.4538
 3589TIP3   OH232257   5.982   2.295  13.276 -0.2955 -0.1143  0.0283
 3589TIP3    H132258   5.952   2.385  13.260 -1.5514 -0.3827  0.7547
 3589TIP3    H232259   5.913   2.256  13.329 -0.1374 -1.7592 -0.9119
 3590TIP3   OH232260   5.689   4.283  11.876 -0.6601 -0.4794  0.5203
 3590TIP3    H132261   5.763   4.338  11.852 -1.4017 -0.1026 -1.0019
 3590TIP3    H232262   5.671   4.306  11.968  0.5139  0.0864  0.6265
 3591TIP3   OH232263   2.036   1.674  12.359  0.1704  0.1003  0.0011
 3591TIP3    H132264   2.106   1.705  12.417 -0.9924  2.2436  0.3516
 3591TIP3    H232265   1.981   1.751  12.344 -1.6084 -1.2833 -1.0104
 3592TIP3   OH232266   3.682   4.025   5.130 -0.2521 -0.5117 -0.3743
 3592TIP3    H132267   3.649   4.086   5.196  2.0243 -0.3444  0.7157
 3592TIP3    H232268   3.754   4.072   5.089  2.6693 -2.8665  1.5938
 3593TIP3   OH232269   1.953   4.869  16.315  0.2695  0.2497 -0.7086
 3593TIP3    H132270   1.996   4.865  16.230  0.0548  2.1413 -0.9500
 3593TIP3    H232271   1.976   4.956  16.350  2.8416 -1.4845  2.5297
 3594TIP3   OH232272   5.270   2.424  11.041 -0.1148 -0.1266 -0.0959
 3594TIP3    H132273   5.311   2.469  11.114  0.0632  1.4874 -1.1337
 3594TIP3    H232274   5.325   2.446  10.965 -0.6092 -1.2795 -0.8151
 3595TIP3   OH232275   5.289   5.503  15.139 -0.5579 -0.8418  0.0112
 3595TIP3    H132276   5.320   5.561  15.069 -0.1622 -1.4349 -0.3043
 3595TIP3    H232277   5.194   5.516  15.140 -0.2653  2.2698  2.0928
 3596TIP3   OH232278   1.056   1.509   5.510 -0.0229 -0.2207  0.0087
 3596TIP3    H132279   1.043   1.573   5.580  0.1520  0.9813 -1.0175
 3596TIP3    H232280   0.994   1.534   5.442  1.6432  0.3263 -1.3773
 3597TIP3   OH232281   5.830   1.389  14.546 -0.4563 -0.1055  0.2380
 3597TIP3    H132282   5.772   1.313  14.557 -0.7688  0.0041 -0.5979
 3597TIP3    H232283   5.915   1.350  14.523  0.1732 -0.3327  2.6459
 3598TIP3   OH232284   1.943   4.191   1.387 -0.2181  0.0719  0.0465
 3598TIP3    H132285   2.002   4.123   1.356  1.7334  1.9901 -0.6746
 3598TIP3    H232286   1.944   4.183   1.482  1.6143  0.3412  0.0736
 3599TIP3   OH232287   6.827   3.042   1.496  0.2676 -0.2862  0.5544
 3599TIP3    H132288   6.903   2.985   1.497  0.0870 -0.5265  0.6095
 3599TIP3    H232289   6.792   3.037   1.585 -0.4296 -1.0041  0.2501
 3600TIP3   OH232290   4.477   5.098   5.907 -0.1353 -0.2564 -0.1064
 3600TIP3    H132291   4.542   5.157   5.870 -0.9271  1.4339  1.0545
 3600TIP3    H232292   4.515   5.069   5.990 -0.0902 -0.7507 -0.2964
 3601TIP3   OH232293   5.242   2.641   0.251 -0.8064  0.2879 -0.0159
 3601TIP3    H132294   5.288   2.678   0.326  0.0891 -0.0557 -0.3884
 3601TIP3    H232295   5.262   2.548   0.254 -2.0158  0.0133  0.1849
 3602TIP3   OH232296   6.345   6.365  14.467  0.2525 -0.2191 -0.5006
 3602TIP3    H132297   6.283   6.355  14.540 -0.3795 -1.3344 -1.1703
 3602TIP3    H232298   6.365   6.459  14.466 -2.9781  0.5737 -1.5047
 3603TIP3   OH232299   6.573   0.783  12.646 -0.0453 -0.6292  0.3909
 3603TIP3    H132300   6.649   0.738  12.609  0.0435  1.5180 -2.3366
 3603TIP3    H232301   6.593   0.876  12.635 -1.6786  0.0811  2.6835
 3604TIP3   OH232302   0.594   0.510   1.582  0.0364 -0.1898  0.2959
 3604TIP3    H132303   0.651   0.443   1.545 -0.3449 -0.9665  1.0828
 3604TIP3    H232304   0.573   0.567   1.508  1.8391  0.1376 -0.0088
 3605TIP3   OH232305   5.166   1.270  16.490  0.1108  0.1542 -0.3196
 3605TIP3    H132306   5.206   1.214  16.423 -0.8627  0.9793 -1.6466
 3605TIP3    H232307   5.072   1.266  16.471  0.0210  2.4005 -0.6289
 3606TIP3   OH232308   3.552   5.454  11.589  0.2356  0.0587 -0.2597
 3606TIP3    H132309   3.633   5.407  11.570  1.4669  2.0480 -0.2541
 3606TIP3    H232310   3.531   5.432  11.680  1.7432  0.7986  0.3009
 3607TIP3   OH232311   3.872   6.142   3.026  0.2155  0.1740 -0.2004
 3607TIP3    H132312   3.809   6.092   2.974  0.3599 -0.8376  0.5687
 3607TIP3    H232313   3.887   6.222   2.975  0.2294 -0.7096 -1.6292
 3608TIP3   OH232314   0.887   0.154  12.342 -0.0337  0.3066 -0.0237
 3608TIP3    H132315   0.904   0.095  12.269  0.5449  0.6223 -0.1482
 3608TIP3    H232316   0.796   0.137  12.367  0.6341 -1.9462  1.1227
 3609TIP3   OH232317   5.098   5.278  13.571  0.2192 -0.4666 -0.0047
 3609TIP3    H132318   5.061   5.198  13.609 -0.3743  0.2807  1.0490
 3609TIP3    H232319   5.080   5.271  13.478 -1.0689 -0.9396  0.2550
 3610TIP3   OH232320   6.587   2.615  13.468  0.5245  0.7884  0.0626
 3610TIP3    H132321   6.505   2.590  13.510  0.7497 -1.4954 -0.7023
 3610TIP3    H232322   6.654   2.563  13.513  1.0899  0.1938 -1.3919
 3611TIP3   OH232323   4.371   3.278   2.816  0.2660 -0.2378  0.4587
 3611TIP3    H132324   4.377   3.260   2.910  2.1133 -1.1509  0.2105
 3611TIP3    H232325   4.321   3.359   2.810  0.1054 -0.1739  2.2278
 3612TIP3   OH232326   1.455   0.744  14.882 -0.1933  0.3107 -0.2529
 3612TIP3    H132327   1.444   0.830  14.923  1.0674 -0.0566  0.9234
 3612TIP3    H232328   1.442   0.760  14.789  0.2213  1.8172 -0.0806
 3613TIP3   OH232329   0.509   3.651   5.371  0.2633 -0.6161  0.0078
 3613TIP3    H132330   0.439   3.621   5.430  1.1635 -1.0947  0.8680
 3613TIP3    H232331   0.583   3.667   5.429  0.9959 -0.5262 -0.9410
 3614TIP3   OH232332   2.932   3.300  17.121  0.5511 -0.4612 -0.3297
 3614TIP3    H132333   2.939   3.350  17.202 -0.0476 -2.5789  1.1202
 3614TIP3    H232334   2.866   3.346  17.069  0.9986  0.9664  0.3164
 3615TIP3   OH232335   6.446   0.969   4.920 -0.0457  0.3448  0.0418
 3615TIP3    H132336   6.538   0.994   4.915  0.8419 -1.3625  3.9583
 3615TIP3    H232337   6.401   1.050   4.946  0.1853  1.2688 -2.2141
 3616TIP3   OH232338   6.171   3.562   4.300 -0.2689  0.4294 -0.0022
 3616TIP3    H132339   6.250   3.521   4.265  0.3218  0.5645  1.1354
 3616TIP3    H232340   6.171   3.539   4.393 -2.0030 -0.2378 -0.1303
 3617TIP3   OH232341   0.486   0.854   2.647 -0.7454  0.2875  0.4513
 3617TIP3    H132342   0.563   0.837   2.593 -2.0799  1.2396 -1.9679
 3617TIP3    H232343   0.517   0.912   2.716  0.8686 -0.1006  0.0922
 3618TIP3   OH232344   0.636   4.876   6.579 -0.1178  0.4183 -0.6492
 3618TIP3    H132345   0.627   4.789   6.617 -0.1729  1.9336  3.2541
 3618TIP3    H232346   0.585   4.873   6.498 -0.0221 -3.1301 -0.7127
 3619TIP3   OH232347   4.324   2.546   2.110 -0.4158  0.0370 -0.2022
 3619TIP3    H132348   4.312   2.621   2.168 -1.0673 -0.7198  0.6544
 3619TIP3    H232349   4.412   2.558   2.074 -0.4827  1.1658 -0.0218
 3620TIP3   OH232350   3.872   4.829  10.376  0.0120  0.0454  0.3160
 3620TIP3    H132351   3.906   4.902  10.427 -0.0626  1.4922 -1.6069
 3620TIP3    H232352   3.799   4.795  10.428 -1.0521  2.4457  0.5002
 3621TIP3   OH232353   1.445   5.601  16.559 -0.2268  0.2909  0.0698
 3621TIP3    H132354   1.420   5.692  16.572 -1.1517  0.1598 -0.6774
 3621TIP3    H232355   1.379   5.550  16.605  0.9190 -0.0080  1.4555
 3622TIP3   OH232356   4.182   4.234   4.214 -0.3823 -0.3508 -0.3549
 3622TIP3    H132357   4.093   4.207   4.190 -1.0635  1.8964 -0.6032
 3622TIP3    H232358   4.213   4.284   4.139  0.6312 -0.0577  0.2346
 3623TIP3   OH232359   0.232   0.833   4.246  0.1007  0.2789  0.5662
 3623TIP3    H132360   0.218   0.811   4.338 -1.6999 -0.4360  0.1531
 3623TIP3    H232361   0.258   0.750   4.205  0.2919  0.4668  0.2985
 3624TIP3   OH232362   6.729   1.699  10.440  0.4495 -0.4683 -0.1402
 3624TIP3    H132363   6.784   1.745  10.378  0.6367  0.1297  0.4535
 3624TIP3    H232364   6.673   1.643  10.386 -1.8690  2.5842 -1.1707
 3625TIP3   OH232365   5.638   5.726  16.942  0.0912 -0.0996  0.3115
 3625TIP3    H132366   5.723   5.710  16.983  2.4186  0.7812 -3.5585
 3625TIP3    H232367   5.642   5.818  16.914 -2.1426 -0.0462  0.0070
 3626TIP3   OH232368   3.772   6.756  12.808  0.1790  0.3866 -0.2988
 3626TIP3    H132369   3.829   6.807  12.865  1.3376 -0.4319 -0.7093
 3626TIP3    H232370   3.800   6.778  12.720  0.8432 -1.1027 -0.4807
 3627TIP3   OH232371   1.564   6.257   0.887 -0.3264  0.4416  1.2218
 3627TIP3    H132372   1.508   6.184   0.917 -1.8809  1.6253  1.3400
 3627TIP3    H232373   1.544   6.328   0.947  1.2893  0.9410  1.1942
 3628TIP3   OH232374   0.113   5.355  15.479 -0.3573  0.3446  0.0738
 3628TIP3    H132375   0.071   5.270  15.493  0.4619 -0.3220 -1.2971
 3628TIP3    H232376   0.203   5.342  15.507  0.2967  0.1243 -1.9686
 3629TIP3   OH232377   0.441   4.902   3.923  0.2366  0.3232  0.0178
 3629TIP3    H132378   0.347   4.887   3.912  0.2388  0.2647  0.0750
 3629TIP3    H232379   0.476   4.815   3.942  0.0506  0.5942  1.7386
 3630TIP3   OH232380   3.691   4.151   6.405  0.1086  0.4130 -0.1170
 3630TIP3    H132381   3.784   4.171   6.416  0.2484  0.8469 -1.7980
 3630TIP3    H232382   3.674   4.079   6.465  1.7189 -0.1812 -0.3339
 3631TIP3   OH232383   0.387   6.621  14.817 -0.5440 -0.6977 -0.1936
 3631TIP3    H132384   0.344   6.622  14.902 -2.4211  0.5968 -1.0932
 3631TIP3    H232385   0.366   6.536  14.779 -0.3184 -0.9848  0.3229
 3632TIP3   OH232386   2.107   6.317  10.834  0.2516 -0.3925  0.1876
 3632TIP3    H132387   2.090   6.233  10.878 -2.2199  0.0750  0.2750
 3632TIP3    H232388   2.028   6.333  10.783  0.9951  1.5406 -0.4196
 3633TIP3   OH232389   2.453   5.130  12.581  0.4777 -0.4729  0.3171
 3633TIP3    H132390   2.448   5.094  12.670  2.2093 -2.1748 -0.2003
 3633TIP3    H232391   2.393   5.075  12.530  0.4172 -0.3038  0.2079
 3634TIP3   OH232392   3.453   0.330   0.640  0.7413  0.0369 -0.2511
 3634TIP3    H132393   3.525   0.297   0.585 -0.1373 -2.1218 -0.2107
 3634TIP3    H232394   3.384   0.265   0.629 -1.5388  2.4224 -0.8851
 3635TIP3   OH232395   3.278   5.024   3.513 -0.4411 -0.0893 -0.8148
 3635TIP3    H132396   3.184   5.007   3.506 -0.0863 -1.5577 -2.5135
 3635TIP3    H232397   3.285   5.085   3.587 -2.5458 -1.3594  0.5488
 3636TIP3   OH232398   3.515   5.415   4.388 -0.3791  0.5148 -0.6283
 3636TIP3    H132399   3.477   5.482   4.332  0.3578 -0.9240 -3.0244
 3636TIP3    H232400   3.440   5.372   4.430 -1.2988 -0.3936 -3.0113
 3637TIP3   OH232401   1.581   5.801  15.429  0.3290  0.0768  0.0835
 3637TIP3    H132402   1.574   5.810  15.524 -0.5458  1.1742 -0.0724
 3637TIP3    H232403   1.497   5.831  15.395  0.7615  0.0424 -1.0675
 3638TIP3   OH232404   0.990   2.643  16.679 -0.1891  0.0446 -0.5491
 3638TIP3    H132405   1.034   2.651  16.594 -0.0889 -0.6547 -0.5684
 3638TIP3    H232406   1.051   2.592  16.733 -0.4287  0.1392 -0.1867
 3639TIP3   OH232407   2.467   1.675   3.258  0.4277 -0.0615  0.2021
 3639TIP3    H132408   2.385   1.629   3.247  1.1332 -0.9019 -2.0543
 3639TIP3    H232409   2.444   1.768   3.252 -0.7554 -0.0855  3.0398
 3640TIP3   OH232410   5.604   3.671  14.875 -0.0247 -0.7679 -0.2149
 3640TIP3    H132411   5.582   3.721  14.954  0.0632 -1.3112  0.1620
 3640TIP3    H232412   5.559   3.717  14.804 -1.7250 -1.3790  0.4160
 3641TIP3   OH232413   4.016   1.538  14.850  0.1200  0.2287  0.2169
 3641TIP3    H132414   4.091   1.544  14.792  0.8240  0.7734  1.1516
 3641TIP3    H232415   4.000   1.628  14.878 -0.8332  0.1101  0.0888
 3642TIP3   OH232416   0.496   2.750  15.620  0.1026  0.0093 -0.0076
 3642TIP3    H132417   0.404   2.743  15.594 -0.4435  3.9881  0.1528
 3642TIP3    H232418   0.543   2.768  15.539  0.2543  0.7154  0.2272
 3643TIP3   OH232419   5.113   2.089  16.248  0.1715 -0.1507  0.4324
 3643TIP3    H132420   5.120   1.995  16.265  1.3832  0.2741  2.6822
 3643TIP3    H232421   5.080   2.126  16.330 -1.6554  1.2700 -0.8542
 3644TIP3   OH232422   0.040   1.217  11.817 -0.5482 -0.2875 -0.1016
 3644TIP3    H132423  -0.040   1.268  11.826 -0.4866 -0.2829  0.4200
 3644TIP3    H232424   0.096   1.270  11.760  0.0704  0.9153  1.5595
 3645TIP3   OH232425   6.320   1.164   2.599 -0.3594 -0.1437  0.0651
 3645TIP3    H132426   6.309   1.246   2.550  0.3132 -0.4050 -0.5595
 3645TIP3    H232427   6.235   1.121   2.594 -0.6118  0.3515  0.0815
 3646TIP3   OH232428   5.415   3.735  10.912  1.2250 -0.0458 -0.3586
 3646TIP3    H132429   5.359   3.680  10.857 -1.5027  0.8890  1.3212
 3646TIP3    H232430   5.414   3.821  10.870  1.0090  0.0947 -0.0691
 3647TIP3   OH232431   3.627   2.353   4.534 -0.4024  0.3827 -0.2928
 3647TIP3    H132432   3.538   2.385   4.552 -0.1915 -0.3811  2.7376
 3647TIP3    H232433   3.670   2.425   4.488 -1.9218  1.7175  0.2805
 3648TIP3   OH232434   3.008   4.854   2.022  0.1347  0.2317 -0.7322
 3648TIP3    H132435   2.917   4.862   1.994  0.7479  2.4304 -2.4158
 3648TIP3    H232436   3.046   4.790   1.961 -0.3725 -1.1814  0.3801
 3649TIP3   OH232437   3.251   2.501  13.276  0.0743  0.4405  0.2986
 3649TIP3    H132438   3.336   2.457  13.283 -0.7545 -1.3570 -0.3893
 3649TIP3    H232439   3.237   2.512  13.182 -0.2340  1.2095  0.4278
 3650TIP3   OH232440   0.366   1.030   4.103 -0.0976  0.2278  0.2093
 3650TIP3    H132441   0.339   0.941   4.124 -0.8327  0.4786  0.3917
 3650TIP3    H232442   0.324   1.084   4.170 -1.2505  0.8961 -0.9916
 3651TIP3   OH232443   1.884   1.586  16.911  0.3338 -0.5673  0.7832
 3651TIP3    H132444   1.885   1.585  16.815  1.1271  0.2488  0.7709
 3651TIP3    H232445   1.810   1.641  16.934  1.3981  1.0152  0.5884
 3652TIP3   OH232446   0.446   0.248  13.561  0.4587  0.3806  0.3651
 3652TIP3    H132447   0.374   0.255  13.624  0.0479  0.4637 -0.1040
 3652TIP3    H232448   0.425   0.314  13.495  0.4350 -0.2838 -0.3028
 3653TIP3   OH232449   3.348   4.242  15.074  0.1388  0.0520  0.1176
 3653TIP3    H132450   3.267   4.285  15.049 -0.6149 -1.4520 -0.1541
 3653TIP3    H232451   3.376   4.286  15.154 -0.3067  1.3535 -0.4321
 3654TIP3   OH232452   5.102   2.774  11.807  0.4282  0.3225  0.1638
 3654TIP3    H132453   5.169   2.708  11.824  0.4765  0.2339 -0.3335
 3654TIP3    H232454   5.049   2.736  11.736  0.1459  0.5967  0.2254
 3655TIP3   OH232455   4.535   3.083  14.194 -0.5947  0.2509 -0.0128
 3655TIP3    H132456   4.519   3.029  14.117 -0.4644  0.3441 -0.1056
 3655TIP3    H232457   4.496   3.168  14.173  1.0016  0.8471 -0.7144
 3656TIP3   OH232458   4.647   5.461   1.602 -0.5903  0.0395 -0.2683
 3656TIP3    H132459   4.589   5.411   1.660 -1.4324 -0.1060 -1.2234
 3656TIP3    H232460   4.649   5.549   1.640  0.0047 -0.4079  0.7832
 3657TIP3   OH232461   5.277   0.583   2.726 -0.0348  0.9394  0.0952
 3657TIP3    H132462   5.323   0.555   2.647  1.7888  0.7099  1.1829
 3657TIP3    H232463   5.223   0.508   2.751  1.1210  0.1551  0.3048
 3658TIP3   OH232464   1.838   3.860  12.136 -0.3505  0.0269  0.0118
 3658TIP3    H132465   1.874   3.865  12.224 -0.1381 -0.1426 -0.0649
 3658TIP3    H232466   1.826   3.952  12.110 -1.0494  0.0719  0.4734
 3659TIP3   OH232467   4.781   3.787  16.093 -0.0441  0.1190 -0.4382
 3659TIP3    H132468   4.736   3.773  16.009 -1.2091  0.0770  0.1630
 3659TIP3    H232469   4.710   3.800  16.155  0.7953 -0.2097  0.6117
 3660TIP3   OH232470   5.999   2.464  15.733 -0.6326  0.2304 -0.0716
 3660TIP3    H132471   5.940   2.390  15.723  0.2498 -0.9293  2.6135
 3660TIP3    H232472   6.051   2.444  15.811  0.2659  3.2638  0.2321
 3661TIP3   OH232473   1.446   6.380  16.256  0.1348  0.2886 -0.0971
 3661TIP3    H132474   1.493   6.463  16.260 -0.5719  0.7996 -1.5399
 3661TIP3    H232475   1.501   6.318  16.303  0.9113  1.4664  0.5769
 3662TIP3   OH232476   6.360   0.735   0.698 -0.2330  0.0423  0.1171
 3662TIP3    H132477   6.359   0.675   0.624  1.6307  0.3463 -0.2219
 3662TIP3    H232478   6.401   0.815   0.663  0.4118  0.2899  1.3822
 3663TIP3   OH232479   3.638   4.459  17.063  0.0319 -0.0217  0.5487
 3663TIP3    H132480   3.569   4.522  17.087  1.9528  1.8072  1.6044
 3663TIP3    H232481   3.678   4.497  16.985 -0.9842 -1.8172 -0.9259
 3664TIP3   OH232482   1.193   6.288  11.844 -0.1485 -0.5563 -0.7451
 3664TIP3    H132483   1.107   6.270  11.804 -0.2213  0.6008 -1.1593
 3664TIP3    H232484   1.244   6.328  11.773 -0.5916  2.4880  0.4961
 3665TIP3   OH232485   6.110   0.847   3.033 -0.5136  0.3551 -0.1937
 3665TIP3    H132486   6.030   0.811   3.070  1.0317 -2.0067  1.1297
 3665TIP3    H232487   6.175   0.838   3.103  1.7753 -1.2996 -2.3454
 3666TIP3   OH232488   1.585   1.000  12.943 -0.1997 -0.0966 -0.4120
 3666TIP3    H132489   1.627   1.038  12.866 -1.8993  3.7769  0.3060
 3666TIP3    H232490   1.498   0.973  12.912 -0.5225  0.5460 -0.0877
 3667TIP3   OH232491   5.917   3.582  17.098  0.3739  0.3158  0.4862
 3667TIP3    H132492   5.965   3.660  17.073 -0.9042  2.2496  3.4405
 3667TIP3    H232493   5.827   3.599  17.070  0.7240 -2.1555 -2.7347
 3668TIP3   OH232494   5.466   0.814   1.035 -0.1228 -0.5884 -0.6530
 3668TIP3    H132495   5.466   0.731   1.083 -0.4819  0.4296  1.1895
 3668TIP3    H232496   5.419   0.875   1.091  1.2040  1.2022 -1.3614
 3669TIP3   OH232497   5.883   6.618   1.610 -0.3876  0.1042 -0.3575
 3669TIP3    H132498   5.924   6.601   1.694 -0.4925  0.8593 -0.1448
 3669TIP3    H232499   5.791   6.634   1.631 -0.9165 -1.9469 -0.8663
 3670TIP3   OH232500   6.683   2.119  16.158  0.4620 -0.2560  0.1469
 3670TIP3    H132501   6.688   2.109  16.063  1.2617 -0.8617  0.2473
 3670TIP3    H232502   6.627   2.047  16.187 -2.7509  1.9080 -0.1655
 3671TIP3   OH232503   2.177   2.155   5.753  0.2592  0.6688 -0.6696
 3671TIP3    H132504   2.258   2.140   5.704 -0.4335  0.9203 -1.9272
 3671TIP3    H232505   2.110   2.106   5.705 -0.4523  0.9492  0.0109
 3672TIP3   OH232506   0.041   2.138   3.025 -0.4843  0.4796  0.0228
 3672TIP3    H132507  -0.022   2.095   3.083 -0.5978  1.9709  1.0533
 3672TIP3    H232508  -0.007   2.211   2.987 -0.0559  0.2202 -1.0800
 3673TIP3   OH232509   5.627   3.947  13.027 -0.4295  0.5025  0.5337
 3673TIP3    H132510   5.592   3.860  13.050 -0.3572  0.5589  0.8562
 3673TIP3    H232511   5.654   3.985  13.110 -0.6671  0.9294  0.4192
 3674TIP3   OH232512   4.513   0.132  14.241  0.0377  0.0788  0.1364
 3674TIP3    H132513   4.459   0.202  14.278  0.8023  0.0002  1.4759
 3674TIP3    H232514   4.471   0.110  14.158 -0.4969  1.7701 -0.0616
 3675TIP3   OH232515   6.221   0.165   2.612 -0.2126  0.3038  0.2529
 3675TIP3    H132516   6.314   0.165   2.634 -0.4047  1.2511  1.1552
 3675TIP3    H232517   6.184   0.095   2.667 -0.4671  1.7776  2.0616
 3676TIP3   OH232518   5.917   2.047   2.098  0.2434  0.1593 -0.4781
 3676TIP3    H132519   5.875   2.008   2.021  1.4769  1.2204 -1.7514
 3676TIP3    H232520   5.857   2.028   2.170 -2.3383  1.3865 -2.1264
 3677TIP3   OH232521   5.029   4.351  12.519 -0.3650  0.4823  0.0092
 3677TIP3    H132522   5.014   4.333  12.426 -1.9096  0.5948  0.1964
 3677TIP3    H232523   5.013   4.267  12.562  1.0799  0.2491  0.1260
 3678TIP3   OH232524   5.931   4.812   5.140 -0.2634 -0.2043 -0.4795
 3678TIP3    H132525   5.913   4.862   5.060  3.2895  1.4935 -0.4330
 3678TIP3    H232526   5.902   4.869   5.211  0.4339  0.1924 -0.5051
 3679TIP3   OH232527   2.528   3.349  12.848  0.7312 -0.0244  0.0059
 3679TIP3    H132528   2.556   3.259  12.866 -0.4889 -0.4707 -0.2932
 3679TIP3    H232529   2.610   3.397  12.835  1.3589 -1.3158 -0.9425
 3680TIP3   OH232530   5.061   3.755   2.274 -0.4845 -0.7634  0.5625
 3680TIP3    H132531   5.110   3.837   2.275 -2.3812  0.4676 -0.5959
 3680TIP3    H232532   5.024   3.748   2.362  1.3241 -1.4874  1.3122
 3681TIP3   OH232533   2.268   5.791   5.248 -0.3833 -0.3982  0.0556
 3681TIP3    H132534   2.201   5.756   5.190  0.5564 -0.9136 -0.7355
 3681TIP3    H232535   2.340   5.728   5.244  0.9542  1.0999 -0.6217
 3682TIP3   OH232536   3.805   2.464  11.818 -0.6083  0.2113 -0.1936
 3682TIP3    H132537   3.826   2.386  11.766  0.9333  1.4242 -1.5099
 3682TIP3    H232538   3.876   2.469  11.882 -0.3530  0.8253 -0.5102
 3683TIP3   OH232539   2.538   0.741   0.499 -0.0557  0.0457 -0.2488
 3683TIP3    H132540   2.615   0.792   0.526  0.3257 -0.6043 -0.0980
 3683TIP3    H232541   2.549   0.656   0.542 -0.5350 -0.2698 -0.7396
 3684TIP3   OH232542   2.773   0.203  13.387  0.0552 -0.6316 -0.1731
 3684TIP3    H132543   2.767   0.248  13.471  1.9969  2.4990 -1.4862
 3684TIP3    H232544   2.688   0.218  13.346 -1.1057 -2.6527  1.3109
 3685TIP3   OH232545   6.136   3.906  13.517 -0.0541 -0.1649 -0.0445
 3685TIP3    H132546   6.163   3.928  13.428 -1.6160 -0.5431 -0.6509
 3685TIP3    H232547   6.043   3.884  13.509 -0.0508 -0.9229  1.5613
 3686TIP3   OH232548   6.615   3.336  13.943 -0.0370 -0.0525  0.3412
 3686TIP3    H132549   6.539   3.297  13.986  1.0018 -0.7679  1.6236
 3686TIP3    H232550   6.686   3.273  13.960  0.5666 -0.0597 -1.9406
 3687TIP3   OH232551   2.857   3.936  14.458 -0.3228 -0.0208 -0.0501
 3687TIP3    H132552   2.904   4.011  14.422 -2.1492  0.2052 -2.1955
 3687TIP3    H232553   2.906   3.859  14.428 -0.5293  0.2450 -1.0998
 3688TIP3   OH232554   1.293   5.840  15.359  0.5773 -0.5581 -0.6400
 3688TIP3    H132555   1.256   5.765  15.405 -0.7639 -0.1770 -1.0247
 3688TIP3    H232556   1.253   5.836  15.272  0.7572  0.3916 -0.7770
 3689TIP3   OH232557   4.557   4.962   5.069  0.0714 -0.1654  0.3390
 3689TIP3    H132558   4.530   4.896   5.006 -0.9580  0.1973  0.3837
 3689TIP3    H232559   4.636   4.925   5.110 -0.5485 -1.4122  0.4544
 3690TIP3   OH232560   3.899   4.746  11.458 -0.2188  0.2321  0.0191
 3690TIP3    H132561   3.884   4.704  11.374 -0.2308  2.1416 -0.9964
 3690TIP3    H232562   3.837   4.704  11.518 -0.7455 -0.6338 -1.1079
 3691TIP3   OH232563   4.165   4.846  11.929 -0.4684 -0.1880  0.0176
 3691TIP3    H132564   4.125   4.786  11.866  0.9339  0.3822 -1.5310
 3691TIP3    H232565   4.193   4.921  11.875  0.3322  0.5646  1.4168
 3692TIP3   OH232566   2.839   4.689  15.795 -0.1217 -0.4670  0.4246
 3692TIP3    H132567   2.922   4.738  15.800  1.1804 -2.4992 -0.2493
 3692TIP3    H232568   2.785   4.741  15.735  0.8706  0.5942  0.3998
 3693TIP3   OH232569   5.654   6.053   0.784 -0.1592  0.7015 -0.3069
 3693TIP3    H132570   5.615   6.108   0.717 -1.1133  0.2420 -0.1358
 3693TIP3    H232571   5.592   6.055   0.857 -0.1002 -0.3984 -0.2111
 3694TIP3   OH232572   5.097   0.696   3.227 -0.0738 -0.0044 -0.1962
 3694TIP3    H132573   5.087   0.784   3.264  0.4500  0.4517 -1.0912
 3694TIP3    H232574   5.022   0.647   3.260 -0.0287  0.5883  0.8389
 3695TIP3   OH232575   5.355   6.444  16.811  0.0594  0.4537  0.2775
 3695TIP3    H132576   5.375   6.471  16.721 -0.4095  0.0558  0.0497
 3695TIP3    H232577   5.361   6.524  16.862 -0.7981  0.8906 -0.2964
 3696TIP3   OH232578   3.383   5.894  14.013 -0.8715  0.0854  0.2476
 3696TIP3    H132579   3.344   5.981  14.020  2.1030  1.6872 -1.2182
 3696TIP3    H232580   3.418   5.876  14.101 -0.2867  1.0348  0.2199
 3697TIP3   OH232581   4.667   2.854   3.655  0.2323 -0.1060 -0.3143
 3697TIP3    H132582   4.639   2.945   3.662  0.0946  0.0000 -1.9234
 3697TIP3    H232583   4.746   2.857   3.602 -0.6621 -1.0505 -1.7495
 3698TIP3   OH232584   0.787   4.129   5.621  0.3723  0.4167 -0.3050
 3698TIP3    H132585   0.771   4.061   5.555 -2.6632  1.4976 -0.8556
 3698TIP3    H232586   0.752   4.093   5.702 -0.6068  0.9924 -0.4501
 3699TIP3   OH232587   0.675   2.440   1.525 -0.1440  0.0604 -0.2337
 3699TIP3    H132588   0.738   2.407   1.461 -0.3602 -1.0872  0.1114
 3699TIP3    H232589   0.654   2.528   1.496  2.2453  0.8131  0.0999
 3700TIP3   OH232590   5.172   5.898  16.720  0.0549  0.7763  0.6337
 3700TIP3    H132591   5.217   5.890  16.804  1.7799 -0.0116 -0.2937
 3700TIP3    H232592   5.160   5.992  16.709  1.3353  1.0168  1.0428
 3701TIP3   OH232593   6.423   6.049  12.220 -0.2291  0.5257  0.7978
 3701TIP3    H132594   6.419   6.100  12.139 -1.8140 -1.3775 -0.4293
 3701TIP3    H232595   6.401   6.110  12.289 -2.0928  1.5157 -0.5997
 3702TIP3   OH232596   5.231   6.510  10.628  0.3774  0.0414 -0.2368
 3702TIP3    H132597   5.259   6.592  10.668  0.5676  0.1486 -0.5830
 3702TIP3    H232598   5.201   6.535  10.540  0.4530 -0.2611 -0.3525
 3703TIP3   OH232599   5.274   5.260   0.973 -0.7394 -0.0497  0.2640
 3703TIP3    H132600   5.361   5.248   0.935 -0.7021 -1.1900  0.6701
 3703TIP3    H232601   5.215   5.263   0.897 -0.6741 -2.3850  0.0438
 3704TIP3   OH232602   4.581   4.766   5.743  0.4212  0.3095  0.0050
 3704TIP3    H132603   4.568   4.776   5.649  1.9676  0.3082 -0.2343
 3704TIP3    H232604   4.504   4.808   5.782  0.6262  1.9176 -1.2185
 3705TIP3   OH232605   6.293   2.115   1.500  0.1623 -0.3529  0.1644
 3705TIP3    H132606   6.205   2.128   1.536  0.6946 -0.0074  1.4122
 3705TIP3    H232607   6.332   2.047   1.556  0.0584 -1.8961 -1.5514
 3706TIP3   OH232608   2.784   5.370  14.795 -0.5127 -0.1712 -0.0861
 3706TIP3    H132609   2.754   5.453  14.831  0.8142  1.8153 -3.1338
 3706TIP3    H232610   2.847   5.337  14.859 -1.4206  0.9065  1.4016
 3707TIP3   OH232611   5.935   4.038   5.285  0.5851  0.9783 -0.5215
 3707TIP3    H132612   6.012   4.095   5.283  1.6474 -0.0045  3.4883
 3707TIP3    H232613   5.967   3.954   5.250  0.8723  1.0064 -0.3280
 3708TIP3   OH232614   4.994   0.461   6.735  0.3413  0.2608 -0.2145
 3708TIP3    H132615   4.939   0.530   6.773 -2.1172 -0.7737 -1.6739
 3708TIP3    H232616   5.052   0.507   6.674 -1.5377  1.0785 -1.4797
 3709TIP3   OH232617   4.015   5.408   5.231  0.1776 -0.0444 -0.1755
 3709TIP3    H132618   3.970   5.429   5.313 -0.5727 -0.6618 -0.4116
 3709TIP3    H232619   4.018   5.491   5.184 -0.0837  0.1544  0.1490
 3710TIP3   OH232620   3.079   0.970  16.855  0.1303  0.2516 -0.0574
 3710TIP3    H132621   3.142   0.941  16.921  0.1880 -0.4677 -0.4220
 3710TIP3    H232622   3.091   0.910  16.782 -1.5452 -0.4332  0.1790
 3711TIP3   OH232623   2.005   0.306  16.132  0.0857  0.0453  0.3867
 3711TIP3    H132624   1.993   0.389  16.176 -1.1384 -0.6215  1.3586
 3711TIP3    H232625   1.933   0.301  16.069 -0.0802 -0.4417  0.6078
 3712TIP3   OH232626   5.031   4.364  16.916  0.0932 -0.1720  0.1212
 3712TIP3    H132627   4.989   4.308  16.851 -0.0819  1.1921 -0.9796
 3712TIP3    H232628   5.106   4.313  16.947  1.4492 -0.0606 -2.6933
 3713TIP3   OH232629   6.789   0.963  13.233 -0.3853 -0.1659  0.1239
 3713TIP3    H132630   6.813   1.013  13.311 -0.7815  0.3899 -0.1042
 3713TIP3    H232631   6.726   1.019  13.188 -2.7835 -1.8796  1.1107
 3714TIP3   OH232632   1.907   3.466  13.386 -0.5360 -0.0585  0.6819
 3714TIP3    H132633   1.867   3.412  13.454 -2.9017  0.3963 -0.2620
 3714TIP3    H232634   1.848   3.458  13.311  1.6874 -0.1256 -1.2012
 3715TIP3   OH232635   5.330   0.055   1.051  0.3161 -0.9624  0.5886
 3715TIP3    H132636   5.292   0.084   1.134  0.0786  0.4847  0.0019
 3715TIP3    H232637   5.371  -0.029   1.071  2.0279  0.2731  2.6606
 3716TIP3   OH232638   3.784   0.667  15.431 -0.0103  0.2329 -0.5078
 3716TIP3    H132639   3.780   0.581  15.474  0.7411  0.1347 -0.6181
 3716TIP3    H232640   3.734   0.724  15.489 -1.4686 -0.4978 -1.0005
 3717TIP3   OH232641   1.702   6.615   1.071  0.4852  0.1124 -0.3172
 3717TIP3    H132642   1.697   6.573   0.985  1.8822  0.3134 -0.5219
 3717TIP3    H232643   1.650   6.695   1.061 -0.5250 -0.5575 -0.5356
 3718TIP3   OH232644   3.552   4.369   4.583  0.2086  0.1650  0.1827
 3718TIP3    H132645   3.491   4.361   4.656  0.2446 -0.1244  0.1808
 3718TIP3    H232646   3.499   4.403   4.511  0.5644  2.3305  0.8738
 3719TIP3   OH232647   3.134   5.639  14.839  0.6997  0.4920  0.2654
 3719TIP3    H132648   3.068   5.702  14.869  0.0304 -0.7094  1.4028
 3719TIP3    H232649   3.209   5.652  14.898  0.5336  0.1760  0.5466
 3720TIP3   OH232650   4.007   4.480   5.914  0.0543 -0.5627  0.2637
 3720TIP3    H132651   3.927   4.532   5.904 -0.0460 -0.4999  1.2423
 3720TIP3    H232652   4.058   4.499   5.835 -0.0232  0.9757  0.5409
 3721TIP3   OH232653   5.315   2.008  16.875 -0.3415  0.3553 -0.2645
 3721TIP3    H132654   5.331   2.077  16.940 -0.6429  1.2828 -1.1517
 3721TIP3    H232655   5.383   2.020  16.809  1.2859 -1.9063  0.8566
 3722TIP3   OH232656   2.292   1.449   2.708 -0.3688  0.6026 -0.1225
 3722TIP3    H132657   2.310   1.355   2.704  1.2004  0.9033 -1.9099
 3722TIP3    H232658   2.336   1.479   2.787  0.8812  0.1089 -0.6017
 3723TIP3   OH232659   0.329   6.099   2.982  0.4534 -0.3149  0.0459
 3723TIP3    H132660   0.389   6.172   2.965 -1.5957  1.4011 -0.3684
 3723TIP3    H232661   0.383   6.032   3.022  2.5352  1.2869  0.1068
 3724TIP3   OH232662   2.611   1.591  11.930 -0.1777 -0.3986  0.6112
 3724TIP3    H132663   2.699   1.626  11.915 -1.3205  3.2416  1.3986
 3724TIP3    H232664   2.602   1.521  11.866  3.4790 -1.4117  0.9681
 3725TIP3   OH232665   4.705   4.013   2.403 -0.1002  0.1511  0.1752
 3725TIP3    H132666   4.787   4.029   2.357 -0.3878  0.9792 -0.0787
 3725TIP3    H232667   4.728   4.012   2.495  0.0584  1.3739  0.1608
 3726TIP3   OH232668   1.661   5.479  15.697 -0.1014 -0.3062 -0.2307
 3726TIP3    H132669   1.723   5.410  15.674  1.1752 -0.0009  2.0056
 3726TIP3    H232670   1.576   5.444  15.674  0.7616 -1.1711 -2.4042
 3727TIP3   OH232671   1.759   4.086   5.367  0.0711 -0.1957  0.0604
 3727TIP3    H132672   1.687   4.039   5.408 -0.3981  0.7231  0.3267
 3727TIP3    H232673   1.789   4.028   5.297 -0.0836 -1.1381  0.7525
 3728TIP3   OH232674   4.961   0.174  11.224  0.2392  0.0040 -0.0892
 3728TIP3    H132675   4.896   0.233  11.262  0.3059 -0.0861  0.1619
 3728TIP3    H232676   4.909   0.102  11.188  0.2189 -0.1938  0.3360
 3729TIP3   OH232677   2.711   2.337  12.436  0.3286  0.6413 -0.2256
 3729TIP3    H132678   2.778   2.405  12.431 -1.0994  2.7399  4.0049
 3729TIP3    H232679   2.759   2.257  12.455  1.8285  1.1922 -1.5318
 3730TIP3   OH232680   2.249   5.577   2.384 -0.1941  0.4169 -0.6572
 3730TIP3    H132681   2.254   5.496   2.332  1.0928 -0.1465  0.2819
 3730TIP3    H232682   2.339   5.610   2.386 -0.5630  1.4341 -0.3346
 3731TIP3   OH232683   5.765   6.387  14.875 -0.1433  0.3338 -0.2891
 3731TIP3    H132684   5.736   6.365  14.964  1.0784  0.0588  0.0658
 3731TIP3    H232685   5.686   6.416  14.830 -1.0115 -0.6814  0.5310
 3732TIP3   OH232686   5.860   0.861   4.537  0.0723 -0.0289  0.2799
 3732TIP3    H132687   5.906   0.787   4.497  0.7721  0.8694 -0.6144
 3732TIP3    H232688   5.821   0.908   4.463  2.2640  2.2756  0.4746
 3733TIP3   OH232689   5.938   3.030   2.490  0.2293  0.1551 -0.1156
 3733TIP3    H132690   5.879   3.033   2.415  0.2713  2.0370 -0.1296
 3733TIP3    H232691   5.887   3.064   2.563  0.6627 -0.1604  0.3426
 3734TIP3   OH232692   1.471   6.533  14.239  0.1375  0.3039  0.2518
 3734TIP3    H132693   1.481   6.550  14.145 -0.3885 -0.0636  0.1231
 3734TIP3    H232694   1.434   6.445  14.243  1.8729 -0.4494  0.8632
 3735TIP3   OH232695   6.587   0.269   0.148 -0.6270  0.5379 -0.4716
 3735TIP3    H132696   6.522   0.337   0.168  0.8700  1.9089 -0.0558
 3735TIP3    H232697   6.618   0.240   0.233 -0.7986 -0.2343 -0.6660
 3736TIP3   OH232698   1.963   4.542  15.669  0.3635  0.4546 -0.4128
 3736TIP3    H132699   2.009   4.588  15.739  1.4465  0.6316 -1.2165
 3736TIP3    H232700   1.885   4.596  15.653  0.3317  0.6490  0.3393
 3737TIP3   OH232701   2.843   1.264   0.189 -0.4164 -0.3475 -0.2002
 3737TIP3    H132702   2.755   1.251   0.155 -0.7374 -0.5076  0.6589
 3737TIP3    H232703   2.847   1.357   0.211 -0.6927 -0.5153  0.6001
 3738TIP3   OH232704   3.941   1.408   2.003  0.0754  0.5613 -0.1338
 3738TIP3    H132705   3.856   1.380   2.035  0.8528 -0.1069  1.4850
 3738TIP3    H232706   3.999   1.333   2.019  1.2783  1.5242  0.2461
 3739TIP3   OH232707   6.117   6.209  11.677 -0.5800  0.4941 -0.3103
 3739TIP3    H132708   6.208   6.188  11.657 -0.3387  1.2805 -0.0499
 3739TIP3    H232709   6.078   6.229  11.592 -0.3153  0.9084 -0.3344
 3740TIP3   OH232710   5.025   4.135  16.176  0.0552 -0.1889 -0.0696
 3740TIP3    H132711   5.038   4.090  16.092  1.2210 -3.5173  1.6853
 3740TIP3    H232712   5.108   4.181  16.191  0.6112 -1.2102  0.0920
 3741TIP3   OH232713   1.662   4.094  15.966 -0.0701 -0.4265  0.2030
 3741TIP3    H132714   1.711   4.039  15.904 -1.4076 -0.5569 -0.7834
 3741TIP3    H232715   1.676   4.052  16.051 -0.2680 -1.7517 -0.3874
 3742TIP3   OH232716   3.795   2.744  13.663  0.3436 -0.2927  0.0587
 3742TIP3    H132717   3.847   2.787  13.731  0.3721  3.2978 -1.9731
 3742TIP3    H232718   3.859   2.717  13.597  0.1078 -1.4883  0.2972
 3743TIP3   OH232719   4.441   3.737  11.133  0.4517 -0.1722 -0.0612
 3743TIP3    H132720   4.465   3.823  11.097  0.3012 -0.1519 -0.1105
 3743TIP3    H232721   4.348   3.744  11.153 -0.0924 -1.0447 -2.0935
 3744TIP3   OH232722   6.056   2.451  16.020  0.0177 -0.1580 -0.0290
 3744TIP3    H132723   6.020   2.538  16.004 -0.3898 -0.3596 -0.2190
 3744TIP3    H232724   6.104   2.459  16.103 -0.8222  0.0097  0.4508
 3745TIP3   OH232725   2.931   0.745  14.310  0.1866  0.2226  0.6894
 3745TIP3    H132726   2.874   0.708  14.378 -0.6218  0.0282 -0.0751
 3745TIP3    H232727   3.017   0.750  14.352  0.1993 -1.9319  1.0636
 3746TIP3   OH232728   2.877   5.850  15.471  0.0066  0.1868 -0.0183
 3746TIP3    H132729   2.837   5.875  15.388 -0.2203  0.5031  0.1842
 3746TIP3    H232730   2.969   5.839  15.451 -0.0356  0.3348 -0.2972
 3747TIP3   OH232731   2.342   3.317   1.703 -1.2919  0.0190 -0.1438
 3747TIP3    H132732   2.412   3.306   1.768 -0.0079  1.1787 -1.2985
 3747TIP3    H232733   2.297   3.397   1.729 -0.7148  0.5378 -0.7326
 3748TIP3   OH232734   4.976   2.256  17.044 -0.6731  0.4430  0.7555
 3748TIP3    H132735   4.903   2.195  17.058 -1.7304  1.6454  0.6047
 3748TIP3    H232736   5.040   2.230  17.110 -0.7029 -1.3883  0.1350
 3749TIP3   OH232737   2.725   1.831   0.164 -0.0139 -0.0094 -0.4711
 3749TIP3    H132738   2.726   1.921   0.132  0.2688 -0.0033 -0.4476
 3749TIP3    H232739   2.658   1.830   0.233  1.5079  0.7201  1.0697
 3750TIP3   OH232740   0.194   0.423  14.232 -0.4153 -0.3247  0.0281
 3750TIP3    H132741   0.234   0.378  14.306  1.9537  0.5775 -0.6034
 3750TIP3    H232742   0.222   0.373  14.155 -1.2173 -0.1425 -0.3966
 3751TIP3   OH232743   4.395   0.957   1.586 -0.2051  0.3063 -0.0384
 3751TIP3    H132744   4.480   0.916   1.572 -0.0467  0.8093 -0.6314
 3751TIP3    H232745   4.388   1.022   1.516 -1.8779 -0.9682 -1.1031
 3752TIP3   OH232746   3.430   6.162   4.287  0.4004 -0.1524 -0.4750
 3752TIP3    H132747   3.335   6.162   4.298  0.4291 -2.6541  0.5772
 3752TIP3    H232748   3.461   6.231   4.344 -0.6672 -1.1863  1.4638
 3753TIP3   OH232749   0.555   4.824  16.569 -0.0258 -0.4318  0.1862
 3753TIP3    H132750   0.555   4.897  16.632 -0.3111  0.1857 -0.5136
 3753TIP3    H232751   0.463   4.810  16.549  0.0899 -0.2558 -0.5033
 3754TIP3   OH232752   5.824   4.317  14.010  0.0860 -0.6284 -0.2156
 3754TIP3    H132753   5.764   4.360  14.070  0.4766  0.8607 -0.8557
 3754TIP3    H232754   5.848   4.236  14.054 -0.9073 -0.3508  0.8869
 3755TIP3   OH232755   0.025   3.368  11.715 -0.3096 -0.2062 -0.0875
 3755TIP3    H132756   0.095   3.350  11.779 -0.7471  0.3029  0.5425
 3755TIP3    H232757  -0.054   3.336  11.758 -0.5917  0.0412 -0.4265
 3756TIP3   OH232758   5.440   3.414   3.886 -0.1385 -0.4165 -0.4017
 3756TIP3    H132759   5.349   3.414   3.854 -0.7853  1.4928  1.2108
 3756TIP3    H232760   5.489   3.458   3.816 -0.9129  0.6536 -0.3111
 3757TIP3   OH232761   3.210   0.261   4.318 -0.0997 -0.0190 -0.0208
 3757TIP3    H132762   3.274   0.193   4.341 -1.0444 -0.3444  1.8442
 3757TIP3    H232763   3.134   0.211   4.287 -0.5668  0.1872  0.7622
 3758TIP3   OH232764   1.340   3.137  10.669 -0.3985  0.0932 -0.3072
 3758TIP3    H132765   1.280   3.206  10.695 -1.3772 -0.8197 -0.0743
 3758TIP3    H232766   1.390   3.174  10.597 -1.5559  0.7128 -0.8096
 3759TIP3   OH232767   4.952   2.567   4.947  0.0694 -0.5146 -0.1893
 3759TIP3    H132768   5.023   2.604   4.999 -0.0449  2.4501 -1.9317
 3759TIP3    H232769   4.991   2.554   4.860 -1.2985  0.5141 -0.9921
 3760TIP3   OH232770   4.110   4.250   1.307 -0.1961  0.3134 -0.4952
 3760TIP3    H132771   4.046   4.216   1.243 -0.7305  0.0473  0.1715
 3760TIP3    H232772   4.174   4.296   1.253  0.8451 -2.1220 -1.4980
 3761TIP3   OH232773   4.460   1.893   0.612  1.0463 -0.6968  0.2813
 3761TIP3    H132774   4.415   1.977   0.601 -1.0118 -1.8159 -0.4840
 3761TIP3    H232775   4.529   1.894   0.546 -0.2895 -0.3879 -1.1878
 3762TIP3   OH232776   6.141   2.233  15.589 -0.2228  0.3176 -0.2796
 3762TIP3    H132777   6.167   2.145  15.561 -0.0411  0.4520 -0.5317
 3762TIP3    H232778   6.066   2.255  15.534 -0.1321  0.4080 -0.3682
 3763TIP3   OH232779   2.780   1.725  12.351  0.0671 -0.0186 -0.2286
 3763TIP3    H132780   2.844   1.656  12.367  0.5086  0.8998  2.3904
 3763TIP3    H232781   2.829   1.806  12.360 -1.5485  0.7662  3.1511
 3764TIP3   OH232782   0.096   5.097   2.021  0.4283 -0.2893  0.1398
 3764TIP3    H132783   0.123   5.188   2.013  2.0467 -0.7640 -0.2027
 3764TIP3    H232784   0.001   5.099   2.013  0.5143  1.2571 -0.8814
 3765TIP3   OH232785   1.260   6.484  15.079 -0.3129 -0.3333 -0.6435
 3765TIP3    H132786   1.317   6.489  15.003 -0.0028 -1.2149 -0.4791
 3765TIP3    H232787   1.192   6.549  15.062  1.8096  2.2476  0.0861
 3766TIP3   OH232788   2.341   3.164  13.432 -0.4418  0.3340 -0.2510
 3766TIP3    H132789   2.388   3.081  13.423 -1.5298 -0.2509 -0.7001
 3766TIP3    H232790   2.284   3.169  13.355 -1.9128  0.4829  0.7958
 3767TIP3   OH232791   6.734   5.596  11.316  0.0528  0.4137  0.0522
 3767TIP3    H132792   6.795   5.617  11.244 -1.3803  1.2096 -0.9915
 3767TIP3    H232793   6.752   5.504  11.336  2.1438  0.8460  0.3467
 3768TIP3   OH232794   3.977   3.359  16.020  0.9520 -0.0120  0.5926
 3768TIP3    H132795   4.016   3.347  15.934 -0.1866  1.1288 -0.1308
 3768TIP3    H232796   4.035   3.420  16.065  0.5040  1.0087 -0.1620
 3769TIP3   OH232797   1.869   0.099   5.893 -0.2073 -0.7121  0.0109
 3769TIP3    H132798   1.959   0.072   5.907 -0.2503 -0.9543 -0.1805
 3769TIP3    H232799   1.831   0.104   5.981 -0.0501 -0.7542  0.0798
 3770TIP3   OH232800   0.288   3.052   5.014  0.2261 -0.4138 -0.0859
 3770TIP3    H132801   0.267   3.133   5.060  0.7501 -0.3457  0.0458
 3770TIP3    H232802   0.376   3.029   5.046  1.2577  0.4325 -2.1207
 3771TIP3   OH232803   0.588   5.646   3.096  0.5606  0.1942  0.4518
 3771TIP3    H132804   0.634   5.675   3.017  1.9641  3.2914  2.2282
 3771TIP3    H232805   0.501   5.684   3.088  1.0009  1.3012  0.7777
 3772TIP3   OH232806   0.858   4.359   0.139 -0.3520 -0.0757 -0.4321
 3772TIP3    H132807   0.853   4.407   0.056 -1.0082  1.6880  0.5812
 3772TIP3    H232808   0.943   4.315   0.136  1.2065  2.7423 -0.6093
 3773TIP3   OH232809   6.143   5.871  11.307  0.5065 -0.3296  0.0782
 3773TIP3    H132810   6.119   5.963  11.306  1.2403 -0.0732  2.2030
 3773TIP3    H232811   6.209   5.862  11.237 -0.7012  0.3711 -1.2001
 3774TIP3   OH232812   6.017   5.074   6.043 -0.4436 -0.3335 -0.2046
 3774TIP3    H132813   6.092   5.098   5.988  0.3254 -2.3518 -0.0989
 3774TIP3    H232814   5.995   5.155   6.089  1.7053  0.3045 -0.1933
 3775TIP3   OH232815   3.439   1.636  14.734 -0.1963  0.2619  0.2891
 3775TIP3    H132816   3.370   1.579  14.700  0.6340 -0.0608 -0.9308
 3775TIP3    H232817   3.392   1.711  14.771 -1.2327 -0.4802  0.5198
 3776TIP3   OH232818   5.314   2.986   1.275 -0.2794 -0.0301 -0.1663
 3776TIP3    H132819   5.242   3.040   1.244  1.0903  1.5124 -0.8111
 3776TIP3    H232820   5.284   2.896   1.263 -2.0208  0.5575 -0.5178
 3777TIP3   OH232821   3.232   4.364  10.758  0.7518  0.8917 -0.5685
 3777TIP3    H132822   3.304   4.411  10.800  1.3219  0.5505 -1.1516
 3777TIP3    H232823   3.269   4.333  10.675  0.0905  0.2494 -0.6266
 3778TIP3   OH232824   2.453   6.684  13.851 -0.2343  0.5505 -0.8050
 3778TIP3    H132825   2.435   6.591  13.836 -0.0804  0.3955 -0.0976
 3778TIP3    H232826   2.519   6.684  13.920 -2.0312  1.1944  1.0346
 3779TIP3   OH232827   3.595   5.750   3.878 -0.3939 -0.5349 -0.5010
 3779TIP3    H132828   3.649   5.680   3.843  0.5615 -0.0563 -0.0227
 3779TIP3    H232829   3.567   5.800   3.802  1.2038  0.1727 -0.6478
 3780TIP3   OH232830   5.243   1.367  11.304  0.0662 -0.2458 -0.1556
 3780TIP3    H132831   5.213   1.323  11.224  0.8396 -0.6035 -0.2562
 3780TIP3    H232832   5.175   1.347  11.369  0.2476 -1.3438 -0.2781
 3781TIP3   OH232833   0.542   2.540   5.039 -0.5717  0.4271 -0.3818
 3781TIP3    H132834   0.578   2.506   5.121  0.5083 -2.2777 -1.8572
 3781TIP3    H232835   0.607   2.604   5.010  1.2340 -1.6070 -1.0901
 3782TIP3   OH232836   6.819   5.808   1.905 -0.4741 -0.1089  0.4838
 3782TIP3    H132837   6.732   5.845   1.891 -1.3134 -1.3664  2.0877
 3782TIP3    H232838   6.879   5.877   1.876 -1.9798  0.7334 -0.7625
 3783TIP3   OH232839   4.992   4.719  16.103  0.5379  0.8827 -0.7018
 3783TIP3    H132840   4.953   4.683  16.182  0.0163 -0.7097 -1.6394
 3783TIP3    H232841   5.068   4.664  16.086  0.9043  1.4897 -1.0671
 3784TIP3   OH232842   5.534   4.471  10.781  0.3466 -0.2289  0.0398
 3784TIP3    H132843   5.610   4.481  10.724  1.7622 -0.0298  1.8482
 3784TIP3    H232844   5.552   4.531  10.854 -0.8267 -1.2771  1.2303
 3785TIP3   OH232845   0.094   2.415  16.712  0.2770  0.2555  0.0015
 3785TIP3    H132846   0.063   2.462  16.634 -1.5118 -0.6024  0.1333
 3785TIP3    H232847   0.173   2.370  16.684  0.4655  1.1278 -0.8999
 3786TIP3   OH232848   4.467   0.586   4.406  0.3044 -0.2768 -0.0607
 3786TIP3    H132849   4.417   0.547   4.334 -0.3311 -0.3035  0.3880
 3786TIP3    H232850   4.401   0.615   4.469  0.8031  0.6586  0.0624
 3787TIP3   OH232851   5.639   2.057   2.532  0.9819 -0.2075 -0.2045
 3787TIP3    H132852   5.569   2.081   2.471 -0.0981  0.9028  1.3934
 3787TIP3    H232853   5.597   2.058   2.618  2.8700  0.1025  0.7537
 3788TIP3   OH232854   2.302   1.405   3.543 -0.7204  0.3118 -0.0248
 3788TIP3    H132855   2.208   1.389   3.539 -0.9492  0.1711  3.1805
 3788TIP3    H232856   2.311   1.476   3.607  1.3806 -0.6068  0.7891
 3789TIP3   OH232857   3.940   0.870  13.795  0.4620  0.5157 -0.1443
 3789TIP3    H132858   3.922   0.947  13.848 -2.9866  0.7739 -1.3980
 3789TIP3    H232859   3.878   0.804  13.827  0.7688 -0.4635 -1.4772
 3790TIP3   OH232860   3.420   5.829   4.596 -0.0559  0.5341 -0.4266
 3790TIP3    H132861   3.353   5.771   4.560 -0.5573  1.0478 -0.3342
 3790TIP3    H232862   3.474   5.854   4.521 -0.3995  0.6845 -0.6217
 3791TIP3   OH232863   1.098   2.300   4.477 -0.0556 -0.2110 -0.5684
 3791TIP3    H132864   1.144   2.258   4.405 -0.1379 -1.2175 -0.0405
 3791TIP3    H232865   1.120   2.248   4.555 -0.6780  0.3242 -0.0147
 3792TIP3   OH232866   0.678   6.792   2.324  0.0846  0.4006  0.0579
 3792TIP3    H132867   0.729   6.746   2.391  0.0999  0.7728  0.3083
 3792TIP3    H232868   0.587   6.775   2.347  0.0680 -1.2605 -1.0814
 3793TIP3   OH232869   6.391   5.242   3.450 -0.0295  0.0988 -0.3723
 3793TIP3    H132870   6.358   5.266   3.537  1.7720  0.8124  0.1628
 3793TIP3    H232871   6.432   5.157   3.463  1.8580  1.0081 -0.0418
 3794TIP3   OH232872   3.220   6.105   1.588  0.0542 -0.0793  0.1976
 3794TIP3    H132873   3.126   6.107   1.568  0.0003  0.5774  0.5063
 3794TIP3    H232874   3.262   6.129   1.506 -0.0887  0.6342  0.3309
 3795TIP3   OH232875   3.066   0.453  15.859  0.2646  0.3511 -0.1098
 3795TIP3    H132876   3.129   0.519  15.828  1.5589 -0.0553  1.5058
 3795TIP3    H232877   3.066   0.387  15.789  0.6100  1.0093 -0.7519
 3796TIP3   OH232878   5.609   5.443  15.592  0.5345 -0.0164 -0.2871
 3796TIP3    H132879   5.704   5.435  15.599  0.5658 -0.6790 -1.2523
 3796TIP3    H232880   5.577   5.429  15.681  1.3794  1.1166  0.2329
 3797TIP3   OH232881   6.199   2.866  14.915 -0.5029 -0.2165 -0.3608
 3797TIP3    H132882   6.242   2.809  14.980 -1.1981 -2.2574 -1.5947
 3797TIP3    H232883   6.257   2.941  14.907  0.6648 -0.8994  1.0849
 3798TIP3   OH232884   6.316   4.280  16.995 -0.2559  0.0143 -0.1615
 3798TIP3    H132885   6.348   4.237  17.075 -2.7649 -2.9597 -0.5689
 3798TIP3    H232886   6.278   4.362  17.025 -0.4514 -0.6848  1.6195
 3799TIP3   OH232887   6.595   1.263   1.303  0.3812 -0.0890 -0.0803
 3799TIP3    H132888   6.599   1.330   1.372  0.1075 -0.6571  0.4934
 3799TIP3    H232889   6.686   1.251   1.276  0.6257 -0.6266  0.9330
 3800TIP3   OH232890   1.501   6.342   3.843 -0.3799 -0.0742 -0.1736
 3800TIP3    H132891   1.410   6.320   3.827 -0.5540  0.7467 -0.3487
 3800TIP3    H232892   1.502   6.437   3.852  0.2086 -0.1900  1.4144
 3801TIP3   OH232893   1.530   2.991  12.208  0.2880 -0.7672  0.2198
 3801TIP3    H132894   1.494   3.019  12.293 -1.8108  0.0532 -0.8662
 3801TIP3    H232895   1.484   2.909  12.190 -0.7347  0.0252 -0.9512
 3802TIP3   OH232896   1.776   2.947  12.712  0.4400 -0.5631  0.4564
 3802TIP3    H132897   1.775   2.862  12.757  1.0474 -2.4472 -2.8087
 3802TIP3    H232898   1.826   2.931  12.632 -1.3363  2.3072 -1.3770
 3803TIP3   OH232899   0.269   0.250  13.783  0.0219 -0.1671  0.6396
 3803TIP3    H132900   0.203   0.187  13.753 -0.9870  1.6643 -1.2222
 3803TIP3    H232901   0.255   0.255  13.878 -0.2834 -2.2295  0.7568
 3804TIP3   OH232902   6.702   2.125   0.112  0.0392  0.2927  0.2462
 3804TIP3    H132903   6.779   2.166   0.073  1.7283 -0.8370  2.1783
 3804TIP3    H232904   6.646   2.198   0.138  0.4222  1.1385 -1.2392
 3805TIP3   OH232905   2.195   2.509  14.653 -0.1795 -0.3510  0.7675
 3805TIP3    H132906   2.206   2.420  14.687 -0.0278 -1.0203 -0.9583
 3805TIP3    H232907   2.284   2.542  14.645 -0.1634 -0.5287  0.1872
 3806TIP3   OH232908   4.118   2.268  15.623 -0.3136 -0.4420 -0.3088
 3806TIP3    H132909   4.065   2.269  15.703 -1.3029 -0.4906 -0.9457
 3806TIP3    H232910   4.207   2.250  15.653 -0.5686  0.1154  0.8384
 3807TIP3   OH232911   2.783   5.879   6.378 -0.3233  0.0322 -0.1955
 3807TIP3    H132912   2.877   5.889   6.389 -0.5704  1.5077  1.1053
 3807TIP3    H232913   2.762   5.928   6.298 -0.1713  1.2024  0.4568
 3808TIP3   OH232914   5.382   3.076   2.674 -0.4555  0.6029 -0.1121
 3808TIP3    H132915   5.300   3.047   2.634 -0.7365 -1.2410  1.5906
 3808TIP3    H232916   5.355   3.139   2.741 -0.6987 -0.8037  1.1973
 3809TIP3   OH232917   4.010   2.079  15.413  0.0141 -0.3941 -0.3050
 3809TIP3    H132918   4.045   2.119  15.493 -0.0571  0.1848 -0.5562
 3809TIP3    H232919   4.070   2.007  15.394  1.0244  0.5037 -0.6540
 3810TIP3   OH232920   1.161   2.454  12.583 -0.1035 -0.4428  0.6078
 3810TIP3    H132921   1.077   2.436  12.540 -0.1241  0.4583  0.2526
 3810TIP3    H232922   1.190   2.537  12.544  1.6521 -1.4414 -0.3403
 3811TIP3   OH232923   2.127   3.995   3.963 -0.0002  0.3479 -0.4364
 3811TIP3    H132924   2.125   4.029   3.873  0.3084  0.4023 -0.4222
 3811TIP3    H232925   2.160   3.905   3.953  2.3562  1.1127 -0.1458
 3812TIP3   OH232926   4.835   5.965   5.694 -0.5192 -0.1551  0.1939
 3812TIP3    H132927   4.857   5.874   5.672 -0.4537  0.1791 -1.2417
 3812TIP3    H232928   4.915   6.000   5.732  0.1602 -0.1325 -1.1759
 3813TIP3   OH232929   1.256   2.330   0.126 -0.1807 -0.2150  0.1157
 3813TIP3    H132930   1.207   2.404   0.162 -0.3822  0.9066 -2.3109
 3813TIP3    H232931   1.244   2.260   0.191 -0.9591  1.4901  1.9121
 3814TIP3   OH232932   0.212   4.871  15.229 -0.4788 -0.0881 -0.3014
 3814TIP3    H132933   0.236   4.895  15.139 -0.5086 -0.9222 -0.5479
 3814TIP3    H232934   0.151   4.938  15.257 -1.1541 -0.2903 -1.2363
 3815TIP3   OH232935   1.068   1.982   6.262 -0.7239 -0.2252  0.4728
 3815TIP3    H132936   0.990   2.037   6.274 -1.2395 -0.8093 -0.1190
 3815TIP3    H232937   1.033   1.893   6.256 -0.0162 -0.4767  0.0835
 3816TIP3   OH232938   4.331   3.304   4.544 -0.2437  0.0483  0.2671
 3816TIP3    H132939   4.291   3.389   4.523  0.3660  0.3017  0.1027
 3816TIP3    H232940   4.341   3.305   4.639 -0.5157  0.0352  0.2962
 3817TIP3   OH232941   2.984   2.061  10.335  0.5245  0.7061 -0.4845
 3817TIP3    H132942   3.028   2.034  10.415 -1.3815 -0.9584  0.0852
 3817TIP3    H232943   3.052   2.107  10.285  1.5826  2.4983  2.3570
 3818TIP3   OH232944   0.070   5.885   5.121  0.1337 -0.9174 -0.3761
 3818TIP3    H132945   0.101   5.810   5.172 -3.2204 -2.4118 -0.2968
 3818TIP3    H232946   0.076   5.855   5.030 -1.0073 -1.2435 -0.3559
 3819TIP3   OH232947   1.808   6.341   2.004  0.0864  0.4512 -0.4816
 3819TIP3    H132948   1.784   6.348   1.912 -0.0063  1.8216 -0.3644
 3819TIP3    H232949   1.901   6.364   2.007  0.0793  0.4553 -0.2212
 3820TIP3   OH232950   3.507   5.709  17.197  0.0255  0.0373  0.4835
 3820TIP3    H132951   3.457   5.790  17.211  0.5854  0.7183 -1.1860
 3820TIP3    H232952   3.546   5.720  17.110 -0.0602 -2.1391  0.1220
 3821TIP3   OH232953   5.934   1.535  11.644  0.0308  0.1351 -0.1211
 3821TIP3    H132954   5.988   1.602  11.602  0.2520  1.0931  1.5907
 3821TIP3    H232955   5.844   1.560  11.623  0.1510 -1.0700 -2.3947
 3822TIP3   OH232956   5.971   5.298   0.654 -0.1254 -0.1464 -0.7133
 3822TIP3    H132957   5.983   5.247   0.574 -1.3050  0.7867 -1.5292
 3822TIP3    H232958   5.978   5.234   0.725  3.3839 -0.6377 -1.3283
 3823TIP3   OH232959   5.346   0.520   5.731  0.4910 -0.7494  0.7313
 3823TIP3    H132960   5.402   0.462   5.680  0.9781 -0.8099  1.3271
 3823TIP3    H232961   5.382   0.517   5.820 -0.5908 -0.9751  1.1876
 3824TIP3   OH232962   3.631   5.526   1.037 -0.4011 -0.1045  0.1601
 3824TIP3    H132963   3.582   5.471   1.098 -0.6327 -0.7332 -0.5806
 3824TIP3    H232964   3.564   5.578   0.992 -0.2041  0.6126  0.6709
 3825TIP3   OH232965   0.758   2.523   5.683  0.2707  0.3278 -0.3749
 3825TIP3    H132966   0.802   2.608   5.684 -1.5183  1.2799  0.3446
 3825TIP3    H232967   0.666   2.543   5.697 -0.3784 -1.6391 -1.4537
 3826TIP3   OH232968   5.092   1.472   5.157  0.1637 -0.1206 -0.5229
 3826TIP3    H132969   5.013   1.515   5.124 -1.5798 -0.2902  2.9428
 3826TIP3    H232970   5.148   1.544   5.187 -0.4108 -0.0510  0.4415
 3827TIP3   OH232971   2.935   6.280  17.045 -0.6372  0.2794  0.4410
 3827TIP3    H132972   2.859   6.338  17.054 -0.0804  1.6843 -2.5037
 3827TIP3    H232973   3.009   6.333  17.075 -0.5841 -0.5405  1.8440
 3828TIP3   OH232974   2.007   5.907   1.426  0.2518 -0.0187  0.2205
 3828TIP3    H132975   1.999   5.831   1.482 -0.2593  0.0389  0.2336
 3828TIP3    H232976   2.067   5.880   1.357  0.2960 -0.3384  0.3833
 3829TIP3   OH232977   3.288   3.126   4.022 -0.0643  0.1881 -0.1480
 3829TIP3    H132978   3.287   3.203   4.079  0.6686 -0.6647  1.0753
 3829TIP3    H232979   3.233   3.150   3.948 -0.6469  1.5274  0.6807
 3830TIP3   OH232980   6.788   2.469   0.593 -0.1434  0.1768  0.5904
 3830TIP3    H132981   6.707   2.444   0.549  0.5654  0.3540 -0.8754
 3830TIP3    H232982   6.765   2.547   0.643 -1.2721 -0.7618  1.5910
 3831TIP3   OH232983   2.754   4.213  16.942 -0.2428  0.2727 -0.0137
 3831TIP3    H132984   2.739   4.157  16.866 -0.5064 -1.9894  1.6013
 3831TIP3    H232985   2.844   4.197  16.967  0.3926  2.3038 -0.7586
 3832TIP3   OH232986   3.401   4.648  16.321 -0.1522  0.3169 -0.5667
 3832TIP3    H132987   3.322   4.595  16.334 -0.0577  0.3158  0.0236
 3832TIP3    H232988   3.375   4.714  16.257 -0.4088 -0.1487 -0.9484
 3833TIP3   OH232989   5.077   1.225   4.884  0.3694 -0.3575 -0.1249
 3833TIP3    H132990   5.154   1.254   4.835 -0.2577 -0.3932 -1.1687
 3833TIP3    H232991   5.078   1.129   4.875  1.6945 -0.6511  2.1879
 3834TIP3   OH232992   6.419   2.584  12.695  0.1833 -0.5428 -0.7968
 3834TIP3    H132993   6.497   2.635  12.672  1.3432 -1.5597  0.6461
 3834TIP3    H232994   6.428   2.503  12.644 -0.6685 -0.0969 -1.6694
 3835TIP3   OH232995   5.996   3.098   3.640  0.6351  0.0777 -0.5208
 3835TIP3    H132996   6.086   3.095   3.607  0.7884 -1.7195 -0.0474
 3835TIP3    H232997   5.948   3.144   3.571  1.7985  0.5344 -1.0642
 3836TIP3   OH232998   4.873   2.426   5.222  0.4635  0.0427 -0.2529
 3836TIP3    H132999   4.814   2.351   5.228  0.2398  0.2442  0.1118
 3836TIP3    H233000   4.933   2.404   5.151 -1.0025  0.4936 -1.6983
 3837TIP3   OH233001   0.090   6.493  15.617 -0.5004  0.1448  0.2710
 3837TIP3    H133002   0.140   6.432  15.564  2.1828  0.9369  1.6600
 3837TIP3    H233003   0.069   6.444  15.696  0.5042  0.5570  0.8213
 3838TIP3   OH233004   2.132   5.113   3.563  0.0887  0.7627 -0.1647
 3838TIP3    H133005   2.088   5.073   3.638  0.9060  0.7246  0.3098
 3838TIP3    H233006   2.204   5.054   3.543  0.9581  1.6681  0.1741
 3839TIP3   OH233007   5.845   6.498  15.850 -0.6065  0.1691 -0.5688
 3839TIP3    H133008   5.910   6.454  15.795 -0.1894  0.2176 -0.1304
 3839TIP3    H233009   5.779   6.530  15.789 -1.8647 -2.5659 -0.7924
 3840TIP3   OH233010   1.950   0.508  13.251  0.2758  0.1387 -0.7270
 3840TIP3    H133011   1.864   0.549  13.265  0.2385 -0.5890  1.5864
 3840TIP3    H233012   1.933   0.414  13.258  1.2286 -0.0181 -0.3791
 3841TIP3   OH233013   5.459   5.478  12.821 -0.0773 -0.0403  0.2624
 3841TIP3    H133014   5.517   5.407  12.794  0.0947 -1.5867  4.0333
 3841TIP3    H233015   5.515   5.555  12.826  0.2690 -0.1236 -1.5717
 3842TIP3   OH233016   4.275   2.697   6.085 -0.5761 -0.0640  0.0801
 3842TIP3    H133017   4.353   2.719   6.035  0.6760 -1.1533  1.4604
 3842TIP3    H233018   4.209   2.759   6.055  0.5901  0.3960 -1.6717
 3843TIP3   OH233019   6.749   4.259   1.952 -0.7430 -0.1336 -0.4062
 3843TIP3    H133020   6.674   4.308   1.986 -2.3541 -2.3295 -0.5949
 3843TIP3    H233021   6.754   4.181   2.007  0.2387 -0.9562 -1.5934
 3844TIP3   OH233022   6.130   2.468   0.055  0.0815 -0.6734 -0.1596
 3844TIP3    H133023   6.180   2.450   0.134  0.2640  0.3484 -0.0220
 3844TIP3    H233024   6.137   2.389   0.002 -0.3944 -1.5295  1.0215
 3845TIP3   OH233025   1.204   1.252  13.891  0.0105  0.3003 -0.4889
 3845TIP3    H133026   1.232   1.194  13.962 -1.5069  1.9598  1.6231
 3845TIP3    H233027   1.110   1.234  13.881  0.1606  0.2378 -1.9813
 3846TIP3   OH233028   6.024   5.189   0.081  0.3799  0.1354 -0.0200
 3846TIP3    H133029   6.116   5.164   0.072  0.1782 -0.1562 -1.4465
 3846TIP3    H233030   6.026   5.285   0.084  0.5965  0.3234 -2.8406
 3847TIP3   OH233031   3.332   6.319  15.403  0.3836  0.0336 -0.1975
 3847TIP3    H133032   3.417   6.300  15.364  1.1330  1.8107  0.4743
 3847TIP3    H233033   3.273   6.330  15.328  1.3173  1.2847 -0.7684
 3848TIP3   OH233034   4.097   5.450   1.128 -0.0390 -0.0067 -0.2441
 3848TIP3    H133035   4.041   5.420   1.057  1.0206  0.0249 -1.1296
 3848TIP3    H233036   4.156   5.376   1.145 -0.9991 -0.4408  1.4026
 3849TIP3   OH233037   3.351   2.090  15.027  0.2514 -0.2369  0.0345
 3849TIP3    H133038   3.320   2.120  14.941  2.6925 -0.4908 -1.0101
 3849TIP3    H233039   3.441   2.122  15.032  0.6363 -1.5162  1.8713
 3850TIP3   OH233040   1.122   2.527  14.511  0.6091 -0.2585 -0.2199
 3850TIP3    H133041   1.086   2.533  14.600  0.9642  1.4183 -0.1515
 3850TIP3    H233042   1.212   2.499  14.523 -0.0805 -2.6788 -0.2692
 3851TIP3   OH233043   3.254   2.783   0.082 -0.5589  0.0030 -0.1598
 3851TIP3    H133044   3.256   2.737  -0.002 -4.9289 -2.0850  0.6170
 3851TIP3    H233045   3.214   2.867   0.062 -2.1240 -0.7158 -0.1664
 3852TIP3   OH233046   2.801   3.809  15.762  0.4576  0.3250 -0.1027
 3852TIP3    H133047   2.883   3.760  15.766  0.5644  0.5189  0.1123
 3852TIP3    H233048   2.819   3.884  15.706  0.1335 -0.1711 -0.8978
 3853TIP3   OH233049   3.336   0.106  15.366 -0.2270 -0.6017 -0.1952
 3853TIP3    H133050   3.329   0.084  15.273 -0.5374  2.7031 -1.0902
 3853TIP3    H233051   3.257   0.158  15.384 -0.3266 -1.4356  2.0354
 3854TIP3   OH233052   0.057   4.962  16.417 -0.0362  0.3237 -0.1040
 3854TIP3    H133053  -0.028   4.974  16.374 -1.3528 -0.0571  2.2199
 3854TIP3    H233054   0.109   4.912  16.354 -1.9610 -0.5296 -1.0991
 3855TIP3   OH233055   5.445   6.021   2.528  0.0418 -0.0674  0.7582
 3855TIP3    H133056   5.400   5.946   2.568 -1.4139 -0.9737 -2.3083
 3855TIP3    H233057   5.482   5.986   2.447  1.6221  1.9755  0.5331
 3856TIP3   OH233058   6.179   2.676  11.316  0.6895  0.2741 -0.4400
 3856TIP3    H133059   6.123   2.752  11.301  1.8412  1.4336  0.8057
 3856TIP3    H233060   6.201   2.680  11.409  0.5659 -1.7624 -0.2840
 3857TIP3   OH233061   3.737   6.311  15.776 -0.0114 -0.3433  0.1206
 3857TIP3    H133062   3.747   6.326  15.870  0.9647 -0.5589  0.0587
 3857TIP3    H233063   3.645   6.289  15.765 -0.0894 -0.5063  1.0569
 3858TIP3   OH233064   5.617   0.563   5.133  0.1750  0.5629 -0.2338
 3858TIP3    H133065   5.672   0.627   5.180 -1.5150  2.1332 -0.2697
 3858TIP3    H233066   5.670   0.536   5.059  2.2739 -0.7196  1.6223
 3859TIP3   OH233067   0.922   1.465  15.893 -0.0280 -0.2013 -0.8605
 3859TIP3    H133068   1.007   1.466  15.849 -0.6243  1.7588 -2.1139
 3859TIP3    H233069   0.913   1.554  15.928 -0.1783 -1.2789  2.1912
 3860TIP3   OH233070   4.224   2.468  14.875  0.0808  0.3365  0.1633
 3860TIP3    H133071   4.201   2.545  14.928  2.6224  1.1053  0.2440
 3860TIP3    H233072   4.223   2.396  14.937 -1.0580  0.4764  0.3480
 3861TIP3   OH233073   6.816   2.993   3.907  0.3990  0.0330 -0.6979
 3861TIP3    H133074   6.726   2.968   3.927  0.5871 -0.9347 -1.0060
 3861TIP3    H233075   6.834   3.066   3.966 -0.0015 -0.9124  0.6315
 3862TIP3   OH233076   5.428   0.820  13.438 -0.1444  0.3027  0.5960
 3862TIP3    H133077   5.366   0.893  13.431 -1.4763 -0.3385  3.7569
 3862TIP3    H233078   5.506   0.859  13.477  0.2917  0.5365 -0.4796
 3863TIP3   OH233079   4.216   5.143   4.914 -0.2354  0.0458  0.3217
 3863TIP3    H133080   4.155   5.189   4.971 -0.9735 -0.0935 -0.3512
 3863TIP3    H233081   4.195   5.050   4.927  0.3273 -0.0454  0.6338
 3864TIP3   OH233082   2.003   1.530   3.343  0.2044  0.1404  0.1975
 3864TIP3    H133083   1.936   1.527   3.411  0.9014  2.0062  1.0381
 3864TIP3    H233084   1.996   1.617   3.306  1.3732 -0.0533 -0.5308
 3865TIP3   OH233085   2.992   3.519   1.611 -0.1478 -0.1788  0.6672
 3865TIP3    H133086   3.076   3.533   1.653  0.5785 -1.3304 -0.3377
 3865TIP3    H233087   3.013   3.502   1.519 -1.4713 -0.3989  0.3794
 3866TIP3   OH233088   2.946   2.287  10.863  0.2425 -0.2891  0.1762
 3866TIP3    H133089   2.996   2.226  10.809  0.1541  0.5983 -0.9410
 3866TIP3    H233090   3.006   2.360  10.878 -0.8699  1.1403 -1.8030
 3867TIP3   OH233091   2.580   5.198  13.999  0.1870  0.5482  0.3280
 3867TIP3    H133092   2.526   5.228  13.925  0.2768 -1.1110 -0.4493
 3867TIP3    H233093   2.649   5.264  14.006 -0.2899  1.1708 -0.5274
 3868TIP3   OH233094   1.279   0.595   1.503  0.0049 -1.0020 -0.1756
 3868TIP3    H133095   1.299   0.586   1.410 -0.0543  0.0659 -0.3012
 3868TIP3    H233096   1.360   0.571   1.548  0.3264 -0.5868 -0.5357
 3869TIP3   OH233097   3.764   3.769  11.877  0.1321  0.2284 -0.3846
 3869TIP3    H133098   3.836   3.713  11.908  0.9484 -0.9474 -3.9512
 3869TIP3    H233099   3.808   3.848  11.844 -0.5675  0.8827  0.2024
 3870TIP3   OH233100   1.650   3.596   0.548 -0.0331 -0.0976 -0.7939
 3870TIP3    H133101   1.657   3.502   0.565  1.5625  0.2771  1.0747
 3870TIP3    H233102   1.725   3.616   0.492 -0.9118 -0.0767 -1.9764
 3871TIP3   OH233103   0.260   0.396  11.755  0.0608 -0.5084 -0.1435
 3871TIP3    H133104   0.190   0.363  11.811  0.4363  0.6566  1.0625
 3871TIP3    H233105   0.338   0.394  11.810  0.4164  0.7691 -0.5712
 3872TIP3   OH233106   5.759   0.377   0.418 -0.1148 -0.0600 -0.2418
 3872TIP3    H133107   5.771   0.471   0.404 -0.8443  0.0543 -0.1378
 3872TIP3    H233108   5.709   0.347   0.342  1.1521 -0.6057 -0.8855
 3873TIP3   OH233109   6.170   4.841  12.979  0.0746 -0.2537  0.7081
 3873TIP3    H133110   6.076   4.831  12.970  0.0191  1.0570 -0.6596
 3873TIP3    H233111   6.184   4.868  13.070 -0.7260 -1.5222  1.2341
 3874TIP3   OH233112   0.241   6.536  16.238 -0.0865 -0.4237 -0.3007
 3874TIP3    H133113   0.295   6.565  16.165 -1.7768  2.4424 -0.5986
 3874TIP3    H233114   0.298   6.545  16.315  0.1343  2.1377 -0.6456
 3875TIP3   OH233115   1.587   4.879   2.667  0.6199 -0.3109  0.2390
 3875TIP3    H133116   1.565   4.795   2.627 -0.5034  0.4301 -0.7624
 3875TIP3    H233117   1.580   4.942   2.596 -1.1035  1.0108  1.4846
 3876TIP3   OH233118   6.247   0.329   0.985  0.5068  0.4859  0.1311
 3876TIP3    H133119   6.321   0.382   0.955  0.5537  0.9314  1.0052
 3876TIP3    H233120   6.171   0.364   0.938  0.8306  0.0811 -0.7066
 3877TIP3   OH233121   5.526   2.962   1.014 -0.2935  0.0423 -0.4140
 3877TIP3    H133122   5.604   2.957   0.959  0.4907 -0.2714  0.7093
 3877TIP3    H233123   5.557   2.991   1.099 -1.3826 -0.2000  0.0893
 3878TIP3   OH233124   2.717   1.655   3.607  0.5873 -0.5208 -0.3558
 3878TIP3    H133125   2.686   1.620   3.690  0.4887  1.2678  0.3925
 3878TIP3    H233126   2.748   1.578   3.559 -2.9524 -2.1597 -0.3085
 3879TIP3   OH233127   5.646   6.566  15.673 -0.1625 -0.7423 -0.3141
 3879TIP3    H133128   5.589   6.633  15.635  0.2469 -2.2679 -4.0690
 3879TIP3    H233129   5.586   6.495  15.698 -0.3271 -0.1801  0.9703
 3880TIP3   OH233130   3.755   2.911  12.941 -0.3169 -0.1925 -0.6221
 3880TIP3    H133131   3.755   2.876  12.852 -0.3227 -2.0951  0.0923
 3880TIP3    H233132   3.798   2.844  12.994  1.6649  1.8396  0.5021
 3881TIP3   OH233133   0.719   2.451  11.524  0.1092 -0.8913 -0.5202
 3881TIP3    H133134   0.746   2.444  11.616  1.0968  1.2357 -0.5780
 3881TIP3    H233135   0.632   2.491  11.528  0.2013 -0.6876 -0.4835
 3882TIP3   OH233136   1.801   5.564   2.452 -0.5495  0.1551  0.8627
 3882TIP3    H133137   1.831   5.652   2.475  0.2030  0.0971  0.1858
 3882TIP3    H233138   1.847   5.545   2.369 -0.8448 -0.7944  0.9114
 3883TIP3   OH233139   4.591   5.603   6.030  0.0527  0.0032 -0.0379
 3883TIP3    H133140   4.675   5.643   6.053 -0.7820  1.5892  0.3646
 3883TIP3    H233141   4.577   5.536   6.097  0.7328  0.0951  0.2031
 3884TIP3   OH233142   2.642   1.502   1.009 -0.3321  0.2194 -0.0490
 3884TIP3    H133143   2.657   1.444   0.935 -1.1834  0.0149 -0.0707
 3884TIP3    H233144   2.686   1.583   0.986  0.1001 -0.1185 -0.4176
 3885TIP3   OH233145   1.508   2.353   0.696 -0.0072  0.3310 -0.6277
 3885TIP3    H133146   1.487   2.375   0.787 -0.3934 -1.5749 -0.1999
 3885TIP3    H233147   1.564   2.424   0.666  0.3820  0.8493  1.2105
 3886TIP3   OH233148   6.833   3.679   3.755  0.6724  0.1229  0.5273
 3886TIP3    H133149   6.792   3.602   3.797 -0.9240  0.8505  0.3927
 3886TIP3    H233150   6.774   3.700   3.682  1.2876  1.2423  0.3350
 3887TIP3   OH233151   6.712   5.974  10.706  0.2479  0.8670  0.3188
 3887TIP3    H133152   6.758   5.996  10.624  2.5457 -0.8308  1.0475
 3887TIP3    H233153   6.731   5.881  10.719 -2.9135  0.2161  1.1009
 3888TIP3   OH233154   6.505   2.225  17.039 -0.2237  0.7041 -0.0014
 3888TIP3    H133155   6.420   2.233  16.996  0.0797  0.5288 -0.6486
 3888TIP3    H233156   6.552   2.305  17.016 -0.3689  1.0133  0.7314
 3889TIP3   OH233157   3.600   4.211  11.832 -0.3692 -0.5657 -0.2070
 3889TIP3    H133158   3.651   4.291  11.824  1.0952 -1.4926 -0.3313
 3889TIP3    H233159   3.553   4.204  11.749 -0.7540  0.2950 -0.0809
 3890TIP3   OH233160   1.565   3.668   0.161  0.3581  0.0602 -0.6002
 3890TIP3    H133161   1.470   3.662   0.156  0.2322  1.2216  0.0904
 3890TIP3    H233162   1.595   3.656   0.071 -0.3848 -0.9408 -0.7282
 3891TIP3   OH233163   4.110   3.315  13.033 -0.8591  0.0557  0.3072
 3891TIP3    H133164   4.061   3.263  12.970  1.9178 -1.3875 -0.8473
 3891TIP3    H233165   4.123   3.257  13.107 -1.3098  0.5962  0.8149
 3892TIP3   OH233166   2.550   4.998  10.809 -0.0129 -0.2925  0.5138
 3892TIP3    H133167   2.560   5.066  10.743 -1.2071 -1.0010 -0.4282
 3892TIP3    H233168   2.601   4.924  10.775  1.3311  0.1092  1.5594
 3893TIP3   OH233169   6.819   1.223  11.118 -0.3408 -0.1773  0.3237
 3893TIP3    H133170   6.777   1.160  11.060 -0.4332  0.6737 -0.5703
 3893TIP3    H233171   6.903   1.243  11.075 -0.4249  0.4915  0.4560
 3894TIP3   OH233172   1.468   5.944   3.506 -0.2621  0.0451 -0.3345
 3894TIP3    H133173   1.445   5.857   3.475 -0.4865 -0.2563  0.6543
 3894TIP3    H233174   1.388   5.995   3.498 -0.1760  0.1120 -0.7568
 3895TIP3   OH233175   1.481   5.367  15.995 -0.2599  0.5664 -0.4356
 3895TIP3    H133176   1.574   5.365  16.015 -0.0137 -1.4976 -1.5333
 3895TIP3    H233177   1.476   5.356  15.900 -1.5792  3.3022 -0.7831
 3896TIP3   OH233178   3.001   5.460  11.185  0.5905 -0.5923 -0.5959
 3896TIP3    H133179   3.047   5.417  11.112  1.7537 -0.6386  0.1364
 3896TIP3    H233180   3.026   5.409  11.262  0.8761  0.5532  0.0938
 3897TIP3   OH233181   6.793   4.686   1.081 -0.1654  0.7523  0.1944
 3897TIP3    H133182   6.799   4.774   1.117  0.7383  0.6646  0.2844
 3897TIP3    H233183   6.830   4.693   0.993  2.0052  0.0539  0.9852
 3898TIP3   OH233184   5.357   2.835  15.667 -0.0360  0.4375 -0.2727
 3898TIP3    H133185   5.325   2.888  15.740 -1.3378 -1.0886  0.3410
 3898TIP3    H233186   5.417   2.773  15.708 -2.4455 -1.8963  0.0175
 3899TIP3   OH233187   0.324   3.939  17.001  0.0981  0.3587 -0.2843
 3899TIP3    H133188   0.404   3.899  17.034  0.4366  0.1062 -1.3486
 3899TIP3    H233189   0.353   4.019  16.957 -0.1214 -0.1479 -1.3798
 3900TIP3   OH233190   1.208   2.731  17.116 -0.0411  0.2636  0.1932
 3900TIP3    H133191   1.226   2.640  17.092  1.4530  1.1589 -2.4952
 3900TIP3    H233192   1.294   2.770  17.130 -0.2002  2.3753 -3.5494
 3901TIP3   OH233193   0.479   5.950   5.048 -0.8923 -0.1239  0.1643
 3901TIP3    H133194   0.456   5.857   5.040  0.6155 -0.4485 -0.6901
 3901TIP3    H233195   0.541   5.966   4.977 -2.4704  2.0011 -0.8229
 3902TIP3   OH233196   3.725   0.494   0.456  0.6074 -0.6806 -0.8420
 3902TIP3    H133197   3.744   0.588   0.452  0.5591 -0.6595 -0.5872
 3902TIP3    H233198   3.812   0.453   0.452  0.6336 -0.6236 -0.8755
 3903TIP3   OH233199   4.434   1.488   2.192 -0.5463 -0.2448 -0.2445
 3903TIP3    H133200   4.428   1.396   2.167  1.3339 -0.3504 -0.4672
 3903TIP3    H233201   4.430   1.488   2.287  0.7157 -0.7127 -0.1714
 3904TIP3   OH233202   3.623   4.677   4.395  0.2022 -0.0838  0.0475
 3904TIP3    H133203   3.704   4.680   4.446  0.9004 -2.3911 -0.7793
 3904TIP3    H233204   3.600   4.768   4.380  3.0460  0.6695 -0.2810
 3905TIP3   OH233205   6.577   0.571  16.363 -0.5182  0.2187  0.0495
 3905TIP3    H133206   6.639   0.588  16.292 -2.5353  0.1032 -1.8282
 3905TIP3    H233207   6.576   0.475  16.371  0.1731  0.2506  0.7347
 3906TIP3   OH233208   5.422   3.653   1.773  0.3107  0.2031 -0.1640
 3906TIP3    H133209   5.337   3.671   1.732 -0.3459 -1.0244  0.5790
 3906TIP3    H233210   5.475   3.730   1.755 -0.5624  0.4706 -1.7023
 3907TIP3   OH233211   6.718   6.117   3.607  0.1321 -0.0926  0.2542
 3907TIP3    H133212   6.674   6.202   3.610  0.1519 -0.0930  0.5062
 3907TIP3    H233213   6.706   6.080   3.694  1.1050  0.1461  0.4962
 3908TIP3   OH233214   1.446   4.956  15.625 -0.5875 -0.8307 -0.1417
 3908TIP3    H133215   1.437   4.880  15.684 -0.0557 -0.4538  0.4322
 3908TIP3    H233216   1.467   4.917  15.540 -0.9490 -1.3600 -0.0002
 3909TIP3   OH233217   1.880   2.464  12.704  0.3143  0.1876  0.2384
 3909TIP3    H133218   1.830   2.429  12.631 -0.0567  1.5448 -0.1854
 3909TIP3    H233219   1.866   2.402  12.776 -0.8377 -0.1734 -0.2932
 3910TIP3   OH233220   2.328   0.458   0.490 -0.2830 -0.2643  0.0703
 3910TIP3    H133221   2.261   0.524   0.476 -0.5966 -0.9762 -2.2434
 3910TIP3    H233222   2.282   0.385   0.531 -0.4791  0.0061  0.3346
 3911TIP3   OH233223   0.469   3.080   0.214  0.0793  0.2100  0.0906
 3911TIP3    H133224   0.393   3.029   0.242  0.1519  0.8817  1.6071
 3911TIP3    H233225   0.487   3.139   0.288  3.0532 -1.0275  0.5164
 3912TIP3   OH233226   5.981   0.583   2.585  0.3103 -0.2156  0.1244
 3912TIP3    H133227   5.998   0.633   2.665 -1.5320  1.2457 -0.3350
 3912TIP3    H233228   5.925   0.511   2.613  0.4714 -0.2779  0.2910
 3913TIP3   OH233229   4.472   4.942  14.927 -0.3780 -0.2681  0.1052
 3913TIP3    H133230   4.429   5.025  14.907 -1.6914 -0.9005  0.1951
 3913TIP3    H233231   4.445   4.921  15.016  1.7646  0.2827  0.9397
 3914TIP3   OH233232   3.999   3.675  11.293  0.1509  0.1418  0.2944
 3914TIP3    H133233   4.035   3.600  11.339  2.3732  2.1751  2.1849
 3914TIP3    H233234   4.069   3.704  11.234 -0.7413  0.6214 -0.5648
 3915TIP3   OH233235   4.654   2.463  11.595  0.1239 -0.5977 -0.4133
 3915TIP3    H133236   4.661   2.512  11.677 -2.0577  0.5695 -0.8342
 3915TIP3    H233237   4.573   2.413  11.604  0.8764 -1.9845 -1.1071
 3916TIP3   OH233238   6.276   4.500  13.820 -0.2052 -0.0972 -0.3602
 3916TIP3    H133239   6.350   4.512  13.761  0.6142 -1.9225  0.2058
 3916TIP3    H233240   6.309   4.531  13.905  0.0451 -1.2065 -0.0414
 3917TIP3   OH233241   1.613   5.027   2.171  0.2203  0.3260  0.3289
 3917TIP3    H133242   1.702   4.992   2.170  0.5375  1.1118 -1.2998
 3917TIP3    H233243   1.618   5.110   2.125 -1.4814  0.0838 -0.3943
 3918TIP3   OH233244   3.826   2.861   1.986 -0.5683 -0.4955  0.8386
 3918TIP3    H133245   3.835   2.847   2.080  0.6570  0.7887  0.9586
 3918TIP3    H233246   3.893   2.804   1.947 -0.8018 -0.7245  0.7716
 3919TIP3   OH233247   4.660   0.641  15.136 -0.2723  0.7487  0.4104
 3919TIP3    H133248   4.738   0.654  15.083 -1.8460  0.5591 -2.0733
 3919TIP3    H233249   4.684   0.570  15.196  1.4411  0.7015 -0.2743
 3920TIP3   OH233250   4.639   5.816   2.191 -0.4326 -0.1232 -0.6501
 3920TIP3    H133251   4.600   5.878   2.130  0.6469 -0.4228 -1.6929
 3920TIP3    H233252   4.606   5.842   2.276  1.2863  2.9908 -0.7785
 3921TIP3   OH233253   2.531   5.910   3.459  0.8545 -0.5168 -0.1329
 3921TIP3    H133254   2.546   5.837   3.399  1.0370 -1.0464  0.5549
 3921TIP3    H233255   2.491   5.978   3.404  3.5444  0.0780 -1.5382
 3922TIP3   OH233256   4.422   4.336  11.936 -0.0174  0.0078  0.2106
 3922TIP3    H133257   4.432   4.349  11.842  0.4262 -0.6030  0.1644
 3922TIP3    H233258   4.345   4.387  11.960  1.6902  2.8820  0.0857
 3923TIP3   OH233259   5.403   2.138   0.805 -0.0236 -0.0518 -0.2150
 3923TIP3    H133260   5.335   2.196   0.840 -0.5166 -0.0217 -1.1781
 3923TIP3    H233261   5.457   2.195   0.749  1.4607  0.1548  1.3612
 3924TIP3   OH233262   5.854   2.389   5.342 -0.3260 -0.6176 -0.4846
 3924TIP3    H133263   5.842   2.364   5.250  0.7527 -0.2262 -0.7445
 3924TIP3    H233264   5.940   2.354   5.365  0.4753  1.3033 -0.3551
 3925TIP3   OH233265   4.939   2.356  14.695 -0.7288  0.2930 -0.5444
 3925TIP3    H133266   5.028   2.389  14.708 -0.5339 -0.4443  0.0417
 3925TIP3    H233267   4.882   2.431  14.715 -0.3237  0.1309  1.3088
 3926TIP3   OH233268   2.251   1.103   4.534 -0.3219  0.6313  0.2520
 3926TIP3    H133269   2.189   1.164   4.494 -0.9701 -0.1978 -0.0453
 3926TIP3    H233270   2.337   1.141   4.515 -0.6516  0.7629 -1.1102
 3927TIP3   OH233271   0.929   4.275   3.863 -0.0512 -0.6347 -0.0138
 3927TIP3    H133272   0.951   4.213   3.933 -0.1919 -0.8696 -0.1747
 3927TIP3    H233273   0.911   4.357   3.909 -1.0629 -1.0277  0.3149
 3928TIP3   OH233274   4.655   2.132  15.035  0.2087  0.8906  0.2389
 3928TIP3    H133275   4.576   2.125  14.981  0.4901 -1.8617  0.0616
 3928TIP3    H233276   4.657   2.224  15.062 -1.7100  1.6073 -1.7404
 3929TIP3   OH233277   4.496   0.104   4.136 -0.0492 -0.0527 -0.1281
 3929TIP3    H133278   4.521   0.144   4.053 -1.2009 -0.3805 -0.6570
 3929TIP3    H233279   4.501   0.176   4.200 -0.0531  0.4257 -0.6622
 3930TIP3   OH233280   5.924   3.788  12.587 -0.3462  0.5108 -0.2533
 3930TIP3    H133281   5.960   3.714  12.538  0.0989 -0.4846  1.5144
 3930TIP3    H233282   5.912   3.856  12.521  2.0787 -0.0955 -1.4239
 3931TIP3   OH233283   6.530   2.909   0.250  0.0429 -0.1084 -0.5118
 3931TIP3    H133284   6.542   2.864   0.334  0.4423 -0.1299 -0.5787
 3931TIP3    H233285   6.605   2.967   0.242  0.7590 -1.1305 -1.4981
 3932TIP3   OH233286   2.275   1.273  16.359  0.4214 -0.3750 -0.0298
 3932TIP3    H133287   2.335   1.297  16.289  0.3411 -0.7026 -0.2137
 3932TIP3    H233288   2.332   1.245  16.431  0.4996 -0.2506 -0.0435
 3933TIP3   OH233289   0.121   2.179   5.360  0.1525  0.9564 -0.2715
 3933TIP3    H133290   0.108   2.208   5.450  0.3813  0.5426 -0.1098
 3933TIP3    H233291   0.032   2.160   5.328  0.2736 -3.8319  1.4706
 3934TIP3   OH233292   2.188   3.881   2.595  0.5583  0.6772 -0.3965
 3934TIP3    H133293   2.262   3.873   2.536  1.1591  1.2025  0.2672
 3934TIP3    H233294   2.124   3.817   2.563  2.1321 -1.3263  0.2736
 3935TIP3   OH233295   6.637   6.364  12.990  0.2671 -0.0613  0.0508
 3935TIP3    H133296   6.716   6.316  13.016 -0.3352  0.0562  2.3279
 3935TIP3    H233297   6.566   6.321  13.039 -0.2637  3.2823  2.6347
 3936TIP3   OH233298   3.395   5.316   4.954  0.6136 -0.2088  0.0484
 3936TIP3    H133299   3.328   5.248   4.965  0.4509  0.0654  0.8383
 3936TIP3    H233300   3.469   5.285   5.005  0.1323  0.7232  1.3491
 3937TIP3   OH233301   2.848   1.058  16.984  0.0895  0.3159 -0.1629
 3937TIP3    H133302   2.920   1.050  16.921  1.5997  0.8490  1.4025
 3937TIP3    H233303   2.855   1.147  17.018 -0.3040 -0.1178  1.1447
 3938TIP3   OH233304   1.628   3.861   4.808  0.4103  0.5280  0.3112
 3938TIP3    H133305   1.720   3.855   4.835  0.7801  2.3784 -0.4059
 3938TIP3    H233306   1.629   3.914   4.728 -1.2187 -0.0814 -0.1602
 3939TIP3   OH233307   1.174   0.429  13.370  0.0080 -0.5853 -0.7492
 3939TIP3    H133308   1.180   0.432  13.274 -1.2906 -0.9954 -0.8632
 3939TIP3    H233309   1.124   0.349  13.388 -1.9451  0.7587  0.1219
 3940TIP3   OH233310   5.397   1.826   2.672 -0.5018 -0.5605 -0.5992
 3940TIP3    H133311   5.321   1.878   2.696 -1.2254 -2.0110  0.4970
 3940TIP3    H233312   5.404   1.834   2.577 -0.1245  2.0539 -0.4096
 3941TIP3   OH233313   1.524   1.798  13.380 -0.2775  0.2357 -0.6381
 3941TIP3    H133314   1.502   1.788  13.473  1.3961 -0.6621 -0.3099
 3941TIP3    H233315   1.605   1.849  13.380 -1.0929  1.6254 -1.7184
 3942TIP3   OH233316   3.419   0.529   2.452 -0.4917 -0.1192 -0.0346
 3942TIP3    H133317   3.411   0.575   2.368  0.4654 -0.5140 -0.3557
 3942TIP3    H233318   3.332   0.493   2.467 -0.9131  0.6905 -0.4187
 3943TIP3   OH233319   3.084   0.987  12.870  0.3175  0.4294  0.4739
 3943TIP3    H133320   3.148   0.920  12.895  0.1182  0.4705  1.1110
 3943TIP3    H233321   3.048   0.956  12.787  0.4579 -0.0933  0.6015
 3944TIP3   OH233322   6.062   5.824  12.953 -0.2099  0.3118 -0.4071
 3944TIP3    H133323   6.061   5.906  13.003  0.6836 -0.5593  1.0950
 3944TIP3    H233324   6.035   5.757  13.016  1.6603 -0.9297 -0.8399
 3945TIP3   OH233325   5.812   2.517  14.103  0.3295  0.3493  0.6288
 3945TIP3    H133326   5.818   2.517  14.198  2.3244  1.2841  0.5403
 3945TIP3    H233327   5.747   2.584  14.082  0.5953  0.8110  1.2935
 3946TIP3   OH233328   0.593   2.458   0.761  0.0205 -0.3360 -0.1620
 3946TIP3    H133329   0.519   2.426   0.812 -2.1426  1.1058 -2.1515
 3946TIP3    H233330   0.616   2.542   0.801 -0.0688 -0.3346 -0.1135
 3947TIP3   OH233331   6.705   3.403   4.251  0.2049 -0.2253 -0.0374
 3947TIP3    H133332   6.691   3.335   4.185  0.6589 -0.5407  0.1903
 3947TIP3    H233333   6.722   3.482   4.200 -2.1314  0.1426 -0.3339
 3948TIP3   OH233334   3.540   6.694   2.310  0.0739  0.3600 -0.4808
 3948TIP3    H133335   3.466   6.635   2.304  0.2886  0.0567 -0.1936
 3948TIP3    H233336   3.513   6.773   2.262 -1.3311  1.1936  1.5600
 3949TIP3   OH233337   0.681   3.260  13.316  0.3002 -0.4485  0.3773
 3949TIP3    H133338   0.643   3.255  13.228 -0.4903 -0.8572  0.7249
 3949TIP3    H233339   0.661   3.175  13.355  0.6117 -0.2553  0.9582
 3950TIP3   OH233340   4.300   4.012   2.843 -0.3656  0.1847 -0.4548
 3950TIP3    H133341   4.241   4.075   2.884  0.4923  0.1091  0.9735
 3950TIP3    H233342   4.383   4.059   2.833 -0.7921  0.5206 -3.0973
 3951TIP3   OH233343   3.055   2.460  16.264 -0.0767 -0.0809  0.5053
 3951TIP3    H133344   3.113   2.423  16.197  0.6926  2.4713 -0.3332
 3951TIP3    H233345   2.967   2.443  16.231  0.2747 -0.0352 -0.4841
 3952TIP3   OH233346   3.679   1.249   3.459  0.2370  0.2152  0.0117
 3952TIP3    H133347   3.593   1.206   3.450  0.2329  0.6351 -3.1762
 3952TIP3    H233348   3.658   1.342   3.470  0.2586  0.2101  0.0905
 3953TIP3   OH233349   2.254   3.056  15.292  0.1981  0.0096  0.0934
 3953TIP3    H133350   2.267   3.043  15.198 -0.3188  1.3318 -0.1815
 3953TIP3    H233351   2.180   3.116  15.299  0.6836  0.5186  1.3223
 3954TIP3   OH233352   5.243   6.690  13.585 -0.0122  0.3611  0.2000
 3954TIP3    H133353   5.209   6.622  13.643  0.1150  0.7463  0.7240
 3954TIP3    H233354   5.324   6.720  13.626  0.0681  0.6530 -0.1618
 3955TIP3   OH233355   4.219   4.532  12.001 -0.3516 -0.3190  0.4466
 3955TIP3    H133356   4.131   4.568  11.989  0.0964  0.4395 -0.8568
 3955TIP3    H233357   4.258   4.587  12.068 -0.8759 -0.6802  1.0556
 3956TIP3   OH233358   0.708   2.073  12.453 -0.3645 -0.2457 -0.5558
 3956TIP3    H133359   0.768   2.101  12.522 -0.4069  0.6513 -0.8670
 3956TIP3    H233360   0.621   2.084  12.491 -0.3622 -0.7089 -0.4097
 3957TIP3   OH233361   3.708   1.286  12.260  0.0056 -0.1140 -0.2616
 3957TIP3    H133362   3.657   1.246  12.330 -1.0223 -0.7782 -1.3578
 3957TIP3    H233363   3.694   1.380  12.271 -0.4334 -0.2303  0.1983
 3958TIP3   OH233364   0.417   4.666   2.262 -0.6767  0.4424  0.0138
 3958TIP3    H133365   0.465   4.713   2.194  0.3387 -1.1469 -0.4416
 3958TIP3    H233366   0.443   4.707   2.344 -0.8232  1.4820 -0.4543
 3959TIP3   OH233367   5.067   2.834   4.032 -0.1902  0.1088  0.7725
 3959TIP3    H133368   5.040   2.867   3.947 -0.6023 -0.6106  0.6115
 3959TIP3    H233369   5.051   2.906   4.093  1.6414  1.2197  0.0088
 3960TIP3   OH233370   3.604   1.906  14.854 -0.2756 -0.0561 -0.3878
 3960TIP3    H133371   3.572   1.906  14.764 -0.1606 -0.0124 -0.4302
 3960TIP3    H233372   3.539   1.856  14.903  0.3747 -1.3027 -0.7589
 3961TIP3   OH233373   6.655   3.528  11.588 -0.1410  0.3318 -0.4398
 3961TIP3    H133374   6.693   3.615  11.572 -1.8001  1.2991  0.5663
 3961TIP3    H233375   6.731   3.469  11.590  0.9240  1.5408 -2.3039
 3962TIP3   OH233376   4.080   1.344  15.612  0.5170  0.4044 -0.3375
 3962TIP3    H133377   4.077   1.323  15.705 -0.1046  0.5204 -0.3234
 3962TIP3    H233378   3.998   1.391  15.596  1.0731  1.2717 -0.7329
 3963TIP3   OH233379   5.509   4.900   5.462 -0.0919 -0.0623  0.3125
 3963TIP3    H133380   5.554   4.823   5.426 -0.6389 -0.2433 -0.0006
 3963TIP3    H233381   5.573   4.939   5.522 -0.1124 -1.2463  1.1464
 3964TIP3   OH233382   4.512   6.720   3.570 -0.7792  0.9699 -0.2383
 3964TIP3    H133383   4.459   6.685   3.498 -0.8318  0.2177  0.1520
 3964TIP3    H233384   4.602   6.712   3.540 -0.7465 -0.1392  0.0941
 3965TIP3   OH233385   2.492   1.175  12.271  0.8529  0.2549  0.0153
 3965TIP3    H133386   2.402   1.166  12.303  1.3958  0.2131  1.6459
 3965TIP3    H233387   2.490   1.251  12.213 -0.2445  0.2309  0.0109
 3966TIP3   OH233388   0.505   2.411   4.628  0.2308  0.3627  0.4519
 3966TIP3    H133389   0.474   2.356   4.699  1.6000 -1.1359 -0.0407
 3966TIP3    H233390   0.600   2.414   4.639  0.6293 -0.9739 -1.9909
 3967TIP3   OH233391   1.572   1.663  12.162  0.0933 -0.1356 -0.5372
 3967TIP3    H133392   1.589   1.667  12.257 -0.1830  0.6104 -0.5095
 3967TIP3    H233393   1.636   1.600  12.129  1.2408  0.7545 -0.0810
 3968TIP3   OH233394   4.943   5.589  11.173 -0.2447  0.5428  0.2853
 3968TIP3    H133395   4.914   5.673  11.209  0.2025  2.1472 -2.8218
 3968TIP3    H233396   4.862   5.539  11.161 -0.4744  0.1876  2.6411
 3969TIP3   OH233397   4.543   3.737  12.008  1.3198  0.2209  0.1944
 3969TIP3    H133398   4.567   3.791  12.083  1.2760  0.9835 -0.3327
 3969TIP3    H233399   4.611   3.669  12.005  2.0558  0.9452  0.1537
 3970TIP3   OH233400   1.254   0.796   4.899  0.3228  0.0341  0.1774
 3970TIP3    H133401   1.251   0.742   4.977 -2.2370 -0.0313  0.1240
 3970TIP3    H233402   1.203   0.747   4.834 -0.2168  1.4792 -0.5381
 3971TIP3   OH233403   1.073   6.605  12.507 -1.0934  0.0306 -0.2236
 3971TIP3    H133404   0.984   6.626  12.534 -1.5864 -2.4533  0.2915
 3971TIP3    H233405   1.062   6.566  12.420 -0.5677 -0.6292  0.0004
 3972TIP3   OH233406   6.803   4.520   5.033 -0.1035  0.1949 -0.1320
 3972TIP3    H133407   6.895   4.494   5.041 -0.3726 -0.6095  0.4853
 3972TIP3    H233408   6.773   4.477   4.952 -0.3145 -0.7423  0.4317
 3973TIP3   OH233409   3.570   3.353  16.122 -0.1185  0.1034 -0.7780
 3973TIP3    H133410   3.538   3.268  16.089 -0.5556  0.1230 -0.4141
 3973TIP3    H233411   3.627   3.385  16.053  0.7230 -0.8818 -0.5629
 3974TIP3   OH233412   2.984   4.495   5.561  0.1420  0.5904  0.0056
 3974TIP3    H133413   2.951   4.489   5.651  0.5927 -2.0562  0.0713
 3974TIP3    H233414   2.914   4.539   5.514 -1.4229 -0.5708  1.1101
 3975TIP3   OH233415   3.844   5.579   2.876 -0.1452  0.2610 -0.2762
 3975TIP3    H133416   3.932   5.616   2.874  0.3486 -0.5036  2.8750
 3975TIP3    H233417   3.858   5.484   2.876 -1.0352  0.1214 -0.6636
 3976TIP3   OH233418   0.250   0.679  14.536  0.5031 -0.8334 -0.0627
 3976TIP3    H133419   0.314   0.728  14.484  0.3894  0.2916  0.8338
 3976TIP3    H233420   0.286   0.679  14.625  0.2607 -1.9796  0.0496
 3977TIP3   OH233421   5.184   5.427  13.784  0.4062  0.1877  0.1822
 3977TIP3    H133422   5.094   5.431  13.817  0.2042  1.7117 -0.4544
 3977TIP3    H233423   5.177   5.390  13.697  0.3777  0.3986  0.0940
 3978TIP3   OH233424   2.952   4.745   3.219 -0.3979  0.4034 -0.6793
 3978TIP3    H133425   2.919   4.656   3.216 -0.8999  0.5642 -0.2227
 3978TIP3    H233426   2.880   4.796   3.258 -0.0318  0.9604 -0.7129
 3979TIP3   OH233427   4.522   4.838  17.115  0.5445  0.1994  0.0683
 3979TIP3    H133428   4.530   4.821  17.209 -3.0714  0.1666  0.5145
 3979TIP3    H233429   4.524   4.934  17.108  0.9475  0.1989  0.1565
 3980TIP3   OH233430   0.339   3.840  16.548  0.0375  0.0342 -0.1038
 3980TIP3    H133431   0.277   3.868  16.615 -1.1289  0.3981 -1.2931
 3980TIP3    H233432   0.388   3.769  16.590 -0.5072  0.3866  1.1985
 3981TIP3   OH233433   4.798   5.083  14.601  0.1107  0.3052 -0.2452
 3981TIP3    H133434   4.840   5.017  14.547 -0.3826  0.4406 -0.7980
 3981TIP3    H233435   4.713   5.098  14.560 -0.1023  0.7078  0.3269
 3982TIP3   OH233436   3.995   3.580  13.516  0.1112  0.5320  0.3767
 3982TIP3    H133437   3.963   3.565  13.605 -0.5852  1.3022  0.2577
 3982TIP3    H233438   3.970   3.500  13.468 -0.0322  0.3672  0.7234
 3983TIP3   OH233439   2.661   0.509  16.855 -0.0590 -0.0763 -0.0496
 3983TIP3    H133440   2.573   0.547  16.856 -0.2069 -0.3794 -0.6388
 3983TIP3    H233441   2.714   0.575  16.810 -0.1061 -0.1375 -0.1947
 3984TIP3   OH233442   2.870   0.164   0.087 -0.0297  0.9817 -0.2769
 3984TIP3    H133443   2.813   0.209   0.149  0.5652  1.0719  0.2179
 3984TIP3    H233444   2.811   0.111   0.033 -0.4042 -0.8864  1.8207
 3985TIP3   OH233445   4.757   2.199   6.328  0.2648 -0.1662 -0.1489
 3985TIP3    H133446   4.782   2.128   6.387 -0.7621  0.6019  1.2942
 3985TIP3    H233447   4.678   2.167   6.284  0.1995 -0.1848 -0.0191
 3986TIP3   OH233448   6.674   1.204  15.841  0.1390 -0.0976 -0.5290
 3986TIP3    H133449   6.677   1.149  15.763 -2.1471 -0.4163 -0.4729
 3986TIP3    H233450   6.658   1.144  15.913 -0.0593  0.4139 -0.1362
 3987TIP3   OH233451   0.808   4.673   5.137 -0.4450  0.3542  0.2240
 3987TIP3    H133452   0.880   4.726   5.102 -0.3205  0.8223  1.1667
 3987TIP3    H233453   0.791   4.608   5.069  1.5589 -0.4124  0.4090
 3988TIP3   OH233454   4.375   0.774  15.498 -0.0648  0.0897  0.0332
 3988TIP3    H133455   4.341   0.757  15.586 -0.7562 -0.8611 -0.4056
 3988TIP3    H233456   4.449   0.833  15.513 -0.2179  0.0112  1.2457
 3989TIP3   OH233457   4.420   3.760   0.919 -0.3650 -0.3526 -0.4118
 3989TIP3    H133458   4.376   3.837   0.883  0.3113 -0.3456 -1.2611
 3989TIP3    H233459   4.447   3.710   0.842 -0.0614 -1.0185  0.1219
 3990TIP3   OH233460   1.263   5.201   5.334  0.1256  0.7061 -0.0097
 3990TIP3    H133461   1.177   5.219   5.295  0.1012 -1.1909 -0.9730
 3990TIP3    H233462   1.246   5.133   5.399  1.1168 -1.3566 -1.7675
 3991TIP3   OH233463   0.415   6.229   3.982 -0.1577 -0.2471 -0.0606
 3991TIP3    H133464   0.343   6.263   4.035  0.8719  0.5622  0.8652
 3991TIP3    H233465   0.422   6.137   4.008 -0.3760 -0.1362  0.4008
 3992TIP3   OH233466   4.546   0.158  16.705 -0.6851 -0.1128 -0.1636
 3992TIP3    H133467   4.511   0.084  16.754  0.0938  0.0092  0.6071
 3992TIP3    H233468   4.519   0.235  16.755 -0.5012  0.0555 -0.3179
 3993TIP3   OH233469   4.726   6.544  12.212  0.7992  0.0357 -0.7523
 3993TIP3    H133470   4.799   6.535  12.150  0.1131  1.2403 -1.7622
 3993TIP3    H233471   4.735   6.632  12.247 -0.3198  0.2886 -1.0841
 3994TIP3   OH233472   2.847   5.034  13.333 -0.1492 -0.0590  0.7200
 3994TIP3    H133473   2.921   5.011  13.276 -0.2892 -0.4830  0.7093
 3994TIP3    H233474   2.804   4.951  13.352 -1.0665  0.2665  0.1226
 3995TIP3   OH233475   4.223   2.871  13.534  0.5516 -0.0339 -0.2685
 3995TIP3    H133476   4.212   2.784  13.573  0.9646  0.2556  0.5123
 3995TIP3    H233477   4.204   2.858  13.441 -2.6137 -0.3107  0.3074
 3996TIP3   OH233478   1.649   1.288   4.363  0.0350  0.2661 -0.5612
 3996TIP3    H133479   1.678   1.204   4.397  0.0709  0.9895  1.3031
 3996TIP3    H233480   1.728   1.328   4.326  0.8477  0.9273  1.7342
 3997TIP3   OH233481   1.550   0.009   0.327 -0.0673 -0.3946 -0.0709
 3997TIP3    H133482   1.483  -0.045   0.369  1.8981 -2.5053  0.5818
 3997TIP3    H233483   1.604  -0.054   0.279  0.5615  1.4078 -1.8585
 3998TIP3   OH233484   4.608   1.801   2.723  0.2557 -0.3973  0.6739
 3998TIP3    H133485   4.684   1.757   2.762  0.2221 -0.5676  0.5483
 3998TIP3    H233486   4.535   1.777   2.779  0.1260 -1.0140  0.2531
 3999TIP3   OH233487   2.329   2.142   2.526 -0.2655 -0.3521  0.3327
 3999TIP3    H133488   2.423   2.152   2.543  0.2709 -2.1464 -1.2111
 3999TIP3    H233489   2.314   2.193   2.447 -0.5390 -0.2760  0.4333
 4000TIP3   OH233490   0.769   4.981   1.137  0.1792 -0.4386 -0.2338
 4000TIP3    H133491   0.789   4.974   1.043  0.6068  2.6412 -0.4722
 4000TIP3    H233492   0.854   4.993   1.179 -0.1769  0.7249  0.2041
 4001TIP3   OH233493   4.602   4.093   2.823 -0.0597  0.2787  0.1082
 4001TIP3    H133494   4.615   4.081   2.917  1.5506  0.5633 -0.0428
 4001TIP3    H233495   4.571   4.183   2.815 -0.8429  0.0420  0.4041
 4002TIP3   OH233496   1.110   5.694  15.848  0.6147 -0.3033 -0.1435
 4002TIP3    H133497   1.097   5.784  15.877  1.1888 -0.3647  0.3198
 4002TIP3    H233498   1.144   5.649  15.925  0.3201 -0.9234 -0.3686
 4003TIP3   OH233499   1.658   3.934  14.186  0.1381  0.4305  0.0811
 4003TIP3    H133500   1.747   3.954  14.155  1.2598 -1.9350  1.4923
 4003TIP3    H233501   1.671   3.898  14.273 -2.3974  1.3853  0.9339
 4004TIP3   OH233502   0.058   6.614  13.942 -0.1201 -0.4942  0.4512
 4004TIP3    H133503   0.046   6.652  14.030 -2.1896  0.5546 -0.2164
 4004TIP3    H233504  -0.026   6.573  13.922  0.2862 -0.6383 -1.0788
 4005TIP3   OH233505   4.214   0.706   4.843 -0.2917 -0.4192  0.0161
 4005TIP3    H133506   4.298   0.681   4.880 -0.2483  0.9410  0.8903
 4005TIP3    H233507   4.234   0.780   4.786 -0.6716 -1.1546 -1.1038
 4006TIP3   OH233508   0.083   0.533  13.264  0.1777  0.0026 -0.6041
 4006TIP3    H133509  -0.001   0.512  13.221 -0.0599  0.7355 -0.5094
 4006TIP3    H233510   0.144   0.546  13.191  0.1815 -0.3988 -0.6766
 4007TIP3   OH233511   3.683   5.455   0.751  0.0092  0.1236 -0.1264
 4007TIP3    H133512   3.620   5.515   0.710 -0.3418  0.0557  0.3085
 4007TIP3    H233513   3.633   5.374   0.765 -0.0118  0.3062  0.8779
 4008TIP3   OH233514   4.361   0.956  15.761  0.7105 -0.7126 -0.1512
 4008TIP3    H133515   4.406   0.935  15.843  1.8096 -3.8921 -1.4174
 4008TIP3    H233516   4.424   0.933  15.693 -0.5177  0.9517 -1.9609
 4009TIP3   OH233517   6.472   0.108   4.514 -0.5271  0.0750 -0.2166
 4009TIP3    H133518   6.470   0.194   4.555 -1.1306  1.4031 -2.7756
 4009TIP3    H233519   6.563   0.097   4.486 -0.7616  0.6895 -1.3137
 4010TIP3   OH233520   4.782   2.857   2.840  0.2575 -0.0965 -0.0796
 4010TIP3    H133521   4.842   2.810   2.783  0.1174  0.2695 -0.5328
 4010TIP3    H233522   4.741   2.922   2.783  0.5524  0.6745  0.5761
 4011TIP3   OH233523   1.491   3.969  13.395 -0.2482  0.1983  0.4097
 4011TIP3    H133524   1.447   3.956  13.311 -0.6938 -1.2913  0.8492
 4011TIP3    H233525   1.425   4.011  13.450 -0.4599 -0.2287  0.4787
 4012TIP3   OH233526   0.590   2.402  16.089  0.4800 -0.0641  0.5956
 4012TIP3    H133527   0.579   2.385  16.182  3.8860  1.4949  1.4312
 4012TIP3    H233528   0.649   2.332  16.058  0.5647  0.2667 -0.0217
 4013TIP3   OH233529   0.094   4.381   1.049  0.4127 -0.6077  0.0747
 4013TIP3    H133530   0.178   4.335   1.043  1.2834  1.0108 -1.1175
 4013TIP3    H233531   0.057   4.374   0.961 -0.8943 -1.5872  0.6725
 4014TIP3   OH233532   1.492   0.220   0.129  0.1981  0.0629  0.3359
 4014TIP3    H133533   1.442   0.169   0.065  0.0101 -0.0431  0.5646
 4014TIP3    H233534   1.504   0.161   0.204 -1.3251  0.8156  1.2269
 4015TIP3   OH233535   2.920   0.334   5.292 -0.1433 -0.7184  0.2177
 4015TIP3    H133536   2.932   0.247   5.254 -1.7468 -1.1793  0.7274
 4015TIP3    H233537   2.832   0.333   5.329 -0.4990  1.3718 -0.4349
 4016TIP3   OH233538   4.692   5.346   1.021  0.0889  0.2134  0.0562
 4016TIP3    H133539   4.652   5.305   0.944 -0.7694 -0.1622  0.6747
 4016TIP3    H233540   4.619   5.390   1.065  0.9503  2.2186 -0.4432
 4017TIP3   OH233541   0.618   4.474  12.811  0.0402 -0.1945  0.0863
 4017TIP3    H133542   0.525   4.466  12.833 -0.4682  1.9146 -1.0635
 4017TIP3    H233543   0.654   4.530  12.879  0.6904 -1.5502  0.9196
 4018TIP3   OH233544   3.667   6.456   5.252 -0.3175 -0.3559  0.1644
 4018TIP3    H133545   3.641   6.375   5.294 -0.4941 -0.1761  0.4066
 4018TIP3    H233546   3.754   6.475   5.287 -0.8977  0.3557  1.2923
 4019TIP3   OH233547   3.906   1.220   4.136  0.3440  0.5251  0.1193
 4019TIP3    H133548   3.896   1.127   4.116  2.0466  0.4155 -0.3654
 4019TIP3    H233549   3.928   1.222   4.229 -0.7130  0.5422  0.3850
 4020TIP3   OH233550   2.731   5.955  15.697 -0.0980 -0.0237  0.4118
 4020TIP3    H133551   2.663   5.894  15.725 -0.3268 -0.3959 -0.9062
 4020TIP3    H233552   2.789   5.903  15.642 -1.3765  1.3028 -2.4002
 4021TIP3   OH233553   5.593   6.732  14.844  0.6214  0.2828 -0.4429
 4021TIP3    H133554   5.505   6.699  14.828  1.1492 -0.6635 -1.5398
 4021TIP3    H233555   5.620   6.691  14.925  0.1526  0.3875 -0.2277
 4022TIP3   OH233556   1.528   0.520   2.335  0.1017  0.5799  0.0106
 4022TIP3    H133557   1.453   0.518   2.396  0.8736  0.6910  0.9844
 4022TIP3    H233558   1.532   0.611   2.305  0.9416  1.0357  1.3905
 4023TIP3   OH233559   1.573   6.023  16.890  0.2348 -0.5936  0.1875
 4023TIP3    H133560   1.483   6.028  16.924 -0.3370 -4.3125 -0.2885
 4023TIP3    H233561   1.565   6.050  16.798 -0.7666 -2.1178 -0.2263
 4024TIP3   OH233562   0.370   6.529  12.190 -0.0056 -0.0654  0.2224
 4024TIP3    H133563   0.277   6.533  12.169 -0.6092 -0.3256  2.4839
 4024TIP3    H233564   0.414   6.506  12.108 -1.6802  2.1575 -1.3855
 4025TIP3   OH233565   5.362   1.154   5.168  0.2619  0.0003  0.3109
 4025TIP3    H133566   5.392   1.157   5.259  2.4884 -0.5080 -0.3439
 4025TIP3    H233567   5.268   1.138   5.174  0.3367  0.1569  2.5161
 4026TIP3   OH233568   2.756   5.560   5.696  0.2602 -0.6949 -0.4181
 4026TIP3    H133569   2.731   5.469   5.709  0.8911 -0.9033 -0.6655
 4026TIP3    H233570   2.846   5.566   5.728 -0.0069 -0.0026  0.2367
 4027TIP3   OH233571   1.915   1.671  14.657  0.6746 -0.2867 -0.0010
 4027TIP3    H133572   1.830   1.652  14.618  1.6594 -0.1306 -2.3818
 4027TIP3    H233573   1.909   1.637  14.746 -1.0639 -2.4693 -0.8689
 4028TIP3   OH233574   6.260   3.167  13.137 -0.1160  0.3179 -0.1889
 4028TIP3    H133575   6.246   3.119  13.219  0.1175 -0.9883 -0.8750
 4028TIP3    H233576   6.261   3.259  13.162 -2.9879  0.1821  0.8905
 4029TIP3   OH233577   2.334   3.663  11.930 -0.1137 -0.5010  0.4428
 4029TIP3    H133578   2.263   3.675  11.993 -1.1254  1.4082 -0.9642
 4029TIP3    H233579   2.412   3.698  11.974 -0.1767 -1.8406  1.6746
 4030TIP3   OH233580   3.429   4.967  14.813  0.2991  0.0156 -0.7547
 4030TIP3    H133581   3.507   5.020  14.793  0.0163  0.8702  0.2933
 4030TIP3    H233582   3.448   4.881  14.776  0.4048  1.0631 -3.3011
 4031TIP3   OH233583   2.980   1.283   2.709 -0.7034 -0.6446  0.3145
 4031TIP3    H133584   2.962   1.377   2.709 -2.9711 -1.0099  1.2735
 4031TIP3    H233585   3.038   1.270   2.783 -0.9125 -0.0623  0.5894
 4032TIP3   OH233586   3.224   2.878   0.783  0.0619 -0.6884 -0.9141
 4032TIP3    H133587   3.260   2.908   0.700  2.6014 -0.8204  0.0232
 4032TIP3    H233588   3.204   2.786   0.770  0.0655 -0.6079 -1.4896
 4033TIP3   OH233589   5.358   0.089  14.944  0.3326  0.4393  0.2197
 4033TIP3    H133590   5.356   0.039  14.862 -1.4042  2.1119 -0.8421
 4033TIP3    H233591   5.294   0.047  15.000 -0.3216  0.7723 -0.2596
 4034TIP3   OH233592   5.534   6.326   0.210 -0.4844 -0.5364 -0.0991
 4034TIP3    H133593   5.578   6.255   0.256 -1.0301 -1.0854 -0.4243
 4034TIP3    H233594   5.487   6.373   0.279 -0.0891 -0.4569  0.1206
 4035TIP3   OH233595   1.701   1.617  13.575 -0.1502  0.5313  0.3283
 4035TIP3    H133596   1.673   1.705  13.601 -0.3749  0.6313 -0.2515
 4035TIP3    H233597   1.622   1.563  13.586  0.2403  0.1944  1.6290
 4036TIP3   OH233598   5.221   0.941   0.169  0.2244  0.0236 -0.2267
 4036TIP3    H133599   5.205   0.924   0.076  0.3774  0.6845 -0.3748
 4036TIP3    H233600   5.134   0.949   0.207  0.1553  1.3110 -0.6081
 4037TIP3   OH233601   4.438   5.618   3.918  0.3910  0.2310 -0.3195
 4037TIP3    H133602   4.452   5.648   3.829  2.5876 -0.6074 -0.3103
 4037TIP3    H233603   4.377   5.544   3.910  1.1007 -0.2761 -1.2274
 4038TIP3   OH233604   1.669   4.534   1.940 -0.1178  0.1823 -0.1503
 4038TIP3    H133605   1.726   4.482   1.997 -2.0266 -2.1097 -0.1469
 4038TIP3    H233606   1.710   4.530   1.854  0.3871 -0.3755  0.1103
 4039TIP3   OH233607   6.643   4.849   3.710  0.0826  0.1844  0.1912
 4039TIP3    H133608   6.696   4.878   3.636  0.5691  0.0104  0.4660
 4039TIP3    H233609   6.706   4.813   3.773 -0.5276 -1.9598 -0.3399
 4040TIP3   OH233610   3.991   5.594   6.135  0.1078  0.2064  0.1617
 4040TIP3    H133611   3.980   5.689   6.131 -0.7590  0.1799  1.3369
 4040TIP3    H233612   3.962   5.571   6.223 -0.2051 -1.2180 -0.2981
 4041TIP3   OH233613   4.193   3.536   4.401 -0.5810  0.0322  0.5872
 4041TIP3    H133614   4.211   3.616   4.451 -1.1177 -0.5041  1.6643
 4041TIP3    H233615   4.102   3.516   4.420 -1.1283  0.3415 -1.4149
 4042TIP3   OH233616   3.186   5.653   4.416  0.5234  0.1425  0.4152
 4042TIP3    H133617   3.242   5.685   4.345 -0.6048 -2.6180 -1.9748
 4042TIP3    H233618   3.104   5.701   4.405  0.3052 -0.3670 -0.3327
 4043TIP3   OH233619   4.768   4.633   0.225  0.3458  0.2448  0.8922
 4043TIP3    H133620   4.818   4.710   0.199  0.4439 -0.1273 -0.0877
 4043TIP3    H233621   4.821   4.559   0.195 -0.2744 -0.1773  0.8110
 4044TIP3   OH233622   5.725   1.756  14.747  1.0054  0.3345  0.2094
 4044TIP3    H133623   5.816   1.779  14.731  1.1134 -0.1070  0.1887
 4044TIP3    H233624   5.698   1.812  14.819  1.1248  0.8669 -0.1545
 4045TIP3   OH233625   0.884   4.301  13.916 -0.1265  0.2799  0.4213
 4045TIP3    H133626   0.892   4.241  13.991 -0.2810  0.6845  0.7648
 4045TIP3    H233627   0.878   4.243  13.840  2.0635 -0.1349  0.4894
 4046TIP3   OH233628   2.060   3.450  14.300  0.0390  0.9838 -0.1427
 4046TIP3    H133629   2.068   3.356  14.285 -1.5513  1.0737 -1.8162
 4046TIP3    H233630   2.151   3.481  14.302  0.5493 -0.3525 -1.1397
 4047TIP3   OH233631   0.095   4.357  14.175  0.4192 -0.5480  0.2481
 4047TIP3    H133632   0.102   4.401  14.091  0.7534 -0.5423  0.2795
 4047TIP3    H233633   0.185   4.338  14.200  0.3810  0.1771  0.9842
 4048TIP3   OH233634   5.666   1.970  14.038 -0.3465  0.7908  0.0355
 4048TIP3    H133635   5.641   1.993  13.948 -0.7635  1.4904  0.3208
 4048TIP3    H233636   5.602   2.015  14.093  0.2115  0.7806  0.7080
 4049TIP3   OH233637   5.271   5.691   5.772 -0.2948  0.2132  0.0457
 4049TIP3    H133638   5.331   5.747   5.822  0.3591 -0.9764  0.6139
 4049TIP3    H233639   5.263   5.612   5.824  1.4711 -1.6636 -2.3125
 4050TIP3   OH233640   2.891   2.016  13.681 -0.0536 -0.4726  0.6112
 4050TIP3    H133641   2.870   2.030  13.774  0.5270  0.8155  0.5607
 4050TIP3    H233642   2.823   2.064  13.634  0.8185  0.6087  0.4103
 4051TIP3   OH233643   6.812   5.944  17.196  0.0830 -0.0550  0.1312
 4051TIP3    H133644   6.786   5.890  17.121  1.1986  2.1935 -2.0168
 4051TIP3    H233645   6.738   6.002  17.211  0.3555  0.3400 -0.0556
 4052TIP3   OH233646   0.543   5.380  12.466 -0.0066 -0.0402 -0.8723
 4052TIP3    H133647   0.512   5.319  12.533 -0.6712  1.2049  0.0002
 4052TIP3    H233648   0.630   5.408  12.497 -0.9760  1.7888  0.4223
 4053TIP3   OH233649   4.896   3.956  16.337  0.2428 -0.0527  0.5546
 4053TIP3    H133650   4.940   3.991  16.259 -0.2322 -1.2354 -0.2684
 4053TIP3    H233651   4.962   3.961  16.406  0.9473  0.2454 -0.1217
 4054TIP3   OH233652   0.104   5.368  13.273  0.1488  0.0232  0.9293
 4054TIP3    H133653   0.092   5.457  13.240  0.8413 -0.0326  0.4976
 4054TIP3    H233654   0.105   5.313  13.194 -2.8243 -0.7172  1.3007
 4055TIP3   OH233655   6.136   4.049   1.850  0.3408 -0.4143  0.4146
 4055TIP3    H133656   6.213   4.084   1.894  0.0285  0.0573  0.5954
 4055TIP3    H233657   6.157   3.957   1.834 -0.0454 -0.9587  2.7489
 4056TIP3   OH233658   1.812   4.458  15.285 -0.9321  0.1420 -0.5261
 4056TIP3    H133659   1.904   4.456  15.258 -0.7307 -0.3684  0.1786
 4056TIP3    H233660   1.799   4.376  15.333 -1.3178  0.9355  0.7829
 4057TIP3   OH233661   5.291   3.949   5.098 -0.0978 -0.2754  0.1039
 4057TIP3    H133662   5.218   3.961   5.037 -1.2031  0.2670  1.4789
 4057TIP3    H233663   5.260   3.986   5.181  1.5466 -0.5186  0.8752
 4058TIP3   OH233664   2.406   4.547   4.131  0.0690  0.1382  0.3706
 4058TIP3    H133665   2.328   4.526   4.080  1.2624 -2.7083 -0.4698
 4058TIP3    H233666   2.374   4.554   4.221 -1.3998  0.8943 -0.1712
 4059TIP3   OH233667   1.360   2.827  11.239 -0.0090  0.0942  0.2743
 4059TIP3    H133668   1.393   2.738  11.238 -1.3550 -0.4296 -0.6199
 4059TIP3    H233669   1.265   2.818  11.231 -0.1247  1.6028 -0.5725
 4060TIP3   OH233670   5.890   0.637  12.203 -0.3592 -0.2320  0.1501
 4060TIP3    H133671   5.944   0.696  12.256  1.3756  0.1987 -1.9489
 4060TIP3    H233672   5.953   0.575  12.166 -1.2431  0.3519 -2.5070
 4061TIP3   OH233673   3.931   3.459  15.254  0.4472  0.1859  0.2856
 4061TIP3    H133674   3.929   3.371  15.215  2.0414 -0.1847  0.9542
 4061TIP3    H233675   3.850   3.466  15.303 -0.0143 -0.6409 -0.3320
 4062TIP3   OH233676   2.460   0.046   4.094  0.0147  0.1429  0.2104
 4062TIP3    H133677   2.518  -0.026   4.117  0.8149  0.1461 -1.6022
 4062TIP3    H233678   2.400   0.009   4.029 -1.0930  0.5251  0.9818
 4063TIP3   OH233679   1.583   1.741  15.717  0.0039 -0.1696  0.0766
 4063TIP3    H133680   1.578   1.685  15.794 -0.4125 -1.2421 -0.7079
 4063TIP3    H233681   1.676   1.751  15.700  0.0850 -1.8019 -0.5943
 4064TIP3   OH233682   2.159   1.670  13.700 -0.3158 -0.2752 -0.0265
 4064TIP3    H133683   2.216   1.745  13.720  0.2891 -0.3390 -1.3935
 4064TIP3    H233684   2.091   1.673  13.767  0.5673  0.5773  0.8733
 4065TIP3   OH233685   1.466   2.565   3.477  0.0790  0.2022  0.0735
 4065TIP3    H133686   1.494   2.536   3.564  1.4922  0.5176 -0.2490
 4065TIP3    H233687   1.481   2.489   3.421  0.4094  0.4166 -0.1292
 4066TIP3   OH233688   4.555   2.748   2.684  0.4675 -0.3620  0.7085
 4066TIP3    H133689   4.461   2.758   2.699  0.4219 -1.0584  0.8847
 4066TIP3    H233690   4.583   2.680   2.746  1.1370  0.0192  0.8446
 4067TIP3   OH233691   5.525   2.439   2.461 -0.4468  0.3794  0.1702
 4067TIP3    H133692   5.439   2.460   2.424 -0.0417  1.5098 -0.1822
 4067TIP3    H233693   5.586   2.450   2.388  0.0839  0.3600  0.6043
 4068TIP3   OH233694   0.025   3.325   1.823  0.1915  0.2698 -0.2680
 4068TIP3    H133695   0.066   3.330   1.909  0.0291  1.7735 -0.2548
 4068TIP3    H233696  -0.069   3.315   1.841 -0.0653  2.4387 -0.2165
 4069TIP3   OH233697   5.813   1.278  11.057  0.0882  0.7122 -0.4584
 4069TIP3    H133698   5.823   1.205  11.117  1.6491 -0.6220 -2.2165
 4069TIP3    H233699   5.733   1.257  11.008 -1.5072  2.0836  1.3940
 4070TIP3   OH233700   2.786   2.017   3.695  0.1189  0.0864 -0.0199
 4070TIP3    H133701   2.802   2.107   3.723  0.4463 -0.0195  0.1446
 4070TIP3    H233702   2.711   1.989   3.746 -0.9397  0.7561 -1.1561
 4071TIP3   OH233703   0.218   1.898  13.394 -0.1797 -0.5903 -0.0074
 4071TIP3    H133704   0.192   1.929  13.307  1.1107 -0.5971 -0.4197
 4071TIP3    H233705   0.275   1.824  13.376  2.2516  1.0086  0.7254
 4072TIP3   OH233706   3.575   1.779   2.038  0.7219  0.4350  0.2203
 4072TIP3    H133707   3.653   1.743   1.996  1.3801  2.1844 -0.1569
 4072TIP3    H233708   3.550   1.852   1.982 -0.5019  0.6212  0.9799
 4073TIP3   OH233709   0.707   6.785  16.936  0.0411  0.5343  0.2861
 4073TIP3    H133710   0.691   6.878  16.949 -1.4197  0.5696 -1.3413
 4073TIP3    H233711   0.681   6.744  17.018  1.9991  1.6229  1.5402
 4074TIP3   OH233712   0.485   1.926   4.091  0.1721 -0.7360  0.0564
 4074TIP3    H133713   0.566   1.974   4.108 -0.0265 -0.7443  1.0594
 4074TIP3    H233714   0.488   1.851   4.149  0.2886 -1.7561 -1.2082
 4075TIP3   OH233715   4.024   2.558  10.662  0.4255 -0.3311  0.3529
 4075TIP3    H133716   4.018   2.504  10.583 -1.6386  1.0025 -0.5033
 4075TIP3    H233717   4.067   2.639  10.633 -0.5650  0.2661  0.5018
 4076TIP3   OH233718   3.360   0.780   1.428  0.7435  0.4642  0.2242
 4076TIP3    H133719   3.354   0.736   1.343  3.1948 -1.5686  0.9876
 4076TIP3    H233720   3.275   0.766   1.469  0.8863 -2.2210 -0.2335
 4077TIP3   OH233721   1.016   0.287   3.659  0.6959  0.4575  0.2321
 4077TIP3    H133722   1.099   0.274   3.614  1.7519  2.4456  1.5167
 4077TIP3    H233723   1.027   0.243   3.743  0.0081 -0.2196 -0.0155
 4078TIP3   OH233724   3.904   6.369  13.656  0.0503  0.5478 -0.1670
 4078TIP3    H133725   3.810   6.388  13.650  0.2034  1.1820 -0.7405
 4078TIP3    H233726   3.938   6.437  13.714  0.2893  0.8355 -0.6415
 4079TIP3   OH233727   6.058   0.723  16.530  0.6106 -0.6261 -0.2308
 4079TIP3    H133728   6.081   0.637  16.494 -0.5906 -1.2120  0.3089
 4079TIP3    H233729   6.138   0.756  16.569  1.1789 -1.3382 -0.7712
 4080TIP3   OH233730   2.512   1.363  12.898 -0.2072  0.8088 -0.2922
 4080TIP3    H133731   2.587   1.393  12.950  0.2462 -0.8329  0.0525
 4080TIP3    H233732   2.490   1.438  12.843  0.6608  1.8664  0.7389
 4081TIP3   OH233733   6.552   6.365   3.619 -0.1715 -0.2960  0.2516
 4081TIP3    H133734   6.510   6.435   3.569 -1.0735 -2.5219 -2.3800
 4081TIP3    H233735   6.508   6.365   3.703 -3.6528 -0.6940 -1.3857
 4082TIP3   OH233736   4.462   5.497  14.652  0.0920  0.5592  0.0047
 4082TIP3    H133737   4.433   5.494  14.743  1.4332  0.1317  0.4560
 4082TIP3    H233738   4.402   5.439  14.606 -0.7167  0.9165  0.5756
 4083TIP3   OH233739   5.501   0.896  14.469 -0.2209  0.1058 -0.1057
 4083TIP3    H133740   5.438   0.967  14.468 -0.1399  0.2224  1.2580
 4083TIP3    H233741   5.483   0.846  14.389 -1.1503  0.8862 -0.3936
 4084TIP3   OH233742   4.570   0.408  14.467 -0.3393 -0.2458  0.3311
 4084TIP3    H133743   4.635   0.339  14.472 -0.5208 -0.4708 -0.3279
 4084TIP3    H233744   4.619   0.489  14.479 -0.0877 -0.4697  0.8324
 4085TIP3   OH233745   3.291   0.251   2.833 -0.1474 -0.0341  0.0147
 4085TIP3    H133746   3.378   0.261   2.795 -0.2501 -1.7109 -0.7481
 4085TIP3    H233747   3.306   0.235   2.926  0.1457  3.2156  0.6541
 4086TIP3   OH233748   3.983   3.355   5.285 -0.0534  0.3382 -0.1255
 4086TIP3    H133749   4.026   3.359   5.200  1.5256 -1.3512  0.5284
 4086TIP3    H233750   3.893   3.327   5.265  0.0351  0.8421 -1.2897
 4087TIP3   OH233751   0.899   0.856  16.289 -0.0310 -0.2699  0.4765
 4087TIP3    H133752   0.838   0.883  16.220  1.6738 -0.1609 -1.0690
 4087TIP3    H233753   0.915   0.763  16.271 -3.0683 -1.6123  3.5791
 4088TIP3   OH233754   2.808   3.748   3.302  0.1490 -0.3221 -0.0751
 4088TIP3    H133755   2.730   3.765   3.249 -1.7261 -2.7414  1.6774
 4088TIP3    H233756   2.836   3.835   3.332 -3.3049  0.5674  1.0758
 4089TIP3   OH233757   6.451   6.094  16.531  0.5121  0.0134  0.0767
 4089TIP3    H133758   6.532   6.134  16.500  0.3254  0.4908  0.2042
 4089TIP3    H233759   6.473   6.001  16.541  0.7984 -0.0152 -0.7234
 4090TIP3   OH233760   1.514   4.387  16.914 -0.5647  0.1459  0.0107
 4090TIP3    H133761   1.518   4.300  16.873  1.3634  0.9429 -1.6593
 4090TIP3    H233762   1.469   4.442  16.850 -1.4986  0.4794  0.9267
 4091TIP3   OH233763   5.540   2.754  11.122  0.2839  0.0775  0.6247
 4091TIP3    H133764   5.506   2.801  11.046 -0.0599 -0.9604  0.1187
 4091TIP3    H233765   5.562   2.823  11.185  1.7389  1.0589 -0.8522
 4092TIP3   OH233766   2.126   5.931  15.373 -0.2153 -0.1918  0.1839
 4092TIP3    H133767   2.096   5.982  15.298  0.8224 -0.7327 -0.6221
 4092TIP3    H233768   2.171   5.995  15.429 -0.5660  0.1235  0.1049
 4093TIP3   OH233769   4.600   6.265   2.506 -0.0056  0.0683 -0.4316
 4093TIP3    H133770   4.674   6.324   2.493  1.1483 -1.0209  0.9127
 4093TIP3    H233771   4.545   6.309   2.571  0.7898 -0.2502  0.4747
 4094TIP3   OH233772   5.791   1.184  13.239 -0.0022  0.1998  0.1147
 4094TIP3    H133773   5.719   1.232  13.280 -0.9016 -0.9207 -0.0921
 4094TIP3    H233774   5.864   1.246  13.236 -0.8581  1.2466  0.6413
 4095TIP3   OH233775   4.576   1.737  10.513 -0.7739 -0.1854  0.1769
 4095TIP3    H133776   4.592   1.807  10.576  0.6139  0.8090 -1.2082
 4095TIP3    H233777   4.602   1.657  10.558 -0.0210  0.4766  0.9350
 4096TIP3   OH233778   1.988   4.182  16.687  0.1197 -0.0378  0.2956
 4096TIP3    H133779   2.082   4.167  16.698  0.3175  0.8454 -0.0575
 4096TIP3    H233780   1.980   4.277  16.677 -0.8242 -0.0884  0.4232
 4097TIP3   OH233781   0.502   3.415   2.551  0.1221  0.6212  0.9459
 4097TIP3    H133782   0.539   3.393   2.465  0.4945 -3.1929  1.9057
 4097TIP3    H233783   0.561   3.483   2.585  3.2908 -1.5474  0.2866
 4098TIP3   OH233784   5.780   3.562   1.975  0.6850  0.0303  0.0865
 4098TIP3    H133785   5.700   3.518   1.945  0.1813  1.6347 -1.0108
 4098TIP3    H233786   5.818   3.501   2.039 -1.8365 -0.4036  1.2808
 4099TIP3   OH233787   1.775   3.680   2.639  0.7444 -0.0661  0.0457
 4099TIP3    H133788   1.837   3.649   2.573  2.1304 -0.0417  1.2949
 4099TIP3    H233789   1.721   3.603   2.658  0.2413 -0.0431 -1.1640
 4100TIP3   OH233790   6.702   6.111  12.352 -0.4480  0.4068 -0.2088
 4100TIP3    H133791   6.795   6.095  12.334 -0.1433  2.0863 -0.3470
 4100TIP3    H233792   6.659   6.101  12.267 -0.5460 -1.2394  0.0181
 4101TIP3   OH233793   4.743   5.440  14.225  0.6939 -0.3931 -0.3218
 4101TIP3    H133794   4.707   5.501  14.288 -1.2007  0.7352 -2.3972
 4101TIP3    H233795   4.816   5.487  14.185 -0.0999  0.1327 -1.1742
 4102TIP3   OH233796   2.774   0.571   0.238 -0.0848  0.5511  0.6798
 4102TIP3    H133797   2.838   0.516   0.193 -0.5705  0.0577  0.5891
 4102TIP3    H233798   2.822   0.652   0.257  0.7480 -0.0285  1.1401
 4103TIP3   OH233799   6.129   5.867   5.932  0.0189 -0.4856  0.5784
 4103TIP3    H133800   6.220   5.860   5.903  0.2713 -1.8831  1.6293
 4103TIP3    H233801   6.084   5.909   5.858  1.3489 -0.5074 -0.2848
 4104TIP3   OH233802   1.702   3.233  13.469  0.1438  0.0339 -0.1931
 4104TIP3    H133803   1.727   3.228  13.561 -0.9790 -1.2263  0.0739
 4104TIP3    H233804   1.633   3.299  13.466  1.0496  0.9912 -0.3566
 4105TIP3   OH233805   0.984   5.437  17.182 -0.5627 -0.3851  0.4260
 4105TIP3    H133806   0.958   5.512  17.128 -2.8216  0.4303  2.4797
 4105TIP3    H233807   1.077   5.453  17.201  0.5592 -1.0476 -3.5219
 4106TIP3   OH233808   3.657   4.874   5.998  0.5372 -0.0780 -0.4137
 4106TIP3    H133809   3.734   4.863   6.054  0.0849 -5.3583 -0.3892
 4106TIP3    H233810   3.691   4.869   5.909  0.3962 -1.4542 -0.4103
 4107TIP3   OH233811   0.576   2.447   0.462 -0.0081 -0.1190 -0.1080
 4107TIP3    H133812   0.590   2.451   0.557 -0.5132  1.3797 -0.0670
 4107TIP3    H233813   0.636   2.512   0.426  0.5377 -1.0285 -0.8769
 4108TIP3   OH233814   6.042   0.941  14.993  0.3188  0.4234  0.1704
 4108TIP3    H133815   5.960   0.928  14.946 -0.3947  1.5264  1.0585
 4108TIP3    H233816   6.044   0.870  15.057  1.3651 -1.1722 -1.5135
 4109TIP3   OH233817   2.412   0.325   6.376  0.2882  0.1383 -0.1661
 4109TIP3    H133818   2.480   0.373   6.330  0.9307 -1.6557 -1.1729
 4109TIP3    H233819   2.344   0.390   6.394  1.8652  1.7721  0.0982
 4110TIP3   OH233820   4.069   1.440   3.787 -0.3434 -0.3104 -0.0768
 4110TIP3    H133821   3.982   1.440   3.748 -0.3296  0.0910 -0.1092
 4110TIP3    H233822   4.054   1.418   3.879 -0.5958  0.8019  0.1621
 4111TIP3   OH233823   6.725   0.708  15.772 -0.2260 -0.0160 -0.2732
 4111TIP3    H133824   6.795   0.773  15.781  0.1086 -0.5396  1.1148
 4111TIP3    H233825   6.644   0.760  15.776  0.0628  0.5106 -1.1318
 4112TIP3   OH233826   6.633   2.792   0.524  0.0137  0.3643 -0.2490
 4112TIP3    H133827   6.637   2.727   0.595  1.1457 -0.1524 -0.7683
 4112TIP3    H233828   6.716   2.782   0.478 -0.6026  0.8761 -1.5023
 4113TIP3   OH233829   4.937   5.674   1.676 -0.0985 -0.2548 -0.5358
 4113TIP3    H133830   5.023   5.714   1.692 -0.8603  0.9840  0.6147
 4113TIP3    H233831   4.956   5.603   1.614  1.8456 -0.4234  0.1688
 4114TIP3   OH233832   1.789   3.084  10.354 -0.4295  0.4541  0.1613
 4114TIP3    H133833   1.695   3.071  10.337 -0.0591  0.1669 -1.9692
 4114TIP3    H233834   1.800   3.179  10.352 -0.3087  0.4588 -2.3135
 4115TIP3   OH233835   6.113   5.418   4.820 -0.1239 -1.0115 -0.0094
 4115TIP3    H133836   6.050   5.354   4.854  0.4654 -2.5526 -1.6888
 4115TIP3    H233837   6.196   5.394   4.862 -0.0873 -0.7733  0.0527
 4116TIP3   OH233838   4.782   5.974   5.996 -0.0813 -0.5294 -0.2537
 4116TIP3    H133839   4.798   5.993   5.903  0.3773  0.0404 -0.0584
 4116TIP3    H233840   4.700   6.019   6.015 -0.4410 -1.0580 -0.5012
 4117TIP3   OH233841   2.151   0.444  14.751  0.0548 -0.0601  0.3591
 4117TIP3    H133842   2.064   0.419  14.719  0.2338 -0.3986  0.1264
 4117TIP3    H233843   2.141   0.534  14.781  0.0086  0.5179 -1.2592
 4118TIP3   OH233844   2.734   1.360  14.566 -0.2688 -0.3975 -0.3295
 4118TIP3    H133845   2.728   1.345  14.471 -2.6195 -0.5040 -0.2266
 4118TIP3    H233846   2.776   1.446  14.574  0.7228 -0.7521 -1.4116
 4119TIP3   OH233847   2.737   2.019  13.906  0.4663  0.2375 -0.8605
 4119TIP3    H133848   2.702   2.108  13.909  1.8959  0.8373 -1.2297
 4119TIP3    H233849   2.741   1.992  13.997 -0.3430  0.3846 -0.7685
 4120TIP3   OH233850   3.653   6.614  10.879 -0.3218 -0.4028 -0.0928
 4120TIP3    H133851   3.613   6.700  10.865 -1.4313 -0.9538 -0.4348
 4120TIP3    H233852   3.721   6.607  10.812  0.7911  0.7899  0.8607
 4121TIP3   OH233853   6.018   3.991   2.479 -0.1150 -0.6706 -0.2598
 4121TIP3    H133854   5.933   3.977   2.519  0.6609 -2.5285  0.8258
 4121TIP3    H233855   6.006   3.964   2.388 -1.0368  0.5039 -0.5172
 4122TIP3   OH233856   0.280   4.769  12.331  0.3352 -0.0913  0.0676
 4122TIP3    H133857   0.222   4.814  12.270 -1.4418 -1.1527  0.8914
 4122TIP3    H233858   0.244   4.790  12.418  1.8509  0.1047  0.6699
 4123TIP3   OH233859   2.096   4.616   1.165 -0.6751 -0.3330 -0.5777
 4123TIP3    H133860   2.057   4.528   1.171 -0.5940 -0.3595 -0.4360
 4123TIP3    H233861   2.116   4.626   1.072  0.1238 -0.8207 -0.4736
 4124TIP3   OH233862   2.039   0.480   2.454  0.2700 -0.0025  0.0839
 4124TIP3    H133863   1.990   0.416   2.404  1.5452  0.0829 -1.3400
 4124TIP3    H233864   2.010   0.467   2.544 -0.1047 -2.0184 -0.2754
 4125TIP3   OH233865   1.063   6.153  15.651  0.4233 -0.3034  0.2682
 4125TIP3    H133866   1.087   6.206  15.727 -0.2044 -1.0114  0.9865
 4125TIP3    H233867   1.143   6.144  15.600  0.6130  1.0426  0.3068
 4126TIP3   OH233868   2.842   1.985  13.116  0.1300 -0.1336 -0.1204
 4126TIP3    H133869   2.914   1.922  13.116 -1.4889 -2.0527  0.5728
 4126TIP3    H233870   2.856   2.037  13.196 -0.3058 -1.8412  1.1393
 4127TIP3   OH233871   2.641   3.560  13.459  0.2549 -0.2166  0.1018
 4127TIP3    H133872   2.599   3.474  13.458  1.1061 -0.6600  0.4822
 4127TIP3    H233873   2.711   3.553  13.394 -0.1163  0.4308 -0.3716
 4128TIP3   OH233874   4.642   5.209  14.167 -0.0467 -0.1802 -0.7076
 4128TIP3    H133875   4.657   5.298  14.199 -0.4805 -1.0273  2.1137
 4128TIP3    H233876   4.721   5.189  14.116  1.8512  0.5778  1.6959
 4129TIP3   OH233877   6.255   0.937  14.593 -0.5715 -0.3448 -0.2904
 4129TIP3    H133878   6.284   0.961  14.682 -0.3269  1.1826 -0.7519
 4129TIP3    H233879   6.170   0.979  14.584 -0.3037  0.0473 -1.0065
 4130TIP3   OH233880   5.748   2.487   2.078  0.2314  0.0516  0.1253
 4130TIP3    H133881   5.680   2.553   2.092 -0.8005 -0.5422 -1.6943
 4130TIP3    H233882   5.724   2.415   2.137 -1.3128 -0.5269 -1.1172
 4131TIP3   OH233883   1.307   4.514  13.863 -0.4224  0.5437 -0.2739
 4131TIP3    H133884   1.321   4.492  13.771  1.2276  0.4489 -0.0259
 4131TIP3    H233885   1.370   4.461  13.911 -1.0699  0.7916  0.9019
 4132TIP3   OH233886   1.621   1.583   2.147  0.8028  0.4170  0.2864
 4132TIP3    H133887   1.588   1.505   2.103 -1.3174  1.0261  0.6672
 4132TIP3    H233888   1.668   1.631   2.080  0.1041 -0.0594 -0.5612
 4133TIP3   OH233889   5.868   0.693   1.380 -0.2214 -0.0177  0.2385
 4133TIP3    H133890   5.915   0.640   1.317 -0.9067  1.6976 -1.8216
 4133TIP3    H233891   5.880   0.647   1.464  0.5812 -2.4469 -1.1174
 4134TIP3   OH233892   5.902   0.278   0.063  0.6245 -0.3048 -0.1110
 4134TIP3    H133893   5.845   0.256  -0.010  0.8509  0.3108 -0.4780
 4134TIP3    H233894   5.977   0.322   0.023  0.1967  1.1210  0.5820
 4135TIP3   OH233895   0.044   5.598   6.057 -0.5297  0.8018  0.2738
 4135TIP3    H133896   0.040   5.670   6.119 -0.5239 -1.5627  3.2635
 4135TIP3    H233897  -0.048   5.583   6.032 -0.9486 -0.0154  2.1011
 4136TIP3   OH233898   1.203   5.788   1.468  0.2141 -0.1773  0.2865
 4136TIP3    H133899   1.124   5.828   1.504 -2.3420 -0.3675 -4.3518
 4136TIP3    H233900   1.258   5.863   1.444 -0.3943  0.1573 -0.0800
 4137TIP3   OH233901   0.692   4.157   1.110 -0.1252 -0.2686 -0.4301
 4137TIP3    H133902   0.734   4.075   1.087  0.8538  0.4124 -1.1231
 4137TIP3    H233903   0.640   4.181   1.033 -0.1571 -0.0770 -0.3504
 4138TIP3   OH233904   3.738   0.001  15.785 -0.8133  0.1779  0.0313
 4138TIP3    H133905   3.809  -0.064  15.781 -1.3574 -0.6750  2.3528
 4138TIP3    H233906   3.659  -0.049  15.767 -1.2603  0.0920  2.0326
 4139TIP3   OH233907   3.148   5.839   5.531  0.1741 -0.1362  0.0546
 4139TIP3    H133908   3.085   5.786   5.481 -0.9438  0.1226  1.1234
 4139TIP3    H233909   3.199   5.885   5.465 -0.9285 -0.1799 -0.8583
 4140TIP3   OH233910   6.394   6.592  12.684  0.4160  0.0278 -0.2321
 4140TIP3    H133911   6.486   6.606  12.704 -0.0595  1.5018  1.1142
 4140TIP3    H233912   6.375   6.655  12.614 -0.0739  1.3410  1.0444
 4141TIP3   OH233913   4.088   4.966  11.280 -0.1093  0.0101 -0.5677
 4141TIP3    H133914   4.169   4.994  11.238 -0.1222 -0.6425 -1.0580
 4141TIP3    H233915   4.070   4.880  11.241 -0.2062 -0.5493  0.6802
 4142TIP3   OH233916   1.810   0.676   2.906  0.3693 -0.0308 -0.5225
 4142TIP3    H133917   1.766   0.720   2.833  0.6920  0.3513 -0.4904
 4142TIP3    H233918   1.761   0.704   2.983  0.6312  0.3475 -0.4928
 4143TIP3   OH233919   3.756   1.585   1.867  0.2872  0.1531 -0.1579
 4143TIP3    H133920   3.837   1.586   1.918  0.6926  1.1011 -0.7969
 4143TIP3    H233921   3.783   1.610   1.779 -0.7294  0.6899 -0.3319
 4144TIP3   OH233922   0.163   6.384  12.441  0.5537 -0.7757  0.1607
 4144TIP3    H133923   0.241   6.433  12.415 -0.1766  1.1442  1.3645
 4144TIP3    H233924   0.099   6.402  12.372 -0.3780  1.8004  1.5361
 4145TIP3   OH233925   3.174   0.861   3.612  0.1906  0.3820 -0.3481
 4145TIP3    H133926   3.136   0.822   3.691 -0.5612 -0.3973 -1.0694
 4145TIP3    H233927   3.266   0.836   3.614 -0.3326 -1.9313 -1.0057
 4146TIP3   OH233928   2.831   4.443   5.817 -0.3495  0.4791 -0.4559
 4146TIP3    H133929   2.856   4.449   5.909  0.9759  0.0322 -0.7649
 4146TIP3    H233930   2.747   4.488   5.812  0.5566  2.4074  0.5874
 4147TIP3   OH233931   2.230   0.445   1.593  0.2620 -0.2813 -0.0437
 4147TIP3    H133932   2.261   0.521   1.543 -0.3518 -0.3272 -0.5037
 4147TIP3    H233933   2.265   0.458   1.681 -0.9808  1.2499  0.2520
 4148TIP3   OH233934   6.752   1.883  12.294  0.3977 -0.3919 -0.2259
 4148TIP3    H133935   6.714   1.819  12.353  0.5085  0.1133  0.4179
 4148TIP3    H233936   6.705   1.964  12.313  0.8371 -0.0872 -0.4122
 4149TIP3   OH233937   0.866   4.690  13.765 -0.3526  0.0742  0.5914
 4149TIP3    H133938   0.788   4.643  13.736  0.9970 -2.1797  0.3451
 4149TIP3    H233939   0.937   4.628  13.753  1.4521  1.8989  1.1953
 4150TIP3   OH233940   0.177   6.144  15.191 -0.0983 -0.1333 -0.0218
 4150TIP3    H133941   0.220   6.060  15.179 -0.6338 -0.4537  0.2300
 4150TIP3    H233942   0.241   6.209  15.162  0.5717 -0.5886  0.4105
 4151TIP3   OH233943   4.190   6.397   4.022 -0.7007 -0.0342  0.3071
 4151TIP3    H133944   4.117   6.368   4.077 -0.9419 -1.3209 -0.6359
 4151TIP3    H233945   4.148   6.431   3.942 -0.2928 -0.2294  0.0048
 4152TIP3   OH233946   6.571   0.230   1.117  0.1136  0.6823  0.3294
 4152TIP3    H133947   6.656   0.187   1.127  0.7542  1.6122 -0.8785
 4152TIP3    H233948   6.588   0.322   1.135 -1.1617  0.5776  2.4571
 4153TIP3   OH233949   5.457   3.638   3.446 -0.1609  0.1602  0.3285
 4153TIP3    H133950   5.407   3.644   3.528  0.5143 -0.6711  0.8283
 4153TIP3    H233951   5.430   3.714   3.395 -1.2509  0.2177  0.9599
 4154TIP3   OH233952   6.738   5.768  11.840  0.0234  0.1821 -0.4278
 4154TIP3    H133953   6.777   5.774  11.752  0.7583  0.6616 -0.0798
 4154TIP3    H233954   6.741   5.675  11.861  0.4504  0.1383 -0.6518
 4155TIP3   OH233955   1.974   1.098   1.085  0.2559 -0.0457  0.0822
 4155TIP3    H133956   2.029   1.171   1.055 -0.4369  0.1360 -0.7758
 4155TIP3    H233957   1.917   1.136   1.151 -1.5852  0.7487 -1.8620
 4156TIP3   OH233958   2.107   1.703   5.063  0.0945  0.0764  0.5604
 4156TIP3    H133959   2.099   1.745   4.977 -2.3949 -2.6081 -0.7184
 4156TIP3    H233960   2.141   1.616   5.044 -0.4772 -0.5601  2.2822
 4157TIP3   OH233961   5.805   2.986   5.255 -0.3507  0.3066  0.5886
 4157TIP3    H133962   5.863   3.036   5.312 -0.4886  1.3619 -0.1590
 4157TIP3    H233963   5.791   2.903   5.300  2.0107 -0.1237  0.6573
 4158TIP3   OH233964   3.704   2.904   1.714 -0.1326  0.6590 -0.0537
 4158TIP3    H133965   3.789   2.860   1.711 -0.8347 -0.7185 -0.2361
 4158TIP3    H233966   3.669   2.884   1.801 -0.5777  0.6273 -0.2356
 4159TIP3   OH233967   2.365   2.536   4.315  0.2030 -0.0199 -0.4848
 4159TIP3    H133968   2.290   2.497   4.269 -0.1653  1.1208 -0.8833
 4159TIP3    H233969   2.355   2.507   4.406 -0.7275  0.1171 -0.5368
 4160TIP3   OH233970   2.082   0.953  12.177  0.0080 -0.3025  0.4760
 4160TIP3    H133971   2.063   1.041  12.144  0.5645 -0.0720  0.7497
 4160TIP3    H233972   2.118   0.968  12.265  2.0151 -0.6616 -0.2365
 4161TIP3   OH233973   4.765   0.442  16.266  0.3199 -0.1234  0.2484
 4161TIP3    H133974   4.854   0.445  16.231 -0.2006  0.5514 -1.0775
 4161TIP3    H233975   4.776   0.413  16.356  2.0111  1.2444  0.5342
 4162TIP3   OH233976   2.623   5.888  13.886 -0.0364 -0.0212 -0.1451
 4162TIP3    H133977   2.704   5.886  13.835  0.3096 -0.2228  0.4047
 4162TIP3    H233978   2.557   5.918  13.824  0.8002  1.9988 -0.1411
 4163TIP3   OH233979   6.388   6.408  17.001 -0.3095  0.6023  0.6247
 4163TIP3    H133980   6.415   6.370  16.917  0.1917 -0.4171  1.2331
 4163TIP3    H233981   6.310   6.359  17.026  0.9845 -0.8676  1.9641
 4164TIP3   OH233982   0.882   0.193  10.884  0.1735 -0.6437 -0.3771
 4164TIP3    H133983   0.823   0.143  10.827 -1.8251 -0.6324  1.5738
 4164TIP3    H233984   0.877   0.283  10.850  0.0660 -0.8707 -0.9835
 4165TIP3   OH233985   2.808   1.565   0.351  0.0299  0.2109  0.1351
 4165TIP3    H133986   2.769   1.586   0.266  0.0850 -0.7694 -0.1396
 4165TIP3    H233987   2.734   1.545   0.408  0.0744 -0.7859 -0.1469
 4166TIP3   OH233988   2.099   3.553   0.194  0.2682  0.3198 -0.1685
 4166TIP3    H133989   2.045   3.528   0.119  0.6897  1.6221 -0.9388
 4166TIP3    H233990   2.047   3.526   0.270 -0.2470 -0.8718 -0.8956
 4167TIP3   OH233991   6.770   5.465   5.331  0.3840  0.3297 -0.1933
 4167TIP3    H133992   6.763   5.370   5.323 -0.0289  0.4273 -1.2190
 4167TIP3    H233993   6.708   5.488   5.400 -0.5002 -0.0413 -0.8290
 4168TIP3   OH233994   1.115   3.965   5.547  0.3487 -0.0593  0.3325
 4168TIP3    H133995   1.056   3.966   5.623  0.6773  1.3704  0.5972
 4168TIP3    H233996   1.066   4.010   5.478  1.0552  0.9659  0.4950
 4169TIP3   OH233997   0.981   3.838   1.329 -0.2606 -0.1106  0.8880
 4169TIP3    H133998   0.958   3.841   1.422 -2.2613  0.4098  0.4088
 4169TIP3    H233999   1.027   3.920   1.313  0.3006 -0.3063  1.4506
 4170TIP3   OH234000   5.792   3.724   3.401  0.6689 -0.4966 -0.2923
 4170TIP3    H134001   5.747   3.781   3.463  2.2197 -1.8321  2.2392
 4170TIP3    H234002   5.865   3.776   3.368 -1.0224  0.7472 -2.3340
 4171TIP3   OH234003   2.161   2.203  14.781 -0.2879 -0.0878  0.4240
 4171TIP3    H134004   2.218   2.150  14.725  0.9222 -0.0705  1.5823
 4171TIP3    H234005   2.074   2.197  14.740  0.1569 -1.6260 -0.3677
 4172TIP3   OH234006   3.430   4.670  15.446 -0.2436 -0.6752  0.1921
 4172TIP3    H134007   3.402   4.582  15.470  0.0865 -1.0678 -0.8024
 4172TIP3    H234008   3.419   4.675  15.351  0.4724  0.0809  0.1249
 4173TIP3   OH234009   1.875   2.692   3.999 -0.2806  0.2229  0.2149
 4173TIP3    H134010   1.941   2.687   3.929 -1.3137 -0.3081 -0.7534
 4173TIP3    H234011   1.919   2.738   4.070  0.3088  2.2974 -1.3802
 4174TIP3   OH234012   5.221   6.746   3.987  0.0004 -0.1862 -0.0928
 4174TIP3    H134013   5.195   6.838   3.979  0.3803  0.0289  0.9402
 4174TIP3    H234014   5.224   6.714   3.897 -2.9776 -0.0080 -0.3740
 4175TIP3   OH234015   2.156   3.355  16.607 -1.0063  0.1540  0.5566
 4175TIP3    H134016   2.242   3.361  16.566  0.1038 -1.3719  2.4692
 4175TIP3    H234017   2.112   3.283  16.562 -1.3636  1.0119 -0.5022
 4176TIP3   OH234018   2.753   3.019   1.094 -0.1984 -0.3626  0.0033
 4176TIP3    H134019   2.715   3.018   1.182  0.0008 -1.1110  0.0892
 4176TIP3    H234020   2.797   2.934   1.086 -0.1137 -0.2521 -0.7727
 4177TIP3   OH234021   5.114   5.786  17.041  0.7232  0.3111 -0.0437
 4177TIP3    H134022   5.106   5.690  17.042  0.1039  0.3438 -0.8498
 4177TIP3    H234023   5.048   5.814  16.978  1.1347  1.2543 -0.0570
 4178TIP3   OH234024   3.319   2.611  16.540  0.1209 -0.7447 -0.6952
 4178TIP3    H134025   3.328   2.579  16.631  0.7579  1.1761 -0.0352
 4178TIP3    H234026   3.380   2.556  16.491 -1.5086 -3.0210 -0.3562
 4179TIP3   OH234027   5.309   4.864   0.893 -0.6900  0.6477  0.2970
 4179TIP3    H134028   5.386   4.864   0.836 -1.6136  1.4295 -1.0132
 4179TIP3    H234029   5.274   4.775   0.886 -0.3999  0.5383  0.1961
 4180TIP3   OH234030   3.376   5.383  16.142  0.0480 -0.2584 -0.5707
 4180TIP3    H134031   3.290   5.413  16.112  0.8588  1.3207 -1.5179
 4180TIP3    H234032   3.438   5.436  16.091  1.6062  2.1502  3.3156
 4181TIP3   OH234033   5.834   4.589   1.675 -0.3666 -0.0777  0.1600
 4181TIP3    H134034   5.829   4.546   1.590  2.1858  2.1186 -1.2792
 4181TIP3    H234035   5.777   4.666   1.668 -0.4290 -0.0776  0.5852
 4182TIP3   OH234036   4.550   2.503  16.350  0.0410 -0.1645  0.1016
 4182TIP3    H134037   4.505   2.499  16.265 -0.6143  0.1676  0.4296
 4182TIP3    H234038   4.574   2.412  16.368 -2.0301 -0.6331  0.7250
 4183TIP3   OH234039   3.429   0.537   1.770 -0.1437  0.2068  0.3337
 4183TIP3    H134040   3.437   0.516   1.678 -0.1461 -0.3899  0.4692
 4183TIP3    H234041   3.416   0.632   1.772 -0.1475  0.2187 -0.2747
 4184TIP3   OH234042   0.154   1.749   0.202  0.5733 -0.2160  0.4505
 4184TIP3    H134043   0.067   1.781   0.228 -0.2127 -1.1000 -0.9540
 4184TIP3    H234044   0.211   1.826   0.210 -0.2039  0.2494  1.9070
 4185TIP3   OH234045   2.142   2.776   4.831  0.0748  0.2205  0.2211
 4185TIP3    H134046   2.064   2.794   4.882  1.2644 -0.3869  2.3554
 4185TIP3    H234047   2.192   2.858   4.835 -0.1649  0.4248 -0.6690
 4186TIP3   OH234048   4.556   3.842   1.993 -0.2066  0.5666 -0.2551
 4186TIP3    H134049   4.463   3.862   2.003 -0.4242  0.0754 -1.1816
 4186TIP3    H234050   4.558   3.753   1.957  0.6371  0.3607  0.2698
 4187TIP3   OH234051   5.686   0.948  15.504 -0.2850  0.0840  0.0098
 4187TIP3    H134052   5.611   0.978  15.453 -1.1111  0.2584  1.2768
 4187TIP3    H234053   5.651   0.936  15.593  0.3010 -3.2971 -0.1006
 4188TIP3   OH234054   4.886   1.830  12.435  0.1433  0.6959 -0.2653
 4188TIP3    H134055   4.895   1.753  12.492 -2.5136  0.8548  0.5009
 4188TIP3    H234056   4.967   1.832  12.385  1.5675 -0.8747  1.7961
 4189TIP3   OH234057   3.803   2.962   1.421 -0.0979  0.0079  0.8431
 4189TIP3    H134058   3.758   2.937   1.501 -1.6273  0.2201  0.0991
 4189TIP3    H234059   3.880   2.906   1.417  0.0775  0.0867  2.5025
 4190TIP3   OH234060   4.094   0.831  15.060 -1.0415  0.0836  0.6304
 4190TIP3    H134061   4.089   0.855  14.967 -0.1637 -1.9895 -0.0119
 4190TIP3    H234062   4.173   0.876  15.091  0.2526 -1.3417 -0.4013
 4191TIP3   OH234063   4.693   1.965  10.680  0.1443 -0.1531  0.5062
 4191TIP3    H134064   4.715   2.052  10.647 -1.5198 -0.2253 -0.9597
 4191TIP3    H234065   4.642   1.981  10.759  1.6892  0.1011  1.4984
 4192TIP3   OH234066   4.210   5.132   6.000  0.7356 -0.5204 -0.1860
 4192TIP3    H134067   4.295   5.111   5.961  0.8364 -0.4371 -0.0104
 4192TIP3    H234068   4.222   5.219   6.039 -0.1417  0.6216 -2.3058
 4193TIP3   OH234069   4.749   0.586  16.673  0.1453  0.3489 -0.0238
 4193TIP3    H134070   4.798   0.661  16.705 -0.4354  0.3198  0.9658
 4193TIP3    H234071   4.815   0.518  16.656  0.5294  0.5975  0.4647
 4194TIP3   OH234072   0.962   5.902  14.148  0.7283  0.1560  0.0440
 4194TIP3    H134073   1.031   5.933  14.089  2.3128 -1.9940  0.6321
 4194TIP3    H234074   1.008   5.878  14.228 -0.8589 -0.5072  0.8006
 4195TIP3   OH234075   0.771   2.695   5.045 -0.2904  0.8279 -0.0452
 4195TIP3    H134076   0.753   2.761   5.112 -0.7360 -0.9423  1.6771
 4195TIP3    H234077   0.866   2.686   5.045 -0.2433  1.2887 -0.1345
 4196TIP3   OH234078   6.629   5.363   4.898  0.8261  0.2214 -0.2813
 4196TIP3    H134079   6.701   5.317   4.942  1.3625  0.2103 -1.1469
 4196TIP3    H234080   6.662   5.451   4.883 -0.0195  0.7556  0.9233
 4197TIP3   OH234081   3.624   3.167   5.525 -0.5971  0.2887  0.0583
 4197TIP3    H134082   3.685   3.095   5.541 -0.5518  0.5790  1.3094
 4197TIP3    H234083   3.569   3.136   5.452  1.0414  0.0483 -1.1203
 4198TIP3   OH234084   0.612   1.083  13.608 -0.4175  0.1560  0.2355
 4198TIP3    H134085   0.571   1.028  13.541 -0.1269  0.2857 -0.0553
 4198TIP3    H234086   0.542   1.102  13.670 -0.6348 -0.1586  0.0910
 4199TIP3   OH234087   0.605   0.242  17.020 -0.1433  0.0726  0.3693
 4199TIP3    H134088   0.561   0.326  17.008 -0.4847  0.2566  2.5307
 4199TIP3    H234089   0.534   0.178  17.025 -0.0801  0.0911  1.7888
 4200TIP3   OH234090   5.603   6.078  13.570  0.2356 -0.2642 -0.0042
 4200TIP3    H134091   5.603   6.009  13.504 -1.8911  0.3688 -0.7544
 4200TIP3    H234092   5.612   6.159  13.520 -0.8734  0.1949  0.5035
 4201TIP3   OH234093   3.609   3.450   0.113 -0.5696  0.2522  0.6044
 4201TIP3    H134094   3.626   3.367   0.069 -0.7156  0.6005 -0.1274
 4201TIP3    H234095   3.514   3.457   0.117 -0.5958  1.1734 -0.9131
 4202TIP3   OH234096   6.651   6.373  11.425  0.2896 -0.3947  0.2856
 4202TIP3    H134097   6.675   6.339  11.338  0.8929  1.6615 -0.4252
 4202TIP3    H234098   6.559   6.349  11.436  0.1706 -0.5896 -0.9776
 4203TIP3   OH234099   2.858   1.591  14.570 -0.4117 -0.6748 -0.9853
 4203TIP3    H134100   2.811   1.659  14.521 -2.0908  0.6879  2.2167
 4203TIP3    H234101   2.880   1.633  14.653  2.2211 -2.8603 -0.4400
 4204TIP3   OH234102   6.743   0.997   1.348 -0.5519  0.4079 -0.0616
 4204TIP3    H134103   6.652   0.968   1.341 -0.3158 -0.7049  1.0561
 4204TIP3    H234104   6.766   0.981   1.440  0.7677  0.6710 -0.3274
 4205TIP3   OH234105   1.947   4.823  14.828  0.3509  0.2354 -0.5103
 4205TIP3    H134106   1.985   4.742  14.860 -0.1959  0.1137 -0.1670
 4205TIP3    H234107   1.947   4.882  14.904 -0.9345 -0.0499 -0.2648
 4206TIP3   OH234108   0.280   6.025  13.215  0.3101 -0.5631 -0.1242
 4206TIP3    H134109   0.271   5.931  13.232 -2.1964 -0.0781  1.8908
 4206TIP3    H234110   0.269   6.066  13.301  0.0549  1.6365 -1.1411
 4207TIP3   OH234111   0.472   2.560  17.192 -0.6010 -0.0040  0.3454
 4207TIP3    H134112   0.402   2.552  17.256 -0.0158  0.7158  1.1121
 4207TIP3    H234113   0.461   2.485  17.134 -2.0869  0.1866  0.3523
 4208TIP3   OH234114   4.003   2.286  11.735 -0.2326 -0.0722  0.2400
 4208TIP3    H134115   4.023   2.365  11.685  0.2883 -1.0862 -1.2507
 4208TIP3    H234116   3.947   2.235  11.677 -2.3610  0.1004  2.0288
 4209TIP3   OH234117   4.631   0.523  10.909 -0.6284 -0.2837 -0.0871
 4209TIP3    H134118   4.585   0.593  10.957 -2.9142 -0.8292 -1.3545
 4209TIP3    H234119   4.648   0.457  10.976  1.7285  1.4290  1.1822
 4210TIP3   OH234120   2.553   3.614  13.032  0.2103  0.1103  0.3146
 4210TIP3    H134121   2.530   3.645  12.945 -2.7642 -0.4011  0.8324
 4210TIP3    H234122   2.535   3.520  13.031  1.2260 -0.1284  1.1906
 4211TIP3   OH234123   4.579   5.281   6.431  0.0542  0.1802 -0.0897
 4211TIP3    H134124   4.495   5.236   6.438 -0.9711  1.8526 -0.8994
 4211TIP3    H234125   4.643   5.220   6.468 -1.2786 -1.7628 -0.8286
 4212TIP3   OH234126   0.055   5.185  17.074 -0.1958  0.1792  0.7177
 4212TIP3    H134127   0.043   5.116  17.140  1.2912  2.4581  3.5996
 4212TIP3    H234128   0.126   5.239  17.109 -0.8175  2.7873 -1.7389
 4213TIP3   OH234129   6.462   1.613   2.649 -0.1665  0.1961  0.0672
 4213TIP3    H134130   6.523   1.555   2.695  2.2404  1.7518 -1.0295
 4213TIP3    H234131   6.423   1.666   2.718  0.2113 -0.3696  0.7302
 4214TIP3   OH234132   5.776   3.145  15.898  0.3862  0.6414 -0.3458
 4214TIP3    H134133   5.688   3.132  15.863  0.6873  0.5471 -1.0941
 4214TIP3    H234134   5.777   3.236  15.928 -0.4623  0.1781  1.1646
 4215TIP3   OH234135   4.032   0.407   6.174 -0.0482  0.2583 -0.1179
 4215TIP3    H134136   3.955   0.453   6.207  0.5289  1.2697 -0.1495
 4215TIP3    H234137   4.011   0.387   6.082 -1.0229 -1.1728  0.3822
 4216TIP3   OH234138   1.202   1.190   4.222  0.9016  0.2307  0.4158
 4216TIP3    H134139   1.122   1.179   4.274 -1.2223  0.2272 -2.6063
 4216TIP3    H234140   1.244   1.105   4.225 -1.4356 -1.1129 -1.1710
 4217TIP3   OH234141   5.819   1.100  11.975  0.3212 -0.8346 -0.3096
 4217TIP3    H134142   5.726   1.122  11.972  1.0087  2.7155 -1.1024
 4217TIP3    H234143   5.828   1.044  12.052 -2.5130 -1.9109 -0.6376
 4218TIP3   OH234144   0.610   3.282  11.386 -0.5221 -0.0726  0.0985
 4218TIP3    H134145   0.566   3.225  11.448  0.2887  0.2158  0.9652
 4218TIP3    H234146   0.579   3.370  11.408  0.2021  0.0944  0.4996
 4219TIP3   OH234147   6.417   6.816   1.987  0.3503  0.7730  0.2671
 4219TIP3    H134148   6.501   6.777   2.013  0.6208  1.1735  0.0146
 4219TIP3    H234149   6.389   6.764   1.912 -0.1922 -0.0784  1.0417
 4220TIP3   OH234150   4.688   6.340   5.613  0.4172 -0.4495 -0.0329
 4220TIP3    H134151   4.734   6.422   5.597  0.1494 -0.6188 -1.9700
 4220TIP3    H234152   4.732   6.276   5.556 -2.2487 -0.5542 -2.1988
 4221TIP3   OH234153   4.571   1.628  10.880  0.1537 -0.3120 -0.4633
 4221TIP3    H134154   4.596   1.564  10.813  0.5605 -1.1231  0.4429
 4221TIP3    H234155   4.648   1.685  10.888 -0.1225  0.1544 -1.1113
 4222TIP3   OH234156   3.391   1.327  12.952  0.2570  0.4346 -0.5073
 4222TIP3    H134157   3.410   1.376  13.033 -0.9248 -1.5294  1.0495
 4222TIP3    H234158   3.477   1.301  12.920  0.7151  0.1357  0.8706
 4223TIP3   OH234159   6.103   4.082   2.743  0.1663  0.1300 -0.0708
 4223TIP3    H134160   6.062   4.117   2.664  1.8735  0.8089 -0.7166
 4223TIP3    H234161   6.031   4.042   2.792 -1.1239  0.6939 -1.4175
 4224TIP3   OH234162   2.350   4.959   2.919 -0.0515 -0.0463  0.6150
 4224TIP3    H134163   2.358   4.879   2.970  0.8856 -0.5104 -0.2228
 4224TIP3    H234164   2.433   4.966   2.871 -1.0133  0.1368 -1.1434
 4225TIP3   OH234165   3.643   1.960   4.722  0.1427  0.1401  0.0263
 4225TIP3    H134166   3.720   2.011   4.696  2.0031 -1.8002  1.4103
 4225TIP3    H234167   3.645   1.883   4.665 -0.7528  0.0559  0.1071
 4226TIP3   OH234168   4.834   3.861   0.875 -1.0954 -0.1885 -0.4836
 4226TIP3    H134169   4.774   3.850   0.801 -0.4250 -0.8373 -0.9442
 4226TIP3    H234170   4.889   3.936   0.851  1.4555 -2.4505 -2.3290
 4227TIP3   OH234171   2.779   3.145  15.203  0.5385  0.3266 -0.6008
 4227TIP3    H134172   2.849   3.157  15.267  0.5362  2.3846 -0.9123
 4227TIP3    H234173   2.708   3.106  15.252  1.7508 -1.4564 -0.1939
 4228TIP3   OH234174   5.429   4.341  12.342 -0.1404 -0.3016 -0.3980
 4228TIP3    H134175   5.390   4.414  12.390 -0.6722  1.1841 -2.9004
 4228TIP3    H234176   5.442   4.273  12.408 -2.0239  1.1030  1.5622
 4229TIP3   OH234177   2.409   5.122  14.832 -0.1073 -0.0148 -0.2637
 4229TIP3    H134178   2.465   5.154  14.761  2.6973 -1.5124  1.1206
 4229TIP3    H234179   2.457   5.048  14.869 -2.1422 -0.1955  2.2695
 4230TIP3   OH234180   4.689   1.928   0.427 -0.0617  0.0808  0.2096
 4230TIP3    H134181   4.704   2.006   0.373 -2.8667  0.7305  0.2423
 4230TIP3    H234182   4.706   1.854   0.369  0.1677  0.7361 -0.5765
 4231TIP3   OH234183   0.896   2.617  12.551  0.0315 -0.0272  0.1074
 4231TIP3    H134184   0.944   2.643  12.630 -0.1682  0.3936  0.0909
 4231TIP3    H234185   0.907   2.522  12.547 -0.5994 -0.1545  1.0708
 4232TIP3   OH234186   4.086   4.419  11.574  0.6136 -0.4508 -0.4423
 4232TIP3    H134187   4.077   4.324  11.583 -3.4526 -0.1315  0.9337
 4232TIP3    H234188   4.009   4.446  11.523  0.4999  2.2457  0.9668
 4233TIP3   OH234189   4.884   0.988   4.080  0.2197  0.3722 -0.2315
 4233TIP3    H134190   4.815   1.029   4.132 -1.0146 -2.3594  0.4936
 4233TIP3    H234191   4.964   1.030   4.109 -0.4496 -0.6834  3.7201
 4234TIP3   OH234192   5.284   0.457   0.164  0.3237 -0.0806  0.2085
 4234TIP3    H134193   5.299   0.395   0.093  3.4955 -0.0523  0.7384
 4234TIP3    H234194   5.250   0.405   0.236 -0.1919 -0.5855 -0.3874
 4235TIP3   OH234195   4.481   6.015   3.101 -0.4430  0.0904 -0.1081
 4235TIP3    H134196   4.479   5.929   3.058  1.3347 -0.4733  0.8132
 4235TIP3    H234197   4.450   5.997   3.190  3.9974 -0.6683  1.5537
 4236TIP3   OH234198   4.257   0.676   5.291  0.2426  1.0840  0.3961
 4236TIP3    H134199   4.298   0.727   5.361  0.8825 -0.7099  1.3698
 4236TIP3    H234200   4.329   0.651   5.234  0.1918 -0.1958  0.8814
 4237TIP3   OH234201   4.630   2.146  15.391  0.3562  0.3629  0.4696
 4237TIP3    H134202   4.590   2.060  15.379 -0.7668  0.9264  0.0730
 4237TIP3    H234203   4.698   2.150  15.323 -1.2794  0.7585 -1.2355
 4238TIP3   OH234204   1.661   5.128   1.059 -0.2343 -0.2299 -0.3672
 4238TIP3    H134205   1.686   5.212   1.098  1.2202 -1.4609  1.5719
 4238TIP3    H234206   1.565   5.127   1.065 -0.2450  1.0420  0.1073
 4239TIP3   OH234207   5.792   3.452  13.101  0.8853  0.6917 -0.1714
 4239TIP3    H134208   5.872   3.415  13.063  0.1179  0.1798 -1.3610
 4239TIP3    H234209   5.724   3.434  13.035 -0.9311 -1.9909  2.2121
 4240TIP3   OH234210   1.161   5.127   5.778  0.2885  0.0784 -0.0992
 4240TIP3    H134211   1.162   5.162   5.689 -2.6294 -0.2754 -0.3723
 4240TIP3    H234212   1.173   5.033   5.767 -1.0361 -0.0893 -0.2502
 4241TIP3   OH234213   6.818   4.523   5.376  0.2745  0.0888  0.4463
 4241TIP3    H134214   6.815   4.613   5.408  0.8299  0.4309 -0.4304
 4241TIP3    H234215   6.907   4.494   5.394  0.1136 -0.2744  0.6759
 4242TIP3   OH234216   2.810   4.500  14.162 -0.2101  0.1793 -0.8241
 4242TIP3    H134217   2.884   4.542  14.119 -0.9878  0.0927 -2.3069
 4242TIP3    H234218   2.810   4.537  14.250  1.1334  0.7505 -1.0369
 4243TIP3   OH234219   6.388   0.362  12.873  0.1952  0.1345 -0.3994
 4243TIP3    H134220   6.392   0.451  12.838  0.3197  0.6140  0.7654
 4243TIP3    H234221   6.420   0.306  12.802  1.8221  1.2047 -0.5627
 4244TIP3   OH234222   1.649   2.534  11.636  0.1177  0.0007  0.2211
 4244TIP3    H134223   1.721   2.595  11.649 -1.0172  1.2199  1.0795
 4244TIP3    H234224   1.664   2.465  11.701  0.8402 -0.1012 -0.0431
 4245TIP3   OH234225   4.599   0.040   5.577  0.5826  0.3968  0.2503
 4245TIP3    H134226   4.694   0.048   5.583  0.6012 -0.1228  0.7345
 4245TIP3    H234227   4.570   0.034   5.669  0.2588 -1.4342  0.0553
 4246TIP3   OH234228   0.884   5.831  11.336  0.1918  0.1216  0.1195
 4246TIP3    H134229   0.828   5.815  11.412 -0.2774  1.0238 -0.0294
 4246TIP3    H234230   0.933   5.910  11.358 -0.7290  1.0190 -0.9391
 4247TIP3   OH234231   3.137   6.415  16.765  0.4610  0.3958  0.1083
 4247TIP3    H134232   3.175   6.436  16.679  0.2558 -1.4084 -0.4805
 4247TIP3    H234233   3.191   6.463  16.828  0.7114  1.6321 -1.0105
 4248TIP3   OH234234   2.294   4.715   3.038  0.4916  0.2753 -0.3863
 4248TIP3    H134235   2.310   4.722   3.132 -0.3654 -2.6062  0.0781
 4248TIP3    H234236   2.203   4.744   3.028  0.2018 -0.5106 -0.1127
 4249TIP3   OH234237   4.676   5.191  13.827  0.6745  0.5240  0.5169
 4249TIP3    H134238   4.661   5.282  13.802 -2.0553  0.0155 -0.0155
 4249TIP3    H234239   4.747   5.195  13.892  1.3841  2.8736 -0.3165
 4250TIP3   OH234240   1.649   3.158   1.415  0.1566  0.4299  0.3442
 4250TIP3    H134241   1.597   3.103   1.474 -0.9183  0.5019 -0.5050
 4250TIP3    H234242   1.611   3.246   1.425  0.9138  0.7339  0.6132
 4251TIP3   OH234243   3.805   6.108   5.354  0.1165 -0.5435 -0.7605
 4251TIP3    H134244   3.860   6.182   5.382  1.1119 -1.9664  1.3942
 4251TIP3    H234245   3.848   6.075   5.275  1.2780 -0.4440 -0.2006
 4252TIP3   OH234246   1.869   5.962   4.801  0.0464  0.5623 -0.1276
 4252TIP3    H134247   1.892   5.882   4.847  0.2735  0.7306  0.0486
 4252TIP3    H234248   1.801   5.935   4.739 -1.7179  0.6985  1.6621
 4253TIP3   OH234249   4.411   3.031   5.812  0.2669 -0.5771 -0.0105
 4253TIP3    H134250   4.349   2.979   5.761  0.3841 -0.4450 -0.2881
 4253TIP3    H234251   4.375   3.120   5.809 -0.8731 -0.9237  1.9016
 4254TIP3   OH234252   5.892   2.645   3.219  0.1330  0.1901 -0.2596
 4254TIP3    H134253   5.953   2.650   3.293 -0.6131  1.5343  0.2983
 4254TIP3    H234254   5.903   2.557   3.184  0.4094 -0.5159  1.5332
 4255TIP3   OH234255   2.316   6.220  16.016 -0.5790 -0.2654 -0.0005
 4255TIP3    H134256   2.355   6.135  16.034 -1.5961 -0.5096  1.2093
 4255TIP3    H234257   2.335   6.272  16.094  0.0445  0.6243 -0.7332
 4256TIP3   OH234258   0.020   6.439   4.527  0.2677  0.3403 -0.6834
 4256TIP3    H134259  -0.048   6.379   4.497 -0.7125  0.8420  0.5017
 4256TIP3    H234260   0.081   6.383   4.576 -0.5863  0.2798  0.3315
 4257TIP3   OH234261   3.569   4.826   2.069 -0.2034  0.0030 -0.6167
 4257TIP3    H134262   3.520   4.904   2.094 -0.6085  0.2783 -2.1603
 4257TIP3    H234263   3.511   4.779   2.009 -0.1743 -1.7725  0.6504
 4258TIP3   OH234264   2.425   5.358  12.001 -0.0081  0.3504  0.3961
 4258TIP3    H134265   2.356   5.421  12.020  0.3492  1.1660 -0.8856
 4258TIP3    H234266   2.378   5.284  11.961 -0.0881  1.3753 -1.5531
 4259TIP3   OH234267   1.145   3.826  11.178  0.2590 -0.1616  0.1752
 4259TIP3    H134268   1.158   3.920  11.168  1.6890 -0.2876  0.7276
 4259TIP3    H234269   1.063   3.809  11.132  1.7831  0.7575 -3.1781
 4260TIP3   OH234270   4.297   2.615  12.518  0.0059  0.0865  0.0021
 4260TIP3    H134271   4.225   2.668  12.484 -0.2711  1.1199  2.0323
 4260TIP3    H234272   4.254   2.538  12.555 -0.1389  0.7919  1.3835
 4261TIP3   OH234273   6.626   0.496  13.683 -0.4144  0.3437 -0.3912
 4261TIP3    H134274   6.673   0.413  13.686 -0.6459  0.2399  1.4669
 4261TIP3    H234275   6.633   0.531  13.772 -0.7249  2.0932 -1.0150
 4262TIP3   OH234276   0.115   5.128  16.784 -0.3575  0.7964 -0.1850
 4262TIP3    H134277   0.081   5.218  16.780 -0.2140  0.9260  1.0454
 4262TIP3    H234278   0.090   5.097  16.871 -1.2912 -0.7334 -0.9665
 4263TIP3   OH234279   4.423   5.706  14.475  0.1776  0.1645  0.1348
 4263TIP3    H134280   4.424   5.635  14.538 -0.9105 -0.6217 -0.6944
 4263TIP3    H234281   4.339   5.750  14.488 -0.1093 -0.0746 -0.8086
 4264TIP3   OH234282   4.570   2.963   4.307  0.1767 -0.3150  0.1481
 4264TIP3    H134283   4.572   2.888   4.366 -1.0475 -0.2653  0.2740
 4264TIP3    H234284   4.486   2.956   4.262 -0.4461  1.5444  0.9166
 4265TIP3   OH234285   6.584   2.168   0.792 -0.5639  0.3583 -0.4973
 4265TIP3    H134286   6.578   2.090   0.847  0.5326  0.5815 -0.0263
 4265TIP3    H234287   6.628   2.138   0.713 -1.4273  0.2094 -0.9360
 4266TIP3   OH234288   4.791   6.692   4.914 -0.8949 -0.3415 -0.1952
 4266TIP3    H134289   4.759   6.780   4.934 -0.3107 -0.1473 -0.1021
 4266TIP3    H234290   4.876   6.706   4.872 -0.5462 -0.8785  0.3145
 4267TIP3   OH234291   4.555   2.242  11.916 -0.0228  0.2883  0.1903
 4267TIP3    H134292   4.580   2.334  11.932 -1.1093  0.7784 -0.8019
 4267TIP3    H234293   4.462   2.246  11.893  0.2294 -0.9245 -1.1386
 4268TIP3   OH234294   4.031   6.536  13.172 -0.2709  0.2537  0.1182
 4268TIP3    H134295   4.100   6.591  13.210  0.7158 -0.7967 -0.0951
 4268TIP3    H234296   3.984   6.501  13.247 -1.1627  1.6573  0.2555
 4269TIP3   OH234297   4.018   3.797   0.734 -0.3438 -0.0976  0.0252
 4269TIP3    H134298   4.044   3.843   0.814  0.7341 -1.0228  0.2373
 4269TIP3    H234299   3.981   3.715   0.764 -0.3706 -0.2541 -0.4203
 4270TIP3   OH234300   4.705   0.723   3.542 -0.0645 -0.1530  0.8258
 4270TIP3    H134301   4.627   0.767   3.574  0.5255  1.4692  0.1394
 4270TIP3    H234302   4.688   0.630   3.557 -1.8360  0.2061  1.2794
 4271TIP3   OH234303   6.227   6.685  11.782 -0.6932 -0.1145 -0.4743
 4271TIP3    H134304   6.140   6.722  11.768 -0.3729  0.5861 -0.7018
 4271TIP3    H234305   6.274   6.705  11.701  0.0426  0.6035  0.1052
 4272TIP3   OH234306   2.181   5.730  15.708  0.0426  0.5989 -0.2838
 4272TIP3    H134307   2.086   5.713  15.706  0.1625 -0.0794 -0.4088
 4272TIP3    H234308   2.216   5.680  15.634  0.8148 -1.3095  1.2737
 4273TIP3   OH234309   5.511   3.805  15.141 -0.3257  0.1323  0.1260
 4273TIP3    H134310   5.495   3.782  15.233 -1.2272  1.3621  0.3009
 4273TIP3    H234311   5.526   3.899  15.142  1.4215 -0.0910 -0.7922
 4274TIP3   OH234312   3.718   5.227   1.046 -0.5456 -0.0511  0.3134
 4274TIP3    H134313   3.634   5.269   1.062  0.0349  2.0475 -1.6550
 4274TIP3    H234314   3.777   5.269   1.110 -0.7366 -0.6741  0.9071
 4275TIP3   OH234315   0.766   5.516   1.291 -0.0751  0.6951  0.1391
 4275TIP3    H134316   0.861   5.526   1.291  0.2172 -1.6073  0.9344
 4275TIP3    H234317   0.742   5.516   1.383 -0.6377 -0.3023  0.0056
 4276TIP3   OH234318   0.105   5.785   3.145 -0.0870  0.2195 -0.5760
 4276TIP3    H134319   0.094   5.872   3.106 -0.9362  0.6373  0.5293
 4276TIP3    H234320   0.028   5.774   3.200  0.4279 -0.8973 -0.0478
 4277TIP3   OH234321   3.259   0.214   1.630 -0.3464  0.3691  0.0491
 4277TIP3    H134322   3.246   0.178   1.542 -1.4326  0.6210  0.0950
 4277TIP3    H234323   3.343   0.179   1.658  1.7255  2.8832 -2.4121
 4278TIP3   OH234324   6.207   6.493   0.925  0.1878  0.3397  0.7211
 4278TIP3    H134325   6.139   6.531   0.869 -0.2871  1.4331  1.9783
 4278TIP3    H234326   6.179   6.515   1.014  1.4610 -0.4368  1.3312
 4279TIP3   OH234327   2.673   5.218  14.996  0.1616  0.0325  0.2764
 4279TIP3    H134328   2.696   5.237  14.905 -1.2577 -0.8678 -0.2974
 4279TIP3    H234329   2.690   5.300  15.043  0.6053  0.6022 -0.8421
 4280TIP3   OH234330   0.916   6.203   0.826  0.7675 -0.2247 -0.3888
 4280TIP3    H134331   0.885   6.165   0.744 -0.9960 -0.1787  0.2187
 4280TIP3    H234332   0.879   6.147   0.894  1.0857  0.5197  0.4160
 4281TIP3   OH234333   6.310   3.027   1.718  0.4847 -0.3789 -0.3031
 4281TIP3    H134334   6.291   2.945   1.674 -0.9505 -0.2991  0.1207
 4281TIP3    H234335   6.337   3.001   1.806 -0.0604 -0.4000 -0.1396
 4282TIP3   OH234336   1.424   1.541   3.866 -0.1813  0.2937  0.3581
 4282TIP3    H134337   1.332   1.539   3.894 -0.3633  2.6559  0.1077
 4282TIP3    H234338   1.473   1.517   3.945 -0.9707 -0.4810  0.6326
 4283TIP3   OH234339   1.858   4.763   0.132  0.0932 -0.0540 -0.1458
 4283TIP3    H134340   1.877   4.856   0.144  0.0932  0.0028 -0.5660
 4283TIP3    H234341   1.762   4.760   0.123  0.2112  0.1615 -2.1120
 4284TIP3   OH234342   0.652   2.057   5.448 -0.2904  0.0319 -0.1699
 4284TIP3    H134343   0.666   2.150   5.467  0.3264 -0.3850  1.5878
 4284TIP3    H234344   0.566   2.038   5.485 -0.5101 -0.0671 -0.7176
 4285TIP3   OH234345   2.076   0.900  11.072  0.0803 -0.4943 -0.4341
 4285TIP3    H134346   2.098   0.849  10.994 -0.6299  0.9676 -1.6594
 4285TIP3    H234347   1.985   0.874  11.091  0.7456 -1.9959  0.8958
 4286TIP3   OH234348   2.772   5.642   1.467 -0.0603  0.4332 -0.1512
 4286TIP3    H134349   2.767   5.556   1.508 -2.6138  0.1806 -0.8420
 4286TIP3    H234350   2.841   5.688   1.515  2.2197 -2.3346 -0.5372
 4287TIP3   OH234351   2.011   0.516   0.752  0.3672 -0.1346 -0.0149
 4287TIP3    H134352   1.995   0.454   0.823  0.9157  0.0841  0.3050
 4287TIP3    H234353   1.923   0.539   0.720  0.1476 -0.8705  0.0301
 4288TIP3   OH234354   5.574   4.277  15.249  0.5307  0.0113  0.7739
 4288TIP3    H134355   5.563   4.353  15.306 -0.5650 -0.0211  0.6384
 4288TIP3    H234356   5.616   4.211  15.303 -0.6410 -0.0779  1.6090
 4289TIP3   OH234357   1.689   5.854   5.075  0.3644 -0.6351 -0.4622
 4289TIP3    H134358   1.631   5.878   5.003 -0.5051  0.4514  0.5354
 4289TIP3    H234359   1.658   5.768   5.104 -0.5108 -0.2428 -0.2044
 4290TIP3   OH234360   3.369   1.745  11.593 -0.4023  0.6396  0.1989
 4290TIP3    H134361   3.408   1.722  11.509  0.7181 -3.1629  1.5769
 4290TIP3    H234362   3.277   1.720  11.584 -0.5576  1.3289 -0.2201
 4291TIP3   OH234363   1.259   2.597   5.846  0.4049  0.1124  0.1534
 4291TIP3    H134364   1.173   2.578   5.883  0.8667  0.7206  1.5870
 4291TIP3    H234365   1.317   2.532   5.883  0.5328 -0.5112 -1.0772
 4292TIP3   OH234366   3.287   1.820  15.413  0.0809 -0.1900 -0.7702
 4292TIP3    H134367   3.326   1.872  15.483 -0.6198 -0.1702 -0.3884
 4292TIP3    H234368   3.270   1.883  15.343  2.0296 -0.4233 -1.5389
 4293TIP3   OH234369   4.466   3.610   1.865 -0.1753 -0.0048  0.7542
 4293TIP3    H134370   4.451   3.515   1.869  2.2102 -0.5571 -1.1199
 4293TIP3    H234371   4.438   3.635   1.778  1.7635  0.4240  0.2064
 4294TIP3   OH234372   2.431   2.271   0.282 -0.4907  0.2177  0.2854
 4294TIP3    H134373   2.344   2.289   0.247 -0.6199  0.9242  0.9292
 4294TIP3    H234374   2.482   2.348   0.260  0.0288 -0.2627 -0.2283
 4295TIP3   OH234375   0.687   1.010   1.018 -0.4599  0.0033 -0.1819
 4295TIP3    H134376   0.737   1.080   1.061  0.2641 -0.7899  0.2988
 4295TIP3    H234377   0.645   1.053   0.944  1.9521  0.5017 -1.3861
 4296TIP3   OH234378   4.403   3.048   0.430 -0.0342  0.7193 -0.0280
 4296TIP3    H134379   4.488   3.074   0.465  0.2863  0.3674 -0.5280
 4296TIP3    H234380   4.345   3.044   0.506  0.8818 -1.0242  0.6340
 4297TIP3   OH234381   4.784   0.945  14.447  0.0211 -0.2019 -0.1914
 4297TIP3    H134382   4.763   0.970  14.358  0.1984  0.1203 -0.1456
 4297TIP3    H234383   4.745   1.014  14.501  1.0618  0.3292 -0.1010
 4298TIP3   OH234384   2.814   3.978  13.190  0.1864  0.3628 -0.7188
 4298TIP3    H134385   2.889   3.996  13.133  0.0171  0.0581 -1.0408
 4298TIP3    H234386   2.771   4.063  13.201 -0.3469  0.2556 -1.8535
 4299TIP3   OH234387   5.393   1.663  12.150  0.4017  0.0918 -0.7540
 4299TIP3    H134388   5.462   1.712  12.196 -0.1084 -1.0150  1.3364
 4299TIP3    H234389   5.436   1.625  12.074  1.6162  0.9977 -0.5391
 4300TIP3   OH234390   2.836   3.602  15.327 -0.2549 -0.4921  0.2572
 4300TIP3    H134391   2.925   3.576  15.348  0.2082  1.3760  0.7732
 4300TIP3    H234392   2.800   3.528  15.278  1.7411 -1.0584 -0.4148
 4301TIP3   OH234393   5.550   0.587  16.203 -0.2266  0.7527  0.0756
 4301TIP3    H134394   5.635   0.628  16.184 -0.3269  0.5413 -0.8950
 4301TIP3    H234395   5.547   0.511  16.145 -0.9426  0.5718  0.3442
 4302TIP3   OH234396   0.999   1.798   2.478 -0.3288 -0.4731 -0.3202
 4302TIP3    H134397   1.065   1.867   2.485 -1.8355  1.0726 -0.7632
 4302TIP3    H234398   0.933   1.834   2.419 -1.2861 -2.2133 -0.3688
 4303TIP3   OH234399   2.180   2.055  12.654  0.9830 -0.6724 -0.0493
 4303TIP3    H134400   2.198   2.084  12.564  0.4648 -0.5150 -0.1109
 4303TIP3    H234401   2.232   1.976  12.665 -0.9131 -2.2300 -1.4165
 4304TIP3   OH234402   3.392   4.785  15.987  0.5119 -0.8343 -0.4663
 4304TIP3    H134403   3.362   4.865  15.946 -0.7417 -1.2627 -0.4277
 4304TIP3    H234404   3.350   4.784  16.073  0.6928 -1.4124 -0.3746
 4305TIP3   OH234405   6.465   4.317  15.129  0.1456 -0.1647 -0.1681
 4305TIP3    H134406   6.390   4.292  15.183 -1.1424 -0.7451 -2.1333
 4305TIP3    H234407   6.536   4.260  15.158 -0.1312  0.4125  1.7451
 4306TIP3   OH234408   6.664   6.275  15.617 -0.5191  0.0517 -0.3860
 4306TIP3    H134409   6.747   6.305  15.581 -0.6270  2.1426  0.9376
 4306TIP3    H234410   6.677   6.277  15.712 -1.5552 -1.2784 -0.1855
 4307TIP3   OH234411   5.576   0.485   2.081 -0.0891  0.0029 -0.0479
 4307TIP3    H134412   5.591   0.455   2.171  1.6059  0.6000 -0.0883
 4307TIP3    H234413   5.659   0.525   2.056 -1.3524  2.1835 -0.9697
 4308TIP3   OH234414   0.202   0.995  16.259  0.2551 -0.0185  0.0755
 4308TIP3    H134415   0.267   0.953  16.315  1.3271  0.0930 -1.0534
 4308TIP3    H234416   0.135   1.026  16.320  1.6527  0.6099  1.3501
 4309TIP3   OH234417   1.774   1.452  11.172 -0.0316  0.0137  0.0254
 4309TIP3    H134418   1.828   1.490  11.103 -0.2769 -0.1467 -0.2613
 4309TIP3    H234419   1.785   1.509  11.247  1.7330 -0.8397  0.4605
 4310TIP3   OH234420   5.075   0.406  15.179  0.7838  0.1984 -0.4672
 4310TIP3    H134421   5.049   0.320  15.212  0.7031 -0.3969 -2.0138
 4310TIP3    H234422   5.135   0.440  15.246  2.1769 -1.7914 -0.6168
 4311TIP3   OH234423   5.859   1.140   5.500 -0.0341  0.2028  0.2301
 4311TIP3    H134424   5.814   1.210   5.452 -0.6474 -0.0414  0.4420
 4311TIP3    H234425   5.789   1.093   5.545  0.4218 -0.2718  0.4512
 4312TIP3   OH234426   6.120   0.100   3.829  0.1209  0.0017  0.0291
 4312TIP3    H134427   6.083   0.181   3.862 -0.9789 -0.8598  1.0248
 4312TIP3    H234428   6.187   0.076   3.894  0.4005  0.0694 -0.2293
 4313TIP3   OH234429   1.318   0.013  15.038 -0.0212  0.3655 -0.0201
 4313TIP3    H134430   1.297   0.106  15.036 -2.0937 -0.0528 -0.3788
 4313TIP3    H234431   1.330  -0.011  14.946 -1.1990 -0.0277 -0.0939
 4314TIP3   OH234432   1.684   5.993   4.318 -0.2464  0.6338  0.0450
 4314TIP3    H134433   1.660   6.067   4.373 -1.0861 -0.8499  1.7716
 4314TIP3    H234434   1.605   5.971   4.270  0.4474  1.8386 -1.7564
 4315TIP3   OH234435   3.067   4.893   5.062  0.5754  0.4901 -0.1532
 4315TIP3    H134436   3.146   4.853   5.026  0.6397  1.7343 -1.5115
 4315TIP3    H234437   3.014   4.914   4.985 -0.9837 -0.0888  0.7222
 4316TIP3   OH234438   0.058   1.201   5.022 -0.1330  0.7693 -0.7668
 4316TIP3    H134439  -0.027   1.199   4.977 -0.9553  0.8690  0.6933
 4316TIP3    H234440   0.038   1.170   5.110  1.6358 -0.5913 -0.8000
 4317TIP3   OH234441   3.632   6.298   4.515 -0.2623  0.5820 -0.3879
 4317TIP3    H134442   3.683   6.267   4.440  1.2654  1.9610  0.0207
 4317TIP3    H234443   3.645   6.393   4.516 -1.0662  0.7042  1.0368
 4318TIP3   OH234444   2.207   0.200   3.927 -0.4837 -0.1187  0.2700
 4318TIP3    H134445   2.121   0.209   3.969 -1.2556 -1.1034 -1.0005
 4318TIP3    H234446   2.238   0.114   3.953  0.0126  0.1286  0.5147
 4319TIP3   OH234447   2.164   0.331   5.084 -0.0636  0.1178  0.3390
 4319TIP3    H134448   2.204   0.249   5.113  0.1789  0.3912  0.7928
 4319TIP3    H234449   2.117   0.308   5.003  1.9944  0.0392 -0.8955
 4320TIP3   OH234450   6.430   5.492   5.759  0.0060 -0.0904 -0.2812
 4320TIP3    H134451   6.380   5.554   5.707  1.0338 -0.2042 -1.4700
 4320TIP3    H234452   6.364   5.440   5.805 -0.8786  1.4580  0.2730
 4321TIP3   OH234453   2.643   6.691   2.816 -0.3732  0.0935 -0.3179
 4321TIP3    H134454   2.608   6.752   2.751 -0.4336  0.9500  0.4992
 4321TIP3    H234455   2.565   6.651   2.855 -0.3452 -0.1627 -0.5187
 4322TIP3   OH234456   2.384   0.429   2.493  0.3351 -0.2664 -0.1007
 4322TIP3    H134457   2.439   0.503   2.521  1.0812 -0.4892 -0.9246
 4322TIP3    H234458   2.362   0.450   2.402 -0.4025 -0.5085  0.0187
 4323TIP3   OH234459   3.399   2.408   2.170  0.4001 -0.1138  0.1327
 4323TIP3    H134460   3.482   2.393   2.214 -0.1653 -1.2050  0.8565
 4323TIP3    H234461   3.423   2.430   2.080  1.4636 -0.7243  0.2587
 4324TIP3   OH234462   3.829   0.389  11.592 -0.8911 -0.4883 -0.2427
 4324TIP3    H134463   3.772   0.342  11.532 -2.0918 -1.2942  1.4638
 4324TIP3    H234464   3.863   0.323  11.652  1.5082  0.0481 -0.8990
 4325TIP3   OH234465   4.313   3.949   1.164  0.7916  0.2596 -0.0449
 4325TIP3    H134466   4.306   3.968   1.257  0.9448 -0.0232  0.0226
 4325TIP3    H234467   4.263   3.869   1.151 -2.2341  2.0919 -0.8004
 4326TIP3   OH234468   5.741   0.232   1.567  0.2195 -0.1968 -0.5339
 4326TIP3    H134469   5.729   0.272   1.481  0.4158 -0.1434 -0.5376
 4326TIP3    H234470   5.659   0.248   1.613 -0.0940 -0.6967 -0.9006
 4327TIP3   OH234471   0.763   5.002  15.156  0.1220 -0.0938  0.0680
 4327TIP3    H134472   0.690   4.940  15.160 -1.8212  2.0536 -0.0131
 4327TIP3    H234473   0.758   5.038  15.067  0.9429  0.4730  0.2466
 4328TIP3   OH234474   3.555   1.537   4.063 -0.1170  0.2995  0.3949
 4328TIP3    H134475   3.586   1.488   4.139 -1.8647 -0.8836  0.3918
 4328TIP3    H234476   3.486   1.483   4.025 -0.1319  1.4383 -1.3300
 4329TIP3   OH234477   1.191   6.599  15.385  0.1095  0.3204  0.5375
 4329TIP3    H134478   1.252   6.671  15.405  0.6753  0.1189 -0.4316
 4329TIP3    H234479   1.164   6.567  15.471  1.7194  0.1178  0.9980
 4330TIP3   OH234480   3.330   0.212  14.431  0.2932 -0.7770  0.5452
 4330TIP3    H134481   3.418   0.174  14.428 -0.0420 -1.5604  0.5380
 4330TIP3    H234482   3.309   0.230  14.339  0.7308  0.0959  0.6063
 4331TIP3   OH234483   0.754   3.126  15.184  0.1515 -0.4659 -0.0536
 4331TIP3    H134484   0.665   3.092  15.173 -0.1921 -0.4430  2.1923
 4331TIP3    H234485   0.763   3.191  15.114 -1.9961  0.2701  0.2733
 4332TIP3   OH234486   4.133   1.160  12.148  0.2687 -0.0846 -0.3180
 4332TIP3    H134487   4.079   1.092  12.106 -1.5581  1.1881 -0.1509
 4332TIP3    H234488   4.071   1.229  12.171  1.7397  0.7331  1.4423
 4333TIP3   OH234489   0.319   0.076   0.616  0.1221  0.0590 -0.0237
 4333TIP3    H134490   0.380   0.061   0.544  1.1507  0.5703  0.7170
 4333TIP3    H234491   0.336   0.167   0.642 -1.0008  0.2284  0.1637
 4334TIP3   OH234492   3.903   3.067   3.231  0.4461 -0.1531  0.1498
 4334TIP3    H134493   3.969   3.072   3.162  2.2975 -1.6125  1.6859
 4334TIP3    H234494   3.865   2.979   3.222  0.2720 -0.1309  0.6181
 4335TIP3   OH234495   2.331   2.885   2.078  0.5709 -0.3492  0.1580
 4335TIP3    H134496   2.339   2.806   2.025  0.3077 -0.2174 -0.0793
 4335TIP3    H234497   2.250   2.873   2.128 -0.1285  0.3050 -0.7846
 4336TIP3   OH234498   2.416   0.832   1.276  0.3116  0.1555 -0.2222
 4336TIP3    H134499   2.337   0.861   1.232 -0.4073 -0.3933  0.6527
 4336TIP3    H234500   2.483   0.895   1.251 -0.5707  1.0267 -0.4299
 4337TIP3   OH234501   0.434   5.839  11.832  0.6190 -0.2428 -0.3147
 4337TIP3    H134502   0.518   5.885  11.834 -0.5171  1.9302  1.4088
 4337TIP3    H234503   0.392   5.869  11.752  0.2499  1.0936  0.3632
 4338TIP3   OH234504   2.680   0.012   6.182 -0.3928 -0.0409 -0.2479
 4338TIP3    H134505   2.681   0.080   6.115 -2.3821 -0.2559 -0.5779
 4338TIP3    H234506   2.622   0.047   6.251  0.4416 -0.4333  0.6803
 4339TIP3   OH234507   2.052   6.207  13.741  0.2334  0.2293  0.1467
 4339TIP3    H134508   1.963   6.212  13.776 -0.3666  1.5125 -1.4304
 4339TIP3    H234509   2.039   6.199  13.646  1.7828  1.9461 -0.2511
 4340TIP3   OH234510   6.441   4.544  16.273  0.1829 -0.5234 -0.2286
 4340TIP3    H134511   6.400   4.630  16.285 -0.0703 -0.7206  0.3529
 4340TIP3    H234512   6.511   4.559  16.209  1.0107  0.3835  0.8617
 4341TIP3   OH234513   0.693   3.561  16.438  0.5744 -0.1188 -0.4063
 4341TIP3    H134514   0.767   3.616  16.413  0.6050  0.5141  0.9765
 4341TIP3    H234515   0.618   3.620  16.438  0.5559 -0.1170  0.8184
 4342TIP3   OH234516   0.156   2.527  10.893  0.4804  0.3725  0.4174
 4342TIP3    H134517   0.074   2.487  10.921  0.5707  0.5829  1.0051
 4342TIP3    H234518   0.151   2.618  10.924 -0.2330  1.2069 -1.9188
 4343TIP3   OH234519   2.949   1.203  14.177 -0.2194  0.4978  0.5489
 4343TIP3    H134520   3.032   1.164  14.205  0.6251  2.4487  0.9207
 4343TIP3    H234521   2.927   1.156  14.096  1.7992  0.6171 -0.1242
 4344TIP3   OH234522   0.843   0.420  11.808  0.5258  0.0868  0.3690
 4344TIP3    H134523   0.774   0.480  11.837  2.2424  2.5224 -0.2802
 4344TIP3    H234524   0.913   0.477  11.776  2.4997 -2.2799  0.1453
 4345TIP3   OH234525   3.770   6.741  14.444 -0.2879 -0.1189 -0.3411
 4345TIP3    H134526   3.864   6.756  14.434 -0.4005  0.0366 -1.2033
 4345TIP3    H234527   3.763   6.651  14.476  0.2159  0.3521  1.1731
 4346TIP3   OH234528   4.603   2.184   5.094 -0.7207  0.4622  0.5375
 4346TIP3    H134529   4.687   2.185   5.048 -0.3133  0.6468  1.2601
 4346TIP3    H234530   4.561   2.266   5.069  0.3810  1.5485  2.0331
 4347TIP3   OH234531   0.571   2.382   1.998 -0.0615 -0.3377 -0.0557
 4347TIP3    H134532   0.646   2.377   2.057  0.3642 -0.7062 -0.6255
 4347TIP3    H234533   0.538   2.292   1.993 -0.1795 -0.2819 -0.2811
 4348TIP3   OH234534   0.434   3.796  15.947 -0.1875  0.2479  0.1226
 4348TIP3    H134535   0.437   3.715  15.895 -1.2793  0.4337 -0.2724
 4348TIP3    H234536   0.364   3.847  15.906  0.5539  1.4460  0.3103
 4349TIP3   OH234537   0.050   6.622   2.054 -0.0615 -0.7356  0.2504
 4349TIP3    H134538   0.046   6.611   1.958 -1.3637  1.1863  0.0450
 4349TIP3    H234539   0.136   6.659   2.070  0.6391 -2.1586 -0.0078
 4350TIP3   OH234540   6.149   0.179  14.696  0.4509  0.3441 -0.0107
 4350TIP3    H134541   6.075   0.177  14.636  0.0207  2.3694  0.3594
 4350TIP3    H234542   6.203   0.252  14.664  1.3881 -0.0047  0.7323
 4351TIP3   OH234543   1.414   3.519  16.166  0.3880 -0.4401  0.0089
 4351TIP3    H134544   1.390   3.520  16.073  0.2773 -1.4225  0.0256
 4351TIP3    H234545   1.493   3.572  16.171  0.7817 -0.9487 -0.7520
 4352TIP3   OH234546   4.736   0.335  11.081 -0.2444  0.6172 -0.3620
 4352TIP3    H134547   4.708   0.249  11.048 -0.6055  1.0112 -1.1002
 4352TIP3    H234548   4.689   0.345  11.163 -2.2304  1.2048 -1.4994
 4353TIP3   OH234549   3.967   5.079   2.765 -0.2295 -0.0720 -0.4903
 4353TIP3    H134550   4.061   5.077   2.747 -0.3629  0.1242 -1.2722
 4353TIP3    H234551   3.928   5.035   2.689 -0.7470 -0.4281 -0.0222
 4354TIP3   OH234552   2.237   5.805   6.571 -0.7179 -0.1337 -0.2643
 4354TIP3    H134553   2.142   5.805   6.559 -0.5879 -0.1447 -1.4900
 4354TIP3    H234554   2.253   5.737   6.636 -1.5041 -0.6599 -0.6041
 4355TIP3   OH234555   2.271   6.733   3.949 -0.5711 -0.3652 -0.5729
 4355TIP3    H134556   2.295   6.644   3.923  2.0906  0.1187 -0.0660
 4355TIP3    H234557   2.218   6.765   3.876  2.2773 -0.8465 -3.1050
 4356TIP3   OH234558   1.877   5.211  13.504  0.6299 -0.0654 -0.8344
 4356TIP3    H134559   1.922   5.198  13.420  0.0568 -1.7108 -0.9136
 4356TIP3    H234560   1.944   5.190  13.570  0.5410 -0.6244 -0.9186
 4357TIP3   OH234561   0.303   4.258  11.717 -0.9487  0.3918 -0.1094
 4357TIP3    H134562   0.347   4.230  11.637 -1.1149  1.0801 -0.4466
 4357TIP3    H234563   0.321   4.352  11.723  2.9401 -0.2681  3.0669
 4358TIP3   OH234564   5.125   2.538   2.127 -0.4731  0.5058 -0.3574
 4358TIP3    H134565   5.087   2.457   2.094 -0.4150  0.5699 -0.5894
 4358TIP3    H234566   5.200   2.554   2.069 -1.0590  1.2405 -0.9296
 4359TIP3   OH234567   2.322   3.025  15.963  0.3695 -0.4610 -0.6075
 4359TIP3    H134568   2.239   3.069  15.984  0.2606 -0.4031 -1.1517
 4359TIP3    H234569   2.383   3.096  15.946  0.8244 -0.4729  0.8277
 4360TIP3   OH234570   2.594   2.697   3.980  0.2258  0.0376 -0.2712
 4360TIP3    H134571   2.664   2.649   4.025  0.3789  0.9127  0.4627
 4360TIP3    H234572   2.554   2.750   4.048 -0.5424  0.2548 -0.8809
 4361TIP3   OH234573   4.252   2.487  15.961 -0.1387 -0.7426  0.0581
 4361TIP3    H134574   4.282   2.525  15.879  1.2196  1.6132  1.5473
 4361TIP3    H234575   4.156   2.490  15.955 -0.0614  0.8936 -0.8106
 4362TIP3   OH234576   6.561   0.231   5.431 -0.1978 -0.6608 -0.9401
 4362TIP3    H134577   6.593   0.210   5.343  0.0674  0.8791 -1.2484
 4362TIP3    H234578   6.475   0.191   5.436 -0.0025 -1.1909 -1.7240
 4363TIP3   OH234579   1.568   3.389  11.846  0.1946 -0.3983 -0.3560
 4363TIP3    H134580   1.626   3.346  11.908 -0.2468 -0.5079 -0.0197
 4363TIP3    H234581   1.481   3.381  11.884 -0.0172 -0.0436 -0.7527
 4364TIP3   OH234582   6.167   4.199   3.412  0.4164 -0.1720  0.6593
 4364TIP3    H134583   6.215   4.213   3.494 -1.7225  0.0678  1.9327
 4364TIP3    H234584   6.138   4.286   3.385  2.4256 -0.0049 -1.3017
 4365TIP3   OH234585   5.566   3.719   2.845  0.0849 -0.2184  0.4385
 4365TIP3    H134586   5.544   3.811   2.857  0.1582  0.1827 -1.9444
 4365TIP3    H234587   5.488   3.672   2.874 -0.3613  0.6571  0.6968
 4366TIP3   OH234588   1.875   6.728  11.536 -0.5831 -0.3635  0.3066
 4366TIP3    H134589   1.884   6.634  11.556 -0.2748  0.0305  2.1766
 4366TIP3    H234590   1.795   6.754  11.580  0.5976  0.7496  1.9095
 4367TIP3   OH234591   0.665   4.239  15.485 -0.3922 -0.0344  0.2267
 4367TIP3    H134592   0.607   4.189  15.542 -3.0235  1.3358 -1.0771
 4367TIP3    H234593   0.701   4.307  15.541 -1.5349  0.2188  0.6761
 4368TIP3   OH234594   3.589   3.567  12.970 -0.1580  0.6953 -0.3386
 4368TIP3    H134595   3.538   3.490  12.995 -0.4571  1.0261  0.0672
 4368TIP3    H234596   3.664   3.531  12.922 -1.6294  0.2753 -2.4874
 4369TIP3   OH234597   4.581   4.918   4.114  0.2662 -0.7189  0.2616
 4369TIP3    H134598   4.509   4.869   4.075  0.0262 -0.8446  0.8476
 4369TIP3    H234599   4.654   4.906   4.054 -0.4553  0.2134 -0.8515
 4370TIP3   OH234600   3.101   2.915  11.792  0.6773 -0.8557  0.0225
 4370TIP3    H134601   3.172   2.979  11.780 -2.1168  2.6851  0.5746
 4370TIP3    H234602   3.046   2.926  11.715 -0.5684 -1.6792  0.7752
 4371TIP3   OH234603   5.548   2.453   1.697 -0.7404 -0.1798  0.2058
 4371TIP3    H134604   5.566   2.470   1.605 -0.4204 -1.9522 -0.0920
 4371TIP3    H234605   5.635   2.450   1.739 -0.9270  4.2474  1.3695
 4372TIP3   OH234606   6.601   5.849   2.274  0.3667  0.0920 -0.7451
 4372TIP3    H134607   6.597   5.852   2.178 -0.9208 -1.7286 -0.7894
 4372TIP3    H234608   6.543   5.778   2.298 -0.5098  1.4863  1.5097
 4373TIP3   OH234609   0.991   6.603   3.131 -0.3287  0.4751  0.3239
 4373TIP3    H134610   0.930   6.561   3.192 -0.7743 -2.1030 -1.7360
 4373TIP3    H234611   0.990   6.695   3.157 -3.0207  0.0671  2.1121
 4374TIP3   OH234612   4.366   4.267   4.490  0.1254  0.9493  0.1903
 4374TIP3    H134613   4.411   4.191   4.452 -0.0468  0.4931  0.8660
 4374TIP3    H234614   4.278   4.263   4.454  0.0450  0.6808  0.4097
 4375TIP3   OH234615   3.338   5.262   3.244  0.1243  0.0883 -0.2500
 4375TIP3    H134616   3.272   5.209   3.199  0.2612 -1.1051  0.9145
 4375TIP3    H234617   3.401   5.199   3.278  1.0004  1.0984  0.0574
 4376TIP3   OH234618   4.537   6.324  14.734 -0.0071  0.3328  0.0962
 4376TIP3    H134619   4.541   6.300  14.827  2.7667  0.5714  0.1271
 4376TIP3    H234620   4.581   6.252  14.690 -1.0029  0.3896 -1.0161
 4377TIP3   OH234621   3.878   2.819  14.922  0.7528  0.3733  0.3416
 4377TIP3    H134622   3.847   2.795  14.834 -0.7678  0.9635  0.6764
 4377TIP3    H234623   3.852   2.746  14.978  3.6766 -1.0632  0.0197
 4378TIP3   OH234624   1.448   1.235  15.067 -0.2787  0.2514  0.0598
 4378TIP3    H134625   1.521   1.276  15.020  0.9905 -0.7214  1.1055
 4378TIP3    H234626   1.468   1.247  15.159 -1.4986  0.0342  0.3705
 4379TIP3   OH234627   0.735   6.361   4.701 -0.1051  0.2679 -0.6302
 4379TIP3    H134628   0.781   6.282   4.675  0.1244  0.4627 -0.8313
 4379TIP3    H234629   0.718   6.351   4.794 -0.5169 -0.2364 -0.7577
 4380TIP3   OH234630   0.027   2.712   0.427  0.2698  0.1701  0.1792
 4380TIP3    H134631   0.095   2.777   0.411 -1.2316  1.7587 -0.0662
 4380TIP3    H234632   0.072   2.628   0.419  2.1539  1.1469 -0.1042
 4381TIP3   OH234633   6.242   1.499  15.137  0.1159  0.4009  0.1461
 4381TIP3    H134634   6.259   1.538  15.051 -2.1332 -0.7808 -0.9217
 4381TIP3    H234635   6.322   1.451  15.158  1.1215  1.6157 -0.7434
 4382TIP3   OH234636   4.994   3.291   0.216 -0.4343 -0.0053 -0.4432
 4382TIP3    H134637   4.934   3.243   0.160 -1.8707 -0.3964  1.3463
 4382TIP3    H234638   4.941   3.361   0.255  0.1799 -0.4517  1.3033
 4383TIP3   OH234639   5.345   3.808   4.120 -0.4590  0.2868  0.2968
 4383TIP3    H134640   5.314   3.827   4.209 -2.0354  0.9346 -0.3510
 4383TIP3    H234641   5.430   3.765   4.133  0.9860  3.3163  2.0326
 4384TIP3   OH234642   4.524   3.449  15.888  0.2069 -0.1969  0.1633
 4384TIP3    H134643   4.451   3.466  15.829  0.0363  2.0722  0.9298
 4384TIP3    H234644   4.485   3.449  15.975  0.6073 -2.5754  0.4152
 4385TIP3   OH234645   6.528   0.579  11.837 -0.3439  0.0317 -0.2804
 4385TIP3    H134646   6.474   0.589  11.758  1.6392  2.7624 -1.4629
 4385TIP3    H234647   6.533   0.667  11.874  3.0113 -0.0876 -0.1118
 4386TIP3   OH234648   0.844   5.943   5.642  0.4022 -0.2268  0.4830
 4386TIP3    H134649   0.868   5.957   5.551  1.1772 -0.6711  0.6079
 4386TIP3    H234650   0.810   5.854   5.645 -1.3179  0.3911  0.3126
 4387TIP3   OH234651   3.126   1.245  12.110  0.3546  0.2217 -0.4846
 4387TIP3    H134652   3.145   1.259  12.018 -0.0973  0.7282 -0.5018
 4387TIP3    H234653   3.155   1.325  12.154  0.8320 -0.1305 -0.1482
 4388TIP3   OH234654   1.235   6.580   4.039  0.3057 -0.5721 -0.4580
 4388TIP3    H134655   1.153   6.592   4.087 -0.3521 -2.3486 -1.0506
 4388TIP3    H234656   1.280   6.510   4.086  1.1788 -0.0947 -0.5560
 4389TIP3   OH234657   2.414   0.907   3.556 -0.1813 -0.3628  0.5354
 4389TIP3    H134658   2.414   0.824   3.507 -2.6626  1.0198 -2.1321
 4389TIP3    H234659   2.480   0.960   3.512  0.4864 -0.4715  1.3971
 4390TIP3   OH234660   2.776   4.199   3.497  0.4128  0.1334  0.5537
 4390TIP3    H134661   2.814   4.260   3.433  1.8453 -0.2557  0.9862
 4390TIP3    H234662   2.831   4.209   3.575 -0.8804  0.1012  1.5074
 4391TIP3   OH234663   0.176   6.482  16.910 -0.0878  0.4393  0.3792
 4391TIP3    H134664   0.129   6.449  16.986 -0.6058  1.0836  0.3518
 4391TIP3    H234665   0.223   6.406  16.875 -2.3533 -0.6506 -0.5288
 4392TIP3   OH234666   1.551   3.592   4.849 -0.1232 -0.1105  0.0939
 4392TIP3    H134667   1.565   3.682   4.822 -0.1087  0.2103  1.1585
 4392TIP3    H234668   1.594   3.585   4.934 -1.8381 -0.5614  0.9654
 4393TIP3   OH234669   0.228   3.255   5.868 -0.1869 -0.3508 -0.0759
 4393TIP3    H134670   0.301   3.317   5.867 -1.8020  1.7034 -1.4205
 4393TIP3    H234671   0.245   3.196   5.795  1.3192 -1.5450  1.1553
 4394TIP3   OH234672   3.391   3.783  16.278  0.5415 -0.2145 -0.3220
 4394TIP3    H134673   3.371   3.857  16.220  0.0795 -0.3733 -0.3765
 4394TIP3    H234674   3.398   3.708  16.219 -0.1154 -0.4100 -0.1657
 4395TIP3   OH234675   3.389   3.900   6.341  0.0879  0.1285  0.0803
 4395TIP3    H134676   3.295   3.900   6.324 -0.0238 -0.1174  0.6566
 4395TIP3    H234677   3.417   3.811   6.318 -0.1399 -0.3389  1.5109
 4396TIP3   OH234678   4.995   2.048   3.819  0.4046 -0.6470  0.0798
 4396TIP3    H134679   5.000   2.056   3.914  0.2504 -0.3445  0.0635
 4396TIP3    H234680   5.038   2.126   3.786  2.0060 -1.5815 -0.1201
 4397TIP3   OH234681   2.227   1.226  12.406 -0.3916 -0.5234  0.2020
 4397TIP3    H134682   2.212   1.275  12.487 -1.6597 -1.6492  0.7062
 4397TIP3    H234683   2.163   1.261  12.345  0.1304 -0.1180 -0.1190
 4398TIP3   OH234684   3.083   2.224   3.602  0.4517 -0.0238  0.4906
 4398TIP3    H134685   3.005   2.252   3.650 -2.3676 -1.5616 -2.7388
 4398TIP3    H234686   3.095   2.132   3.628  1.2677  0.2333  1.0390
 4399TIP3   OH234687   6.436   1.284   4.021 -0.3656  0.3290 -0.1010
 4399TIP3    H134688   6.340   1.278   4.026 -0.2360 -3.4653  1.6232
 4399TIP3    H234689   6.464   1.290   4.112  1.0627  0.2363 -0.5098
 4400TIP3   OH234690   2.623   1.650   1.249  0.3388 -0.0261 -0.2529
 4400TIP3    H134691   2.633   1.620   1.158 -1.4738 -2.5515  0.2635
 4400TIP3    H234692   2.529   1.659   1.261  0.5384  0.1336  1.4030
 4401TIP3   OH234693   2.448   5.348  17.053  0.0795 -0.2161 -0.7933
 4401TIP3    H134694   2.528   5.297  17.040  0.8111  0.1650  1.6567
 4401TIP3    H234695   2.449   5.414  16.983  1.4388 -0.7823 -1.3296
 4402TIP3   OH234696   4.631   0.667   5.446  0.4685 -0.5167  0.7518
 4402TIP3    H134697   4.579   0.592   5.475  0.0742 -0.0363  1.3096
 4402TIP3    H234698   4.711   0.663   5.500  0.0733 -0.0613  1.3879
 4403TIP3   OH234699   5.081   5.230   0.749 -0.1549  0.2861  0.2077
 4403TIP3    H134700   5.062   5.138   0.764  0.7081  0.0226 -0.2548
 4403TIP3    H234701   5.060   5.245   0.657 -1.7585  0.9470  0.6497
 4404TIP3   OH234702   0.698   0.799   6.117 -0.3395 -0.0646 -0.0918
 4404TIP3    H134703   0.775   0.848   6.088 -1.0892  0.1084 -1.9637
 4404TIP3    H234704   0.704   0.799   6.212  1.5481  0.6114 -0.1565
 4405TIP3   OH234705   4.189   6.022   6.596  0.0158  0.0828  0.9424
 4405TIP3    H134706   4.148   5.961   6.535 -1.7613  1.9075  0.2032
 4405TIP3    H234707   4.181   5.978   6.681  0.1558 -1.3587  0.2462
 4406TIP3   OH234708   6.691   6.301  12.715  0.0773  0.2858 -0.1419
 4406TIP3    H134709   6.645   6.220  12.693  1.2468 -0.2052 -0.8895
 4406TIP3    H234710   6.637   6.342  12.782 -0.8433 -0.8182 -0.1763
 4407TIP3   OH234711   1.614   5.448  14.103 -0.0045 -0.1374 -0.5105
 4407TIP3    H134712   1.673   5.508  14.058  0.6380  1.5422  2.3468
 4407TIP3    H234713   1.661   5.421  14.181 -2.2827 -0.1703  0.9611
 4408TIP3   OH234714   0.336   1.259   1.442  0.3045 -0.4458  0.1562
 4408TIP3    H134715   0.356   1.279   1.350  0.6353 -1.6209 -0.0487
 4408TIP3    H234716   0.282   1.180   1.438  1.0582 -1.0262  0.9981
 4409TIP3   OH234717   5.610   1.837  11.720  0.3524  0.0194  0.2617
 4409TIP3    H134718   5.597   1.767  11.656  0.1382  0.0509  0.2722
 4409TIP3    H234719   5.547   1.905  11.695  2.4141  1.4275 -1.4927
 4410TIP3   OH234720   4.034   2.406  13.836  0.3515  0.1870 -0.0823
 4410TIP3    H134721   4.005   2.465  13.906 -0.0539 -0.3471  0.2085
 4410TIP3    H234722   4.124   2.385  13.859  0.1610 -0.1341  0.3905
 4411TIP3   OH234723   2.661   1.600  12.610 -0.8920 -0.4841  0.1823
 4411TIP3    H134724   2.700   1.634  12.690 -2.3305 -0.5803  0.9628
 4411TIP3    H234725   2.682   1.665  12.543 -0.2427 -0.0650  0.7797
 4412TIP3   OH234726   2.322   0.420   4.600  0.1693  0.0842  0.3195
 4412TIP3    H134727   2.328   0.390   4.509  0.3024 -0.6006  0.5450
 4412TIP3    H234728   2.378   0.497   4.604  2.7181 -1.6772  0.5357
 4413TIP3   OH234729   1.711   5.088   0.774  0.2684  0.0825  0.0535
 4413TIP3    H134730   1.705   5.092   0.869  1.5918 -2.7682  0.3659
 4413TIP3    H234731   1.664   5.008   0.750  2.7783 -1.1365 -1.2488
 4414TIP3   OH234732   0.004   1.008   5.866  0.4726  0.5106 -0.0829
 4414TIP3    H134733   0.084   1.013   5.814 -0.9025  0.7194 -2.2951
 4414TIP3    H234734  -0.035   1.095   5.859 -0.2228  0.2539  0.4980
 4415TIP3   OH234735   1.608   6.670   4.416  0.1239  0.5069 -0.0835
 4415TIP3    H134736   1.614   6.578   4.391 -0.6250  0.6079 -0.6688
 4415TIP3    H234737   1.559   6.670   4.498  0.1772  0.3848 -0.0516
 4416TIP3   OH234738   1.824   3.742   5.853  0.0853 -0.3553 -0.2507
 4416TIP3    H134739   1.739   3.748   5.897  1.1036 -2.0433  2.1442
 4416TIP3    H234740   1.816   3.667   5.795 -0.7519  0.9295 -1.8935
 4417TIP3   OH234741   5.440   0.270   6.702  0.2040  0.4813  0.0009
 4417TIP3    H134742   5.473   0.181   6.689 -0.0604 -0.0870  2.6070
 4417TIP3    H234743   5.356   0.257   6.745 -0.7156  2.0146 -1.2408
 4418TIP3   OH234744   4.770   0.339   0.130 -0.4207 -0.2562 -0.1606
 4418TIP3    H134745   4.845   0.279   0.134 -0.9348 -0.8535  1.4003
 4418TIP3    H234746   4.720   0.309   0.054  0.0630 -0.9191 -0.2275
 4419TIP3   OH234747   5.259   6.708   3.339 -0.0644  0.4619  0.4340
 4419TIP3    H134748   5.329   6.645   3.352 -0.7196 -0.3278  0.2535
 4419TIP3    H234749   5.301   6.794   3.346  1.3964  0.0482 -2.1117
 4420TIP3   OH234750   6.418   5.493  13.563 -0.4565 -0.1889  0.3150
 4420TIP3    H134751   6.478   5.473  13.635  1.3348  0.3536 -0.9462
 4420TIP3    H234752   6.394   5.584  13.577  0.8388  0.2840 -0.3733
 4421TIP3   OH234753   4.231   1.498  15.395 -0.4181 -0.1131  0.0204
 4421TIP3    H134754   4.257   1.432  15.331  0.4261  1.0265 -0.8337
 4421TIP3    H234755   4.147   1.466  15.429 -1.1504 -0.4837 -2.0314
 4422TIP3   OH234756   2.037   2.448  11.204 -0.4992  0.1472  0.0010
 4422TIP3    H134757   1.982   2.369  11.200  0.0659 -0.2471 -0.1319
 4422TIP3    H234758   1.975   2.520  11.212 -1.0206 -0.3247  0.2950
 4423TIP3   OH234759   1.680   4.900  14.875 -0.3058  0.2357 -0.7218
 4423TIP3    H134760   1.686   4.946  14.959 -0.3045 -1.1375  0.0475
 4423TIP3    H234761   1.757   4.931  14.826  1.6049 -1.4077  1.0562
 4424TIP3   OH234762   4.339   5.700  16.529  0.5609 -0.2270  0.2372
 4424TIP3    H134763   4.280   5.765  16.492  1.5192  0.7674  0.4089
 4424TIP3    H234764   4.286   5.652  16.593  0.7494  2.8718  2.9203
 4425TIP3   OH234765   0.298   6.266  11.511 -0.3620 -0.0844  0.0153
 4425TIP3    H134766   0.211   6.226  11.513  0.8470 -2.9479  2.1078
 4425TIP3    H234767   0.337   6.236  11.429 -1.3999  1.5344 -1.1242
 4426TIP3   OH234768   0.389   1.397  15.221 -0.3857  0.2999  0.4363
 4426TIP3    H134769   0.433   1.314  15.238 -0.5025  0.2145  0.3214
 4426TIP3    H234770   0.428   1.458  15.283 -0.4988  0.0929  0.7133
 4427TIP3   OH234771   2.327   1.943   5.958  0.4739  0.2430  0.1389
 4427TIP3    H134772   2.325   1.895   6.041 -1.1270  0.6546  0.3713
 4427TIP3    H234773   2.411   1.988   5.959  0.0458  1.1244  2.0728
 4428TIP3   OH234774   4.812   6.762  13.246  0.1747 -0.6334  0.2383
 4428TIP3    H134775   4.824   6.675  13.208  3.2502 -0.6217  0.9613
 4428TIP3    H234776   4.889   6.776  13.300  0.3562  2.9741 -0.6726
 4429TIP3   OH234777   0.957   2.417  15.586  0.3458  0.3757 -0.5777
 4429TIP3    H134778   0.944   2.423  15.491 -0.2292 -0.5389 -0.5689
 4429TIP3    H234779   1.036   2.364  15.595  0.9056  1.1968 -0.5465
 4430TIP3   OH234780   3.318   3.191  13.321  0.3016  0.0617 -0.1922
 4430TIP3    H134781   3.303   3.253  13.250  0.5675  0.4082  0.0442
 4430TIP3    H234782   3.272   3.112  13.295 -0.3541  0.4842 -0.3254
 4431TIP3   OH234783   3.860   6.373  17.047 -0.3882  0.0516 -0.0743
 4431TIP3    H134784   3.898   6.366  16.959 -0.6919  0.1070 -0.2090
 4431TIP3    H234785   3.887   6.459  17.078  1.4381 -0.7357  0.6986
 4432TIP3   OH234786   2.766   4.714  13.221 -0.4203  0.0147  0.0123
 4432TIP3    H134787   2.757   4.765  13.302 -1.2406 -0.0842 -0.0023
 4432TIP3    H234788   2.676   4.705  13.189 -0.4785 -2.5234  0.6905
 4433TIP3   OH234789   4.597   6.319  14.304  0.4250  0.0974  0.4462
 4433TIP3    H134790   4.594   6.376  14.381  0.4018  0.1912  0.3764
 4433TIP3    H234791   4.661   6.361  14.245 -0.4635  0.6924 -0.1118
 4434TIP3   OH234792   0.483   4.046  14.320 -0.2266 -0.0089  0.3592
 4434TIP3    H134793   0.407   4.087  14.362 -1.1739 -0.4006 -0.8879
 4434TIP3    H234794   0.462   3.952  14.320 -0.2642 -0.0242 -0.9525
 4435TIP3   OH234795   5.689   2.363  15.470 -0.6142 -0.5907 -0.2019
 4435TIP3    H134796   5.675   2.310  15.548  0.9474 -0.7031  0.0465
 4435TIP3    H234797   5.634   2.440  15.483  0.2393 -0.2150  1.4376
 4436TIP3   OH234798   3.915   6.409  14.632  0.3196 -0.4306 -0.6423
 4436TIP3    H134799   3.893   6.405  14.725  1.6472  0.9654 -0.2387
 4436TIP3    H234800   3.838   6.449  14.591  0.2496  0.1493  0.0540
 4437TIP3   OH234801   1.824   0.262   6.997 -0.1604  0.5032  0.0502
 4437TIP3    H134802   1.855   0.319   6.927 -0.1346  0.4027 -0.0198
 4437TIP3    H234803   1.810   0.321   7.071  3.5505  0.1658  1.2214
 4438TIP3   OH234804   1.010   1.391   4.601 -0.3529  0.2523  0.3696
 4438TIP3    H134805   1.086   1.412   4.656  0.4202  1.3959 -1.0650
 4438TIP3    H234806   1.017   1.451   4.527 -1.7148 -0.8133 -0.6668
 4439TIP3   OH234807   4.354   4.632  12.250 -0.4189  0.0742  0.1033
 4439TIP3    H134808   4.345   4.606  12.342  1.6879  0.7388  0.5500
 4439TIP3    H234809   4.359   4.728  12.253 -0.1082  0.0844 -0.6774
 4440TIP3   OH234810   1.027   4.508  16.333 -0.3528 -0.0890  0.0772
 4440TIP3    H134811   1.094   4.480  16.271  0.7514  2.2069  0.1242
 4440TIP3    H234812   1.054   4.595  16.360 -1.4583 -0.4985  2.8759
 4441TIP3   OH234813   0.341   2.381   2.271 -0.1521 -0.0562  0.2530
 4441TIP3    H134814   0.256   2.340   2.255  1.2264 -2.9241 -0.2171
 4441TIP3    H234815   0.367   2.416   2.186 -0.0701 -0.8257 -0.0482
 4442TIP3   OH234816   5.269   1.143   3.963  0.4581  0.0859 -0.5411
 4442TIP3    H134817   5.194   1.111   4.013 -0.0680  1.6554 -0.2719
 4442TIP3    H234818   5.338   1.155   4.028  0.5834 -0.2575 -0.6069
 4443TIP3   OH234819   3.800   0.379  14.000  0.5312 -0.4580  0.0760
 4443TIP3    H134820   3.805   0.375  13.904  2.8311 -0.1662  0.1183
 4443TIP3    H234821   3.835   0.295  14.029  1.6538  0.1726  0.6360
 4444TIP3   OH234822   2.925   2.851  14.122 -0.6465  0.8126  0.1772
 4444TIP3    H134823   2.934   2.902  14.041 -1.0577 -0.5195 -0.7318
 4444TIP3    H234824   3.010   2.808  14.132 -0.6643  0.8204  0.3608
 4445TIP3   OH234825   2.841   3.407   3.987 -0.0907  0.1405 -0.3275
 4445TIP3    H134826   2.790   3.470   4.038  2.8622 -0.3603  3.7139
 4445TIP3    H234827   2.916   3.458   3.955  0.4732 -0.5204 -0.0975
 4446TIP3   OH234828   1.731   3.393   4.291  0.0424  0.5517 -0.6612
 4446TIP3    H134829   1.768   3.335   4.224 -0.4369 -0.0294 -0.4323
 4446TIP3    H234830   1.806   3.441   4.324  0.5111 -0.1941 -0.6110
 4447TIP3   OH234831   6.115   3.764   1.737 -0.1343  0.5402 -0.2935
 4447TIP3    H134832   6.113   3.673   1.768 -1.6118  0.3803 -0.7558
 4447TIP3    H234833   6.085   3.759   1.646 -0.9308  1.5591 -0.1069
 4448TIP3   OH234834   1.451   0.359   4.633 -0.3632 -0.0523  0.4415
 4448TIP3    H134835   1.466   0.450   4.658 -0.9356  0.1234  0.1741
 4448TIP3    H234836   1.420   0.365   4.542 -1.3070 -0.4325  0.7263
 4449TIP3   OH234837   2.746   3.286  16.508 -0.1047  0.3738 -0.6940
 4449TIP3    H134838   2.762   3.284  16.602 -1.8886  1.6161 -0.3180
 4449TIP3    H234839   2.663   3.332  16.499 -1.7098 -2.6216 -2.6907
 4450TIP3   OH234840   1.771   1.806  11.109 -0.1495  0.0157  0.6240
 4450TIP3    H134841   1.740   1.894  11.131  0.1796  0.4121 -0.4127
 4450TIP3    H234842   1.784   1.762  11.193 -0.3446  0.9476  1.1477
 4451TIP3   OH234843   5.759   5.573  11.577 -0.0834 -0.4160 -0.3158
 4451TIP3    H134844   5.771   5.513  11.651 -0.1632 -0.2950 -0.2032
 4451TIP3    H234845   5.728   5.654  11.617  1.0554  0.0551 -0.3577
 4452TIP3   OH234846   2.148   4.227   5.480  0.3949  0.1032  0.0573
 4452TIP3    H134847   2.241   4.231   5.500 -0.0842  0.5810  2.6156
 4452TIP3    H234848   2.125   4.316   5.456  0.6180 -0.0611 -0.7936
 4453TIP3   OH234849   5.350   5.339  11.477  0.1995  0.7201  0.3373
 4453TIP3    H134850   5.292   5.263  11.474  1.0201  0.0406  1.0925
 4453TIP3    H234851   5.427   5.308  11.524  1.2445  1.5566 -0.7535
 4454TIP3   OH234852   2.928   5.075  16.872  0.5371 -0.2899 -0.4475
 4454TIP3    H134853   2.904   5.070  16.965 -0.0772  1.5379 -0.4682
 4454TIP3    H234854   3.007   5.022  16.865  1.2803  0.4709  1.3895
 4455TIP3   OH234855   5.750   3.869   4.080  0.1393  0.3678 -0.6441
 4455TIP3    H134856   5.699   3.905   4.152  0.2745  0.0828 -0.4041
 4455TIP3    H234857   5.689   3.812   4.033  0.0122  0.6628 -0.8387
 4456TIP3   OH234858   3.701   1.325   5.980  0.3247 -0.2036 -0.2465
 4456TIP3    H134859   3.689   1.387   6.053  0.7598  0.4393 -0.7188
 4456TIP3    H234860   3.612   1.308   5.949  0.1085 -0.6814  0.5834
 4457TIP3   OH234861   3.104   5.925   3.578 -0.4989  0.8035  0.3747
 4457TIP3    H134862   3.094   5.950   3.670  0.3481 -0.5570  0.8657
 4457TIP3    H234863   3.066   5.837   3.574  1.3070  0.0090 -0.1044
 4458TIP3   OH234864   1.392   2.537   2.389 -0.2578 -0.1473  0.4336
 4458TIP3    H134865   1.359   2.561   2.476 -0.1807 -0.6485  0.6029
 4458TIP3    H234866   1.348   2.455   2.368  0.2274 -0.3773  0.2880
 4459TIP3   OH234867   1.321   6.456  11.640 -0.4595  0.9005  0.4407
 4459TIP3    H134868   1.407   6.473  11.601 -1.0940  0.0986 -1.4185
 4459TIP3    H234869   1.264   6.524  11.604 -0.9941  0.3223  0.1689
 4460TIP3   OH234870   3.434   4.712   1.862  0.1050 -0.3345  0.1290
 4460TIP3    H134871   3.484   4.638   1.826  1.8516  0.5319  0.6405
 4460TIP3    H234872   3.413   4.765   1.785  0.3856 -0.4682 -0.0440
 4461TIP3   OH234873   5.216   6.480  17.107  0.1799  0.1547  0.1215
 4461TIP3    H134874   5.168   6.549  17.154  0.4589  0.2557  0.2612
 4461TIP3    H234875   5.166   6.467  17.026 -1.3265 -1.2784  1.2210
 4462TIP3   OH234876   0.008   5.444   2.777  0.2121 -0.0753 -0.5007
 4462TIP3    H134877   0.089   5.424   2.730  0.5901 -0.0831  0.1499
 4462TIP3    H234878   0.008   5.539   2.787  0.3004 -0.1055 -0.2131
 4463TIP3   OH234879   1.273   5.600  11.503  0.4618 -0.0210 -0.1589
 4463TIP3    H134880   1.178   5.603  11.491  0.4589 -1.4313 -0.5672
 4463TIP3    H234881   1.288   5.646  11.586 -0.6499 -0.4472  0.2939
 4464TIP3   OH234882   5.022   1.805  16.246 -0.2830 -0.0685 -0.9468
 4464TIP3    H134883   5.098   1.783  16.191  0.9232 -0.4068  0.7483
 4464TIP3    H234884   4.988   1.720  16.274 -2.6821 -0.0223 -3.3632
 4465TIP3   OH234885   4.403   0.829  16.531  0.2242  0.1553 -0.5146
 4465TIP3    H134886   4.404   0.899  16.465 -2.7680 -0.7855 -1.6821
 4465TIP3    H234887   4.455   0.759  16.492  1.5102  0.9135 -0.2291
 4466TIP3   OH234888   3.422   5.427   2.078 -0.3117 -0.5424  0.5857
 4466TIP3    H134889   3.434   5.453   2.170  0.2426 -1.7578  0.8824
 4466TIP3    H234890   3.511   5.406   2.048 -0.3903  0.4919 -0.4538
 4467TIP3   OH234891   5.353   3.464   5.149 -0.4570 -0.1457 -0.5935
 4467TIP3    H134892   5.416   3.535   5.132  0.9422 -1.3049 -0.4664
 4467TIP3    H234893   5.269   3.509   5.159  0.3696  1.4928 -0.5563
 4468TIP3   OH234894   6.645   3.827  11.596 -0.6353 -0.0368  0.2170
 4468TIP3    H134895   6.710   3.821  11.665  0.1850  0.1487 -0.5151
 4468TIP3    H234896   6.639   3.920  11.575  0.0692 -0.2030 -0.8147
 4469TIP3   OH234897   4.429   3.071   0.934 -0.7634  0.0437  0.1512
 4469TIP3    H134898   4.348   3.074   0.884  0.1931 -0.5686 -1.4967
 4469TIP3    H234899   4.408   3.017   1.010 -2.5130  1.7773  0.9945
 4470TIP3   OH234900   0.327   4.455  12.906  0.0756 -0.3490  0.3238
 4470TIP3    H134901   0.313   4.507  12.827 -2.2042 -0.1279  0.8070
 4470TIP3    H234902   0.279   4.502  12.975  1.0783 -1.1262  1.6106
 4471TIP3   OH234903   0.545   3.298  14.355  0.1171  0.1608 -0.4594
 4471TIP3    H134904   0.540   3.203  14.354  0.3087  0.1539 -0.8571
 4471TIP3    H234905   0.634   3.317  14.382 -0.0421  0.2345  0.0293
 4472TIP3   OH234906   6.559   6.540  16.389 -0.3445  0.4949 -0.5859
 4472TIP3    H134907   6.576   6.502  16.475  0.6331  2.8738  0.3773
 4472TIP3    H234908   6.626   6.608  16.380 -1.6258  1.6037 -2.3872
 4473TIP3   OH234909   5.496   3.590   4.359  0.2028  0.1265  0.2137
 4473TIP3    H134910   5.440   3.513   4.350  0.3047  0.1817 -1.0366
 4473TIP3    H234911   5.564   3.578   4.294  0.6656  0.9029  0.5442
 4474TIP3   OH234912   5.648   3.448  12.545 -0.3584  0.1416  0.7411
 4474TIP3    H134913   5.669   3.369  12.596  1.1157  0.7672  1.1639
 4474TIP3    H234914   5.618   3.511  12.611  0.5548  0.6195  0.7083
 4475TIP3   OH234915   0.382   2.519   2.494  0.2139  0.5064 -0.4787
 4475TIP3    H134916   0.343   2.477   2.417 -1.5605  1.0394  0.0998
 4475TIP3    H234917   0.394   2.610   2.467  1.7669  0.2172 -0.8817
 4476TIP3   OH234918   2.787   0.410  12.491 -0.0738 -0.1852  0.8728
 4476TIP3    H134919   2.724   0.359  12.441  1.5827 -1.3107 -0.1849
 4476TIP3    H234920   2.760   0.399  12.582 -1.0467 -1.1418  0.4883
 4477TIP3   OH234921   2.802   1.505   2.760 -0.1520  0.2460  0.4819
 4477TIP3    H134922   2.728   1.560   2.785 -0.9294 -1.0432  1.1712
 4477TIP3    H234923   2.765   1.440   2.700  0.6618  0.2655 -0.0548
 4478TIP3   OH234924   6.603   1.912  17.137 -0.5779 -0.2072  0.1456
 4478TIP3    H134925   6.630   1.981  17.197 -0.0608  0.4450 -0.8041
 4478TIP3    H234926   6.673   1.908  17.071 -2.1971  0.7200 -1.7356
 4479TIP3   OH234927   1.726   1.176   5.067  0.6065  0.5473  0.2790
 4479TIP3    H134928   1.780   1.108   5.026  0.3353  0.7489 -0.4276
 4479TIP3    H234929   1.667   1.128   5.126 -0.7193 -0.0382 -1.4305
 4480TIP3   OH234930   3.644   5.111   4.295  0.1617  0.0206 -0.4380
 4480TIP3    H134931   3.603   5.158   4.368  1.7962  1.3005 -0.3116
 4480TIP3    H234932   3.715   5.061   4.336  0.4282 -0.0725 -1.0096
 4481TIP3   OH234933   1.022   5.254  13.631  0.5169  0.4159 -0.2124
 4481TIP3    H134934   1.014   5.162  13.658  1.0654  0.5590  0.4678
 4481TIP3    H234935   1.043   5.301  13.712 -1.9486  1.4873 -0.1187
 4482TIP3   OH234936   1.277   5.528   1.567  0.1184 -0.0870 -0.3537
 4482TIP3    H134937   1.254   5.602   1.511 -0.6473  0.0409  0.1082
 4482TIP3    H234938   1.221   5.539   1.644 -1.0043 -1.8823 -0.8585
 4483TIP3   OH234939   1.179   5.255  16.379 -0.1173 -0.4640  0.3066
 4483TIP3    H134940   1.129   5.333  16.352 -0.4489 -0.6534  0.3666
 4483TIP3    H234941   1.239   5.288  16.447  0.6430 -0.0095 -0.5698
 4484TIP3   OH234942   1.299   0.895  12.834  0.8606  0.8524 -0.4825
 4484TIP3    H134943   1.225   0.957  12.839  0.6709  0.5604  0.7791
 4484TIP3    H234944   1.266   0.823  12.780  0.1680  0.6743  0.1559
 4485TIP3   OH234945   5.975   3.196  12.052  0.0453  0.3677 -0.6821
 4485TIP3    H134946   5.975   3.213  12.146  2.1470 -0.8931 -0.3818
 4485TIP3    H234947   5.892   3.151  12.036 -0.1928  0.2885  0.6488
 4486TIP3   OH234948   5.672   1.919  10.841 -0.0128 -0.1819 -0.2198
 4486TIP3    H134949   5.700   2.002  10.802 -1.4597  0.1444 -0.6113
 4486TIP3    H234950   5.669   1.858  10.768  3.3324 -1.3079  0.3885
 4487TIP3   OH234951   2.505   3.620   3.448  0.1840 -0.4727  0.1076
 4487TIP3    H134952   2.594   3.591   3.469  0.5069  0.6470  0.3456
 4487TIP3    H234953   2.448   3.562   3.500  0.6914 -2.0963 -1.0879
 4488TIP3   OH234954   1.085   4.134   3.342  0.6328 -0.0206  0.0537
 4488TIP3    H134955   1.023   4.149   3.413 -2.3050 -0.6417 -2.2136
 4488TIP3    H234956   1.066   4.202   3.278  0.2473 -1.8697 -1.9326
 4489TIP3   OH234957   4.859   2.385   3.632 -0.4759 -0.0389  0.8625
 4489TIP3    H134958   4.876   2.475   3.605 -1.2983 -0.2886 -0.6390
 4489TIP3    H234959   4.941   2.355   3.670  0.4036  0.7691 -0.3356
 4490TIP3   OH234960   0.100   0.189   0.162 -0.4175 -0.0956 -0.5969
 4490TIP3    H134961   0.024   0.242   0.140 -0.0371 -0.6359 -3.7359
 4490TIP3    H234962   0.161   0.202   0.089  0.0220 -4.1410 -1.2044
 4491TIP3   OH234963   4.595   3.189   2.710  0.0687  0.2381  0.1739
 4491TIP3    H134964   4.509   3.204   2.749  0.0440 -2.5344  1.3893
 4491TIP3    H234965   4.585   3.109   2.659  1.5180  0.8162 -1.1084
 4492TIP3   OH234966   5.754   1.808   5.038 -0.1280  0.2498 -0.8301
 4492TIP3    H134967   5.846   1.828   5.050  0.8409 -3.0624 -1.6812
 4492TIP3    H234968   5.725   1.868   4.969  0.9986  2.1359  0.2705
 4493TIP3   OH234969   4.083   4.373   5.406 -0.0910 -0.2240 -0.2267
 4493TIP3    H134970   4.104   4.446   5.348 -0.3938 -0.5834 -0.7991
 4493TIP3    H234971   3.995   4.393   5.437  0.7084  0.8511  1.5041
 4494TIP3   OH234972   2.163   5.737  12.201  0.5608 -0.0344 -0.6738
 4494TIP3    H134973   2.168   5.811  12.141 -1.7064  0.0087 -0.9037
 4494TIP3    H234974   2.143   5.776  12.286  0.6469 -0.2903 -0.5337
 4495TIP3   OH234975   4.814   1.271  10.931  0.3047  0.0585 -0.4444
 4495TIP3    H134976   4.746   1.315  10.983 -0.1973 -2.5790  1.3595
 4495TIP3    H234977   4.897   1.303  10.967  0.0076  1.4795 -0.9978
 4496TIP3   OH234978   0.082   1.871  12.906 -0.8204  0.3538  0.0454
 4496TIP3    H134979   0.134   1.856  12.827 -1.2290 -0.8207 -0.0219
 4496TIP3    H234980   0.037   1.788  12.920 -0.5776  0.4737  1.6444
 4497TIP3   OH234981   2.314   1.605   0.748  0.4575 -0.1223  0.5332
 4497TIP3    H134982   2.264   1.663   0.691  1.9093 -0.2535 -0.9537
 4497TIP3    H234983   2.288   1.517   0.720 -0.9215 -0.2321  2.0384
 4498TIP3   OH234984   0.180   6.602  14.554 -0.4381 -0.2014  0.0089
 4498TIP3    H134985   0.253   6.588  14.493 -0.0580  1.5902 -0.0127
 4498TIP3    H234986   0.221   6.636  14.633 -1.1796  0.1455  0.2571
 4499TIP3   OH234987   6.607   0.922  12.312  0.3108 -0.0236  0.4889
 4499TIP3    H134988   6.537   0.866  12.346 -0.7249  2.2124  2.3288
 4499TIP3    H234989   6.665   0.937  12.388  2.5319 -1.3137 -0.8307
 4500TIP3   OH234990   5.992   1.442   3.101 -0.3854  0.0377  0.2610
 4500TIP3    H134991   6.007   1.495   3.022 -0.5942 -0.7377 -0.3096
 4500TIP3    H234992   5.898   1.431   3.105 -0.7055  2.4513  2.2358
 4501TIP3   OH234993   3.419   0.319   4.976 -0.3813  0.0894  0.5262
 4501TIP3    H134994   3.344   0.300   4.920 -0.3598 -0.3062  0.6292
 4501TIP3    H234995   3.449   0.233   5.005  1.5023  0.0528 -1.3104
 4502TIP3   OH234996   5.502   4.201   5.557  0.1668  0.4139  0.6539
 4502TIP3    H134997   5.473   4.117   5.593  2.3739 -1.4576 -1.5380
 4502TIP3    H234998   5.443   4.266   5.596 -3.7248 -2.4299  0.0666
 4503TIP3   OH234999   3.935   3.090  16.066 -0.1119  0.0936 -0.5509
 4503TIP3    H135000   3.944   3.185  16.076 -2.3559  0.5430 -1.9923
 4503TIP3    H235001   3.849   3.070  16.102  0.7583 -1.6253  0.7277
 4504TIP3   OH235002   4.122   3.505   2.056  0.4802  0.6214  0.4354
 4504TIP3    H135003   4.114   3.432   2.118 -0.5069 -0.7027 -1.1661
 4504TIP3    H235004   4.056   3.568   2.085  0.3556  0.2349  1.0039
 4505TIP3   OH235005   0.620   0.373  14.315 -0.2242  0.0873 -0.4372
 4505TIP3    H135006   0.599   0.465  14.302  0.0809  0.3978  1.1045
 4505TIP3    H235007   0.538   0.333  14.344  0.3555  0.6210  2.2622
 4506TIP3   OH235008   4.308   6.814  15.386  0.1711  0.0029 -0.4292
 4506TIP3    H135009   4.285   6.770  15.304  0.6229  0.8876 -1.0630
 4506TIP3    H235010   4.276   6.904  15.374  0.1560  0.1159  0.4088
 4507TIP3   OH235011   4.639   0.714  11.212 -0.0559 -0.0976 -0.2107
 4507TIP3    H135012   4.734   0.711  11.204  0.2022  0.4773  2.1183
 4507TIP3    H235013   4.609   0.753  11.129  1.5910 -1.4462 -1.4993
 4508TIP3   OH235014   4.870   0.344  12.886 -0.6877  0.0369 -0.1504
 4508TIP3    H135015   4.941   0.389  12.841 -1.5501  1.7157  0.0765
 4508TIP3    H235016   4.880   0.370  12.978  0.2779 -2.2965  0.4676
 4509TIP3   OH235017   1.496   3.804   5.440  0.2169  0.2967  0.5203
 4509TIP3    H135018   1.476   3.717   5.474 -0.6659  0.7464  1.1902
 4509TIP3    H235019   1.480   3.797   5.345  0.0597 -0.2351  0.5810
 4510TIP3   OH235020   6.616   6.734  14.925 -0.0668 -0.0323  0.9562
 4510TIP3    H135021   6.572   6.815  14.952  0.3634  1.0233 -1.2317
 4510TIP3    H235022   6.696   6.731  14.977 -0.9222 -0.0361  2.3369
 4511TIP3   OH235023   2.088   1.637   4.506  0.3350  0.2171 -0.8564
 4511TIP3    H135024   2.100   1.578   4.580  1.5487  0.0264 -1.1755
 4511TIP3    H235025   2.026   1.703   4.537 -0.8082 -1.0147 -0.3774
 4512TIP3   OH235026   3.526   3.598  14.757  0.0342  0.6409  0.0558
 4512TIP3    H135027   3.510   3.650  14.835 -1.0048 -1.1724  1.1153
 4512TIP3    H235028   3.566   3.517  14.790 -0.3575 -0.1286 -1.2882
 4513TIP3   OH235029   4.765   5.149  12.724  0.4907 -0.1045  0.4493
 4513TIP3    H135030   4.743   5.202  12.800 -0.6622 -0.3950  0.3492
 4513TIP3    H235031   4.739   5.204  12.649 -0.5809 -0.7193  0.3431
 4514TIP3   OH235032   5.749   1.125  14.613  0.3953 -0.3078  0.3250
 4514TIP3    H135033   5.680   1.146  14.550 -0.9348 -1.0001  1.4969
 4514TIP3    H235034   5.703   1.110  14.696  2.1952  2.2209  1.9443
 4515TIP3   OH235035   1.302   4.315  14.796 -0.1701 -0.0554  0.6301
 4515TIP3    H135036   1.385   4.309  14.843  0.0500 -0.3380  0.2191
 4515TIP3    H235037   1.241   4.353  14.859  0.1271 -0.3829  1.1274
 4516TIP3   OH235038   3.490   6.084  10.947 -0.1322 -0.0909 -1.0638
 4516TIP3    H135039   3.585   6.078  10.935 -0.2010 -1.9695 -0.9095
 4516TIP3    H235040   3.455   6.094  10.858  0.3040  3.9423 -0.9724
 4517TIP3   OH235041   3.468   4.665   5.168 -0.1155 -0.1596 -0.0747
 4517TIP3    H135042   3.509   4.668   5.255  0.1317  0.8641 -0.2100
 4517TIP3    H235043   3.534   4.622   5.113 -0.7742 -1.9676  0.4765
 4518TIP3   OH235044   3.209   3.272   3.593  0.1953 -0.3894  0.4062
 4518TIP3    H135045   3.258   3.239   3.517 -0.0030 -1.1372  0.5862
 4518TIP3    H235046   3.129   3.309   3.555  0.0483 -0.8542  0.2522
 4519TIP3   OH235047   3.813   1.082  15.326 -0.1341 -0.7046  0.0767
 4519TIP3    H135048   3.906   1.077  15.306  0.0373 -1.5661  0.9861
 4519TIP3    H235049   3.783   0.991  15.322 -1.3641 -0.2801 -2.0045
 4520TIP3   OH235050   3.592   5.506  12.821  0.0849  0.1858  0.7018
 4520TIP3    H135051   3.649   5.515  12.746 -0.4566  1.2463  0.4046
 4520TIP3    H235052   3.503   5.516  12.785 -0.1603  1.0659  1.5291
 4521TIP3   OH235053   4.202   2.655   4.065 -0.0526  0.0567 -0.1427
 4521TIP3    H135054   4.257   2.657   3.987 -0.5257 -0.5743 -0.5059
 4521TIP3    H235055   4.202   2.563   4.091 -0.5273  0.1359  0.1482
 4522TIP3   OH235056   6.232   6.292  15.451  0.6161 -0.3182 -0.2935
 4522TIP3    H135057   6.325   6.278  15.436  0.2553 -1.2545 -1.8947
 4522TIP3    H235058   6.192   6.206  15.440 -0.4290  0.0158  0.6276
 4523TIP3   OH235059   0.730   0.681   0.237 -0.7550  0.1036  0.3055
 4523TIP3    H135060   0.656   0.641   0.190 -1.2370  1.5675 -0.2233
 4523TIP3    H235061   0.801   0.682   0.172 -0.2273 -1.3062  0.8145
 4524TIP3   OH235062   5.237   5.773  13.083 -0.2487  0.7615  0.7631
 4524TIP3    H135063   5.260   5.799  13.172 -0.8776 -1.2372  1.5724
 4524TIP3    H235064   5.256   5.679  13.080 -0.6275  0.6998 -1.1027
 4525TIP3   OH235065   5.629   5.930   6.537 -0.2445 -0.1315 -0.1494
 4525TIP3    H135066   5.672   6.012   6.512  0.4872 -0.5304 -0.2249
 4525TIP3    H235067   5.555   5.957   6.591  0.1082  0.5687 -0.0080
 4526TIP3   OH235068   3.669   3.155  12.274 -0.1696 -0.0366 -0.0502
 4526TIP3    H135069   3.595   3.215  12.261  0.2473  0.3749 -0.5690
 4526TIP3    H235070   3.746   3.212  12.269  0.1599 -0.3670  1.1008
 4527TIP3   OH235071   2.694   6.529   1.085  0.3671  0.2491 -0.3062
 4527TIP3    H135072   2.665   6.592   1.019 -0.6511 -0.5298 -0.6277
 4527TIP3    H235073   2.654   6.559   1.166 -0.0307  0.0743 -0.4382
 4528TIP3   OH235074   0.467   6.710   4.469 -0.1004  0.3264  0.2317
 4528TIP3    H135075   0.377   6.689   4.494 -0.4544  0.6269 -0.7508
 4528TIP3    H235076   0.472   6.806   4.472  0.0222  0.3384 -0.2413
 4529TIP3   OH235077   1.256   2.157  11.272 -0.7886  0.0473 -0.4444
 4529TIP3    H135078   1.247   2.251  11.257  0.4859  0.2527 -0.0527
 4529TIP3    H235079   1.183   2.135  11.329  0.2948  1.3183  1.5549
 4530TIP3   OH235080   3.114   5.574   3.026  0.0999 -0.1485 -0.3457
 4530TIP3    H135081   3.117   5.630   2.948  0.8528  0.4658  0.1013
 4530TIP3    H235082   3.181   5.611   3.084  0.0348 -1.0203  0.3070
 4531TIP3   OH235083   3.182   4.361   5.798 -0.4327 -0.1027  0.0062
 4531TIP3    H135084   3.195   4.266   5.794  1.0876  0.0985 -0.2572
 4531TIP3    H235085   3.180   4.389   5.706 -0.7438  0.1506  0.0861
 4532TIP3   OH235086   0.406   6.691  14.159 -0.4903 -0.1889 -0.7051
 4532TIP3    H135087   0.420   6.603  14.195  0.0116 -0.1553 -0.8147
 4532TIP3    H235088   0.436   6.750  14.228 -0.4335 -0.1067 -0.8011
 4533TIP3   OH235089   3.488   6.826  12.648  0.5855  0.4287  0.6599
 4533TIP3    H135090   3.501   6.748  12.702 -0.3411  0.0021  0.2819
 4533TIP3    H235091   3.553   6.819  12.579  0.3278 -0.1522  0.4735
 4534TIP3   OH235092   3.670   3.563   5.597  0.0116 -0.0650 -0.0194
 4534TIP3    H135093   3.745   3.622   5.587  3.0977 -3.4447  1.0053
 4534TIP3    H235094   3.674   3.534   5.688 -1.5565 -1.5707 -0.3906
 4535TIP3   OH235095   5.358   3.408  12.716 -0.7975 -0.2463 -0.0778
 4535TIP3    H135096   5.320   3.396  12.628  1.7864 -1.0337 -1.1913
 4535TIP3    H235097   5.409   3.489  12.709  0.9594 -1.2891  0.0444
 4536TIP3   OH235098   4.766   1.844  11.255  0.2727  0.9356  0.2963
 4536TIP3    H135099   4.792   1.782  11.323  0.6392  1.1604  0.3676
 4536TIP3    H235100   4.732   1.919  11.304  0.3360  1.0087  0.2295
 4537TIP3   OH235101   2.473   6.222   3.111 -0.0456 -0.3620  0.5325
 4537TIP3    H135102   2.556   6.269   3.116 -0.0315 -0.1791 -0.9395
 4537TIP3    H235103   2.426   6.265   3.040 -0.8362 -1.3538  0.4351
 4538TIP3   OH235104   1.444   4.127  16.811  0.1017  0.4573  0.4004
 4538TIP3    H135105   1.451   4.094  16.722  0.5028  2.8922 -0.5437
 4538TIP3    H235106   1.477   4.056  16.866 -0.9532 -1.4189 -1.2876
 4539TIP3   OH235107   3.212   4.787  16.615 -0.1394  1.0401 -0.5169
 4539TIP3    H135108   3.159   4.812  16.690  2.1630  2.2476  0.8356
 4539TIP3    H235109   3.221   4.692  16.622 -1.4303  0.9108 -0.3491
 4540TIP3   OH235110   1.980   5.889   4.210 -0.1736 -0.0872  0.0272
 4540TIP3    H135111   1.912   5.889   4.142  1.0794  0.7889 -1.3023
 4540TIP3    H235112   1.949   5.951   4.275 -1.1002 -0.4378 -0.0590
 4541TIP3   OH235113   2.740   4.213  16.063 -0.0742  0.2042 -0.1725
 4541TIP3    H135114   2.713   4.126  16.091 -0.9600  0.7883  0.8649
 4541TIP3    H235115   2.659   4.257  16.038  0.3129  0.8621 -0.2969
 4542TIP3   OH235116   3.375   2.411  13.663  0.0400  0.4721 -0.5895
 4542TIP3    H135117   3.306   2.475  13.686 -0.5591 -0.5682  0.6395
 4542TIP3    H235118   3.455   2.463  13.660  0.0386  0.9639  3.0824
 4543TIP3   OH235119   6.014   4.822   1.629  0.5427 -0.4081 -0.0112
 4543TIP3    H135120   6.039   4.807   1.538 -0.4610  0.5213 -0.4770
 4543TIP3    H235121   5.982   4.738   1.660  2.8434 -1.2644  0.1722
 4544TIP3   OH235122   4.310   5.654   1.580  0.0347 -0.1756 -0.3851
 4544TIP3    H135123   4.343   5.742   1.599  1.9435 -0.7211 -1.0232
 4544TIP3    H235124   4.309   5.649   1.485 -1.0475 -0.5166 -0.3675
 4545TIP3   OH235125   5.998   5.746  12.223  0.7577 -0.0312  0.3910
 4545TIP3    H135126   5.959   5.830  12.244  0.3829 -0.5995  2.1388
 4545TIP3    H235127   5.944   5.711  12.152  0.4869  0.8906  0.1398
 4546TIP3   OH235128   1.362   3.560  12.619 -0.3689  0.7175 -0.0072
 4546TIP3    H135129   1.354   3.647  12.657 -0.4960  1.2526 -1.2011
 4546TIP3    H235130   1.454   3.535  12.635 -0.1435  1.3652 -0.2599
 4547TIP3   OH235131   0.299   4.225  15.688 -0.2055  0.6276 -0.5615
 4547TIP3    H135132   0.227   4.288  15.683  0.3747  1.3054 -0.5549
 4547TIP3    H235133   0.347   4.236  15.606  1.3681  2.0183  0.4833
 4548TIP3   OH235134   4.142   4.708  16.293 -0.3230  0.0038 -0.4431
 4548TIP3    H135135   4.120   4.625  16.251 -0.8437  0.2279 -0.6196
 4548TIP3    H235136   4.075   4.769  16.263 -1.6111 -0.1588  1.8447
 4549TIP3   OH235137   5.924   5.857   2.382 -0.2174  0.4691  0.2977
 4549TIP3    H135138   5.900   5.786   2.323  0.3854 -0.7980  1.4992
 4549TIP3    H235139   6.015   5.839   2.406 -0.7876  0.2388  2.5111
 4550TIP3   OH235140   3.711   3.727   2.303  0.0267 -0.2941  0.2182
 4550TIP3    H135141   3.619   3.719   2.277  0.5827 -0.4388 -1.8185
 4550TIP3    H235142   3.711   3.799   2.367 -1.5345 -0.5440  0.5453
 4551TIP3   OH235143   5.232   3.778  12.873  0.5711  0.3794  0.3328
 4551TIP3    H135144   5.323   3.810  12.872  0.5057  0.6519  1.3862
 4551TIP3    H235145   5.232   3.708  12.937  0.2276 -0.2685 -0.3621
 4552TIP3   OH235146   3.489   3.199   0.886  0.0491 -0.0224  0.1753
 4552TIP3    H135147   3.572   3.215   0.932 -0.4154 -0.5771  1.2311
 4552TIP3    H235148   3.514   3.144   0.811  0.2747 -2.8442  2.1805
 4553TIP3   OH235149   2.765   3.597  15.984  0.1829  0.0630  0.2006
 4553TIP3    H135150   2.760   3.687  15.951 -2.0010 -0.2540 -0.5676
 4553TIP3    H235151   2.679   3.560  15.963  0.8901 -2.0928  0.8463
 4554TIP3   OH235152   6.054   2.391  15.174 -0.2209 -0.6919  0.3119
 4554TIP3    H135153   6.018   2.479  15.179  2.1097  0.3805 -0.2959
 4554TIP3    H235154   6.025   2.358  15.089  2.9207  1.5843 -1.9091
 4555TIP3   OH235155   3.969   4.675  13.660  0.0426 -0.3852 -0.3877
 4555TIP3    H135156   3.973   4.582  13.683 -0.7664 -0.4783 -0.6010
 4555TIP3    H235157   3.885   4.705  13.694  1.6816  1.1517  2.7579
 4556TIP3   OH235158   0.482   3.061  11.500 -0.2172 -0.0757 -1.2170
 4556TIP3    H135159   0.494   2.970  11.527 -2.0383 -1.1142 -3.5676
 4556TIP3    H235160   0.396   3.085  11.535  0.0181  0.5856 -1.0714
 4557TIP3   OH235161   4.653   0.244  13.789  0.1775  0.6162 -0.0601
 4557TIP3    H135162   4.719   0.308  13.762  0.5158 -0.3583 -1.7016
 4557TIP3    H235163   4.571   0.294  13.793  0.9577  1.8513  2.0715
 4558TIP3   OH235164   6.830   3.376   5.794  0.0404 -0.4001  0.2795
 4558TIP3    H135165   6.908   3.322   5.788  0.7772 -0.0283  3.9094
 4558TIP3    H235166   6.766   3.322   5.841 -0.2718  0.7703  1.2733
 4559TIP3   OH235167   4.426   0.587   4.954 -0.4545  0.5525  0.6028
 4559TIP3    H135168   4.462   0.617   5.038  1.4545  1.9132 -0.6028
 4559TIP3    H235169   4.455   0.496   4.946  0.2357  0.7309  0.9840
 4560TIP3   OH235170   0.583   4.353  15.211 -0.4507  0.3305  0.1494
 4560TIP3    H135171   0.552   4.264  15.197 -1.0984  0.7844 -1.5384
 4560TIP3    H235172   0.635   4.348  15.291 -1.8887 -1.2049  1.0611
 4561TIP3   OH235173   3.769   3.701  13.222  0.2073  0.4637  0.2435
 4561TIP3    H135174   3.822   3.627  13.196  1.2061  1.5436 -0.8955
 4561TIP3    H235175   3.684   3.663  13.246  0.9717 -1.1114  0.5553
 4562TIP3   OH235176   0.087   2.644  13.188 -0.0554  0.0865 -0.7238
 4562TIP3    H135177   0.144   2.714  13.219  0.9619 -0.6923 -0.7834
 4562TIP3    H235178   0.145   2.587  13.137 -0.7362 -1.0951 -0.2129
 4563TIP3   OH235179   0.319   3.781  14.405 -0.0247  0.0079  0.2162
 4563TIP3    H135180   0.275   3.817  14.482  1.1803 -1.6172  1.7443
 4563TIP3    H235181   0.251   3.729  14.361 -0.4866  0.1653  0.7362
 4564TIP3   OH235182   1.022   3.987  12.463 -0.3161 -0.7547 -0.2409
 4564TIP3    H135183   1.086   3.961  12.529 -0.9420  1.0882  1.2023
 4564TIP3    H235184   0.937   3.971  12.505 -0.7305 -0.1082 -0.8081
 4565TIP3   OH235185   0.727   5.461  12.246 -0.1789  0.0617 -0.6287
 4565TIP3    H135186   0.718   5.466  12.151  0.4559  1.0301 -0.6469
 4565TIP3    H235187   0.768   5.543  12.271 -0.4825 -0.1098  0.5087
 4566TIP3   OH235188   6.030   0.944   4.994 -0.3090 -0.1822  0.0514
 4566TIP3    H135189   6.003   0.855   4.972 -0.4715 -0.2247  0.4033
 4566TIP3    H235190   5.955   0.980   5.041  0.0471 -0.1148  0.5723
 4567TIP3   OH235191   4.769   1.272  16.683 -0.0294  0.0883  0.6487
 4567TIP3    H135192   4.713   1.238  16.613  2.3261  0.4999 -1.6212
 4567TIP3    H235193   4.718   1.343  16.722 -0.9910  0.7149 -1.5693
 4568TIP3   OH235194   3.087   5.495   3.996 -0.2816  0.5912  0.0382
 4568TIP3    H135195   3.101   5.495   4.091  2.4183  1.1571 -0.2694
 4568TIP3    H235196   3.158   5.548   3.961 -1.2686  0.4938 -2.3225
 4569TIP3   OH235197   6.502   2.966  14.171  0.1369 -0.0889  0.6004
 4569TIP3    H135198   6.585   2.962  14.220  0.9697 -1.2757 -0.8338
 4569TIP3    H235199   6.439   3.000  14.234  1.6871  0.7468  1.7738
 4570TIP3   OH235200   5.839   4.047  13.344  0.2038 -0.1034 -0.4371
 4570TIP3    H135201   5.862   3.963  13.383  0.5666 -0.0714 -0.5731
 4570TIP3    H235202   5.924   4.088  13.324  0.0375  0.6530  0.3895
 4571TIP3   OH235203   5.595   6.744   3.223 -0.2699 -0.2393  0.4597
 4571TIP3    H135204   5.651   6.739   3.300 -3.6444 -1.2251  3.1376
 4571TIP3    H235205   5.594   6.655   3.188  0.3585 -0.0593 -0.0235
 4572TIP3   OH235206   6.089   2.829   0.443  0.6060  0.0458 -0.1681
 4572TIP3    H135207   6.125   2.856   0.358  1.5637 -0.4536  0.0658
 4572TIP3    H235208   6.030   2.757   0.422  1.1712 -0.3619 -0.3695
 4573TIP3   OH235209   2.564   6.372  10.270 -0.5588 -0.1199 -0.5706
 4573TIP3    H135210   2.649   6.345  10.234 -0.2041 -0.6298  0.6064
 4573TIP3    H235211   2.585   6.431  10.341 -1.3255  3.2859 -2.9292
 4574TIP3   OH235212   0.298   4.453  13.543 -0.5459 -1.0517  0.4095
 4574TIP3    H135213   0.366   4.465  13.609 -0.0190 -3.4350  0.3937
 4574TIP3    H235214   0.216   4.471  13.589 -0.0406 -0.0926  0.9616
 4575TIP3   OH235215   5.727   2.170  16.215 -0.3772 -0.4445  0.4067
 4575TIP3    H135216   5.791   2.235  16.243 -0.0108 -0.5568 -0.1645
 4575TIP3    H235217   5.660   2.221  16.169  0.9528 -0.6646 -1.8972
 4576TIP3   OH235218   4.274   0.610   0.703  0.6541  0.3109 -0.2197
 4576TIP3    H135219   4.228   0.693   0.710  0.8145  0.2719  2.2493
 4576TIP3    H235220   4.208   0.544   0.724  0.4668 -0.2688 -2.3907
 4577TIP3   OH235221   0.036   3.360  14.248 -0.0125  0.1172 -0.2164
 4577TIP3    H135222   0.069   3.271  14.240  0.4965  0.3408 -0.7103
 4577TIP3    H235223  -0.052   3.351  14.285  0.7782 -0.4756  1.6840
 4578TIP3   OH235224   4.760   5.526  16.259 -0.5139  0.2455 -0.8350
 4578TIP3    H135225   4.766   5.611  16.215  0.7855  0.2625 -0.6378
 4578TIP3    H235226   4.849   5.506  16.286 -0.5089 -1.8834 -2.1845
 4579TIP3   OH235227   3.272   0.596   0.616 -0.4753 -0.2140 -0.1806
 4579TIP3    H135228   3.188   0.552   0.626 -0.7450  0.1814 -0.6400
 4579TIP3    H235229   3.326   0.562   0.687 -1.4709  0.6024  0.9974
 4580TIP3   OH235230   3.620   1.993  13.444 -0.1300 -0.1896  0.5405
 4580TIP3    H135231   3.603   1.984  13.537 -0.8142 -1.2056  0.3319
 4580TIP3    H235232   3.536   1.974  13.402 -0.0853  1.2534 -0.2556
 4581TIP3   OH235233   4.952   5.476  12.346 -0.1819 -0.4792  0.0736
 4581TIP3    H135234   5.022   5.412  12.362  0.8342  0.3931 -0.7605
 4581TIP3    H235235   4.905   5.441  12.270 -0.0558 -0.5743  0.0384
 4582TIP3   OH235236   0.051   6.296   0.187 -0.1114 -1.1884  0.1638
 4582TIP3    H135237  -0.031   6.246   0.182 -1.1323  0.2265  1.9063
 4582TIP3    H235238   0.041   6.352   0.264  0.4664  2.5601 -2.2418
 4583TIP3   OH235239   0.675   4.316   3.770  0.1859 -0.3615 -0.1975
 4583TIP3    H135240   0.630   4.310   3.855  1.3247 -0.3821  0.4336
 4583TIP3    H235241   0.768   4.318   3.793  0.5874 -1.9427 -1.5394
 4584TIP3   OH235242   2.047   0.009  14.835 -0.1150  0.1674 -0.0727
 4584TIP3    H135243   2.014   0.097  14.852  2.5015  1.4643 -1.0942
 4584TIP3    H235244   2.131   0.005  14.882 -1.1594 -2.6620  1.8047
 4585TIP3   OH235245   5.800   5.623  15.355  0.1303 -0.1882  0.3322
 4585TIP3    H135246   5.748   5.656  15.429 -0.3427  1.1370 -0.5586
 4585TIP3    H235247   5.774   5.531  15.347 -2.7182  0.5658 -0.5211
 4586TIP3   OH235248   1.517   1.949   0.386 -0.1818  0.3401 -0.2815
 4586TIP3    H135249   1.436   1.953   0.336 -0.6374 -0.3676  0.3687
 4586TIP3    H235250   1.568   1.880   0.345 -0.2462  0.2480 -0.2059
 4587TIP3   OH235251   6.587   5.014   5.795  0.8579  0.3017  0.0842
 4587TIP3    H135252   6.603   4.953   5.723 -1.3624  0.4705 -0.6325
 4587TIP3    H235253   6.559   4.959   5.868 -1.2417  0.3859 -0.5919
 4588TIP3   OH235254   2.341   1.239  10.561 -0.2743 -0.8173  0.1420
 4588TIP3    H135255   2.296   1.321  10.580  0.2602 -1.0107  2.4669
 4588TIP3    H235256   2.301   1.174  10.619 -0.0802 -2.0242 -1.0135
 4589TIP3   OH235257   4.985   4.875  14.255  0.8759  0.6080 -0.1929
 4589TIP3    H135258   5.034   4.911  14.329  2.7477 -1.1942 -0.4886
 4589TIP3    H235259   5.037   4.897  14.178  1.8259 -2.1038 -0.4367
 4590TIP3   OH235260   1.846   5.533  13.261 -0.4961  0.0417 -0.6834
 4590TIP3    H135261   1.803   5.601  13.210 -0.1702 -0.2477 -1.3558
 4590TIP3    H235262   1.882   5.473  13.196 -0.1758 -0.3998 -0.1113
 4591TIP3   OH235263   2.808   2.189  11.983 -0.2351  0.6203 -0.7257
 4591TIP3    H135264   2.792   2.254  12.051  0.6347 -0.7756  0.8738
 4591TIP3    H235265   2.720   2.158  11.959 -0.5370 -1.1590  2.1471
 4592TIP3   OH235266   1.212   2.055   5.147  0.4551  0.0973  0.1075
 4592TIP3    H135267   1.268   1.991   5.103  1.1308  0.8416 -0.1506
 4592TIP3    H235268   1.272   2.109   5.198  0.2813  2.1721 -1.7207
 4593TIP3   OH235269   6.446   0.606  12.808  0.3004  0.2917 -0.4141
 4593TIP3    H135270   6.378   0.663  12.844  1.9543  0.6067  2.5561
 4593TIP3    H235271   6.500   0.663  12.754 -1.2204  0.2154 -2.1032
 4594TIP3   OH235272   5.830   4.900   0.887  0.3006  0.0273  0.0155
 4594TIP3    H135273   5.798   4.986   0.914 -3.1530 -0.6613 -1.3185
 4594TIP3    H235274   5.894   4.919   0.818 -0.7787  1.5508 -0.6307
 4595TIP3   OH235275   6.658   4.568  14.163  0.0094  0.2692 -0.0931
 4595TIP3    H135276   6.622   4.512  14.232  1.5269 -0.1470  0.3866
 4595TIP3    H235277   6.743   4.596  14.197  1.0662 -0.4317 -2.0293
 4596TIP3   OH235278   1.929   3.465   1.596  0.6131  0.0399  0.0644
 4596TIP3    H135279   1.972   3.506   1.672  1.3238  0.3332 -0.4802
 4596TIP3    H235280   1.855   3.523   1.577 -0.2237 -0.6207  1.1850
 4597TIP3   OH235281   3.189   4.594  13.783 -0.1159  0.2081  0.2379
 4597TIP3    H135282   3.249   4.563  13.851  0.2366 -1.0123 -0.6043
 4597TIP3    H235283   3.149   4.514  13.747 -0.6218  0.8564 -0.6906
 4598TIP3   OH235284   2.202   1.352   1.685  0.5923  0.3135 -0.3263
 4598TIP3    H135285   2.267   1.390   1.625  0.4370  1.3105  0.1154
 4598TIP3    H235286   2.252   1.286   1.734  0.9945  0.2778 -0.7682
 4599TIP3   OH235287   2.852   5.958   3.759 -0.0564  0.3124  0.2140
 4599TIP3    H135288   2.864   6.018   3.685 -0.0411  0.4229  0.3068
 4599TIP3    H235289   2.777   5.904   3.733  0.8925 -0.6710 -0.5557
 4600TIP3   OH235290   0.208   5.399  12.004 -0.3089 -0.2856 -0.3505
 4600TIP3    H135291   0.217   5.493  11.991  0.0137 -0.2657 -0.0038
 4600TIP3    H235292   0.118   5.379  11.976 -0.2111  0.0364 -0.8979
 4601TIP3   OH235293   5.303   3.414   6.018 -0.2200  1.0340 -0.2472
 4601TIP3    H135294   5.340   3.358   5.950 -0.3364  1.5969 -0.7786
 4601TIP3    H235295   5.379   3.446   6.067 -0.1991 -0.3580  0.6984
 4602TIP3   OH235296   4.163   5.164   1.159  0.5944 -0.0231  0.1499
 4602TIP3    H135297   4.193   5.074   1.152 -1.4354 -0.6968 -1.0358
 4602TIP3    H235298   4.115   5.167   1.242 -0.1355 -0.3370 -0.2467
 4603TIP3   OH235299   4.162   6.491  12.659  0.2153  0.0632  0.0942
 4603TIP3    H135300   4.171   6.554  12.730  4.0976  1.3712 -1.3177
 4603TIP3    H235301   4.224   6.421  12.681 -0.1000 -0.5893 -0.9882
 4604TIP3   OH235302   4.607   2.464   3.777  0.2684 -0.5107 -0.0160
 4604TIP3    H135303   4.639   2.509   3.699  0.5246 -0.1564  0.2858
 4604TIP3    H235304   4.679   2.472   3.840  0.6618 -2.1111 -0.2415
 4605TIP3   OH235305   4.410   5.205  14.880 -1.0369 -0.3419 -0.5025
 4605TIP3    H135306   4.422   5.251  14.962  1.7815 -0.4087 -0.7935
 4605TIP3    H235307   4.356   5.264  14.827 -2.0570  0.1321  0.9889
 4606TIP3   OH235308   4.200   2.466  12.871 -0.4827 -0.1074  0.8449
 4606TIP3    H135309   4.177   2.542  12.817  1.6161  1.3264  1.8015
 4606TIP3    H235310   4.119   2.445  12.918 -1.9199 -0.3887 -1.5659
 4607TIP3   OH235311   2.254   5.507  13.735 -0.3375  0.6465 -0.1218
 4607TIP3    H135312   2.282   5.522  13.644 -0.0347  1.5261  0.1050
 4607TIP3    H235313   2.158   5.505  13.730 -0.3108 -0.0259 -0.5561
 4608TIP3   OH235314   3.557   5.021  13.041 -0.1448 -0.0169  0.2443
 4608TIP3    H135315   3.462   5.034  13.039  0.1560  2.7364 -0.1827
 4608TIP3    H235316   3.575   4.965  12.966 -1.5088 -1.6500  1.0629
 4609TIP3   OH235317   4.620   2.881  15.251 -0.3881 -0.5348  0.5981
 4609TIP3    H135318   4.714   2.866  15.260 -0.3117 -0.9558 -0.6408
 4609TIP3    H235319   4.612   2.976  15.238  0.0266 -0.6468 -0.6643
 4610TIP3   OH235320   6.381   6.683   6.290 -0.7335 -0.2748 -0.0815
 4610TIP3    H135321   6.459   6.723   6.254 -1.5420  1.8444  0.3915
 4610TIP3    H235322   6.413   6.626   6.360  0.5063 -1.0441 -1.2353
 4611TIP3   OH235323   4.464   0.822  11.407  0.2275  0.8093  0.2973
 4611TIP3    H135324   4.528   0.780  11.349  1.9764  4.1332 -0.4558
 4611TIP3    H235325   4.406   0.751  11.435  1.3696 -1.5465 -2.7859
 4612TIP3   OH235326   3.174   6.069   2.002  0.8942  0.3055 -0.3357
 4612TIP3    H135327   3.170   6.021   2.084  1.4518 -0.0505 -0.5112
 4612TIP3    H235328   3.153   6.005   1.934 -1.8729  1.1034 -0.3304
 4613TIP3   OH235329   4.255   0.985  16.304  0.6316  0.1039  0.1706
 4613TIP3    H135330   4.180   0.978  16.363 -0.2688  1.3377 -0.7774
 4613TIP3    H235331   4.262   0.899  16.263  0.0379 -0.1660  0.6272
 4614TIP3   OH235332   4.006   3.485  15.559  0.2125  0.1674  0.1732
 4614TIP3    H135333   4.056   3.404  15.569  0.7303  0.4763  0.1059
 4614TIP3    H235334   4.003   3.499  15.464  0.0824  0.2050  0.1825
 4615TIP3   OH235335   5.510   5.308  14.753 -0.4338  0.1729 -0.2563
 4615TIP3    H135336   5.439   5.372  14.744  0.8481  1.4798 -1.7324
 4615TIP3    H235337   5.469   5.224  14.733 -1.7791  0.7575 -0.0785
 4616TIP3   OH235338   2.835   5.033  13.859 -0.3259 -0.4119  0.2916
 4616TIP3    H135339   2.908   5.095  13.863 -0.7181  0.2674 -1.7120
 4616TIP3    H235340   2.838   4.986  13.942  1.9435  0.1024  0.5545
 4617TIP3   OH235341   3.153   2.373   5.312  0.2579  0.6598  0.6280
 4617TIP3    H135342   3.135   2.463   5.285 -0.4916  0.3327 -0.0101
 4617TIP3    H235343   3.096   2.359   5.388  0.4049  0.7319  0.7528
 4618TIP3   OH235344   0.418   0.984   3.414 -0.2586 -0.0564  0.1122
 4618TIP3    H135345   0.357   0.924   3.373  1.8503 -2.0943 -0.2568
 4618TIP3    H235346   0.394   0.983   3.507  0.1540 -2.1369  0.2560
 4619TIP3   OH235347   2.796   1.804  10.308  0.1777  0.1523  0.0432
 4619TIP3    H135348   2.727   1.835  10.249 -0.6323  1.6104  1.6927
 4619TIP3    H235349   2.862   1.872  10.306 -0.0679  0.4403  1.1473
 4620TIP3   OH235350   3.132   3.979   5.133 -0.1751  0.4003  0.4458
 4620TIP3    H135351   3.155   4.059   5.181 -0.9504  0.5618  0.5575
 4620TIP3    H235352   3.041   3.962   5.156 -0.4195  0.2130 -0.6052
 4621TIP3   OH235353   2.946   5.299   4.485 -0.1707 -0.4683  0.7838
 4621TIP3    H135354   2.968   5.372   4.543  1.7863 -0.2520 -0.1494
 4621TIP3    H235355   2.935   5.224   4.544 -0.7713  0.2489  1.6224
 4622TIP3   OH235356   2.333   0.328  15.784 -0.1537  0.3027 -0.3291
 4622TIP3    H135357   2.349   0.301  15.874  0.6668  0.8275 -0.3048
 4622TIP3    H235358   2.249   0.289  15.761 -0.9159  1.0739  1.0293
 4623TIP3   OH235359   1.029   1.481  11.516  0.2642  0.2419  0.2551
 4623TIP3    H135360   1.120   1.507  11.501  0.5046 -0.3771  0.6313
 4623TIP3    H235361   0.984   1.564  11.535  0.5699  0.6642 -0.7647
 4624TIP3   OH235362   4.149   0.586  11.238 -0.5695  0.3872  0.5715
 4624TIP3    H135363   4.214   0.600  11.169 -0.7651 -2.6570 -0.3681
 4624TIP3    H235364   4.093   0.664  11.234 -0.0766  0.7155 -2.1470
 4625TIP3   OH235365   2.814   0.537  17.135 -0.6270  0.3115  0.0306
 4625TIP3    H135366   2.802   0.631  17.123 -0.8498  0.3866  0.7802
 4625TIP3    H235367   2.736   0.498  17.096 -1.3147  0.5445  1.1366
 4626TIP3   OH235368   1.240   0.310   2.765 -0.0824 -0.3075 -0.1437
 4626TIP3    H135369   1.167   0.248   2.769  0.6398 -1.1129  1.1261
 4626TIP3    H235370   1.300   0.271   2.701  0.7914 -1.4383  1.3101
 4627TIP3   OH235371   0.760   1.914  10.747  0.8426  0.0439  0.0586
 4627TIP3    H135372   0.800   1.829  10.768 -1.3158 -0.3437  3.4919
 4627TIP3    H235373   0.673   1.891  10.713  1.1210  0.9284 -1.3270
 4628TIP3   OH235374   5.997   5.141  16.785  0.1750 -0.1145 -0.5489
 4628TIP3    H135375   5.914   5.190  16.779 -0.0951 -0.4382  0.3568
 4628TIP3    H235376   5.970   5.053  16.810  0.7389 -0.4405 -1.0967
 4629TIP3   OH235377   2.163   4.736  17.046  0.0108  0.6673  0.1765
 4629TIP3    H135378   2.167   4.786  17.128  0.3455  0.9272  0.0050
 4629TIP3    H235379   2.187   4.647  17.071  1.3098  0.9971  0.1598
 4630TIP3   OH235380   1.185   1.644   2.598 -0.1366 -0.5131 -0.0267
 4630TIP3    H135381   1.099   1.671   2.568  0.3551 -0.3310 -1.3319
 4630TIP3    H235382   1.193   1.682   2.686 -1.4955 -0.7990  0.2329
 4631TIP3   OH235383   5.677   4.794   5.835 -0.5180 -0.0787 -0.0386
 4631TIP3    H135384   5.659   4.817   5.744 -0.0855 -2.4965 -0.7987
 4631TIP3    H235385   5.763   4.832   5.853 -0.0851 -0.5626 -1.0332
 4632TIP3   OH235386   4.183   3.168  13.518 -0.5055  0.2396 -0.7041
 4632TIP3    H135387   4.266   3.119  13.521  0.4471  1.8473  0.6748
 4632TIP3    H235388   4.127   3.122  13.580  0.4972  1.0351  0.8453
 4633TIP3   OH235389   5.615   1.724   4.329 -0.0744 -0.1517 -0.2503
 4633TIP3    H135390   5.683   1.660   4.349  3.8816  2.7522 -2.9286
 4633TIP3    H235391   5.623   1.739   4.235 -2.0600  2.9319 -0.0617
 4634TIP3   OH235392   4.382   1.098   5.140  0.5949  0.3867 -0.2286
 4634TIP3    H135393   4.327   1.120   5.215  0.4192  2.1696 -0.8315
 4634TIP3    H235394   4.452   1.043   5.176  0.9441  1.8050  1.3893
 4635TIP3   OH235395   4.961   2.164  11.424 -0.2824  0.3595 -0.0291
 4635TIP3    H135396   4.865   2.175  11.427 -0.2251  0.7993  0.2345
 4635TIP3    H235397   4.975   2.071  11.441 -0.7267  0.0514 -1.2390
 4636TIP3   OH235398   2.572   5.321   5.721 -0.0022 -0.0301  0.5064
 4636TIP3    H135399   2.517   5.265   5.775 -0.9461  2.1552  1.9587
 4636TIP3    H235400   2.525   5.404   5.717  0.4818  0.2162 -3.0107
 4637TIP3   OH235401   4.994   0.273  17.075 -0.2680  0.0793  0.1762
 4637TIP3    H135402   4.950   0.314  17.001 -0.0540  1.3827  0.7495
 4637TIP3    H235403   5.019   0.346  17.132  0.1360 -0.8485  1.2247
 4638TIP3   OH235404   4.279   5.489   1.807 -0.3924 -0.6768 -0.8047
 4638TIP3    H135405   4.262   5.563   1.866  0.4056 -1.1866  0.1043
 4638TIP3    H235406   4.309   5.530   1.726 -0.0109  0.0123 -0.3309
 4639TIP3   OH235407   5.906   0.318  11.985 -0.4077  0.0667 -0.3829
 4639TIP3    H135408   5.963   0.277  11.919 -0.3012 -0.2004 -0.1299
 4639TIP3    H235409   5.862   0.389  11.939  0.0795  0.2281 -0.6014
 4640TIP3   OH235410   1.686   1.275  16.358 -0.3390  0.0287  0.2417
 4640TIP3    H135411   1.724   1.205  16.411 -0.0222  0.9211  1.2256
 4640TIP3    H235412   1.631   1.324  16.419  2.1082  2.7046  0.5170
 4641TIP3   OH235413   5.093   4.440  15.901  0.6024 -0.1747 -0.2204
 4641TIP3    H135414   5.086   4.441  15.997  1.1241  0.0735 -0.1820
 4641TIP3    H235415   5.028   4.504  15.871  1.4020  0.7846  0.0378
 4642TIP3   OH235416   3.788   2.839  16.580 -0.2085 -0.5611 -0.1546
 4642TIP3    H135417   3.800   2.928  16.612  1.5812 -1.1427  0.9244
 4642TIP3    H235418   3.752   2.791  16.654  2.8499 -1.6441  0.7850
 4643TIP3   OH235419   1.450   1.168   0.851 -0.5698  0.2138  0.1533
 4643TIP3    H135420   1.382   1.101   0.861 -0.9102  0.5005 -0.2090
 4643TIP3    H235421   1.522   1.123   0.808 -0.5961 -0.0475  0.3776
 4644TIP3   OH235422   4.242   3.741   3.663  0.4148  0.0735 -0.0645
 4644TIP3    H135423   4.178   3.770   3.728  0.8849  1.7387 -0.2970
 4644TIP3    H235424   4.261   3.650   3.688  1.5658  1.0178  3.0237
 4645TIP3   OH235425   4.189   3.580  16.755 -0.0229 -0.1859 -0.0486
 4645TIP3    H135426   4.207   3.650  16.818  2.1116 -2.4081  2.0055
 4645TIP3    H235427   4.141   3.514  16.805 -0.9654 -0.7309 -1.6057
 4646TIP3   OH235428   1.103   1.018  12.419  0.2251  0.1199  0.2204
 4646TIP3    H135429   1.076   1.005  12.328  1.5509 -1.3161 -0.0007
 4646TIP3    H235430   1.070   0.941  12.465 -0.7456  1.0063  1.0710
 4647TIP3   OH235431   5.182   1.804  11.965  0.2147 -0.1969 -0.1110
 4647TIP3    H135432   5.155   1.714  11.983 -0.1853  0.0584  0.6016
 4647TIP3    H235433   5.273   1.809  11.993  0.2505 -0.3897 -0.1944
 4648TIP3   OH235434   3.899   0.237  11.805  0.1421 -0.2426  0.9206
 4648TIP3    H135435   3.878   0.323  11.841  0.8173  0.3721 -0.1119
 4648TIP3    H235436   3.849   0.176  11.859 -0.8907  0.8443  1.2392
 4649TIP3   OH235437   5.695   5.669   4.281 -0.2932  0.2566  0.3644
 4649TIP3    H135438   5.678   5.750   4.330  1.9517 -0.6690  2.9709
 4649TIP3    H235439   5.761   5.694   4.216 -0.6954  0.8242  0.1720
 4650TIP3   OH235440   3.729   5.163  14.976  0.2818 -0.2965  0.5236
 4650TIP3    H135441   3.770   5.088  14.932  2.6219 -0.5759  2.9350
 4650TIP3    H235442   3.650   5.127  15.016 -1.5155 -0.1892 -2.5575
 4651TIP3   OH235443   0.026   4.246   0.673  0.3888  0.1361 -0.0576
 4651TIP3    H135444  -0.063   4.263   0.643  1.0421 -0.0970 -2.2975
 4651TIP3    H235445   0.064   4.333   0.687 -0.1594  0.2356  0.8988
 4652TIP3   OH235446   3.031   2.336   3.050 -0.1365  0.1216 -0.3503
 4652TIP3    H135447   3.044   2.327   3.144  1.3544  1.3066 -0.4103
 4652TIP3    H235448   3.053   2.250   3.015 -0.7419 -0.3399  0.3667
 4653TIP3   OH235449   5.381   4.008  14.540  0.2091 -0.0656  0.1743
 4653TIP3    H135450   5.448   4.044  14.481 -0.0493 -2.3533 -1.6384
 4653TIP3    H235451   5.313   4.076  14.542  0.8175  0.6285 -1.1159
 4654TIP3   OH235452   1.101   2.346   3.977 -0.3760  0.3173  0.1610
 4654TIP3    H135453   1.109   2.435   3.943 -0.5148 -0.0977 -0.9762
 4654TIP3    H235454   1.010   2.339   4.005 -0.0638  0.9182  1.3944
 4655TIP3   OH235455   1.226   6.660   3.453  0.2080 -0.0081  0.2468
 4655TIP3    H135456   1.319   6.640   3.459  0.5516  1.8559  2.6153
 4655TIP3    H235457   1.189   6.629   3.535 -0.6684  1.7605  0.5782
 4656TIP3   OH235458   1.246   5.748   0.266  0.5796 -0.0926 -0.3452
 4656TIP3    H135459   1.230   5.660   0.232  2.2624 -0.5757  0.0221
 4656TIP3    H235460   1.209   5.806   0.200 -0.9230 -1.0579 -0.4007
 4657TIP3   OH235461   6.805   1.199  15.186  0.6560  0.3721  0.7226
 4657TIP3    H135462   6.734   1.137  15.170  0.1314  0.9809  0.6525
 4657TIP3    H235463   6.793   1.227  15.277  0.7595  0.5366  0.6858
 4658TIP3   OH235464   0.411   0.702  13.346 -0.0708 -0.8620  0.7506
 4658TIP3    H135465   0.408   0.681  13.253 -2.1390 -2.3606  1.0949
 4658TIP3    H235466   0.342   0.768  13.358 -0.1072 -0.9959  1.3030
 4659TIP3   OH235467   6.321   0.140  12.170 -0.1743 -0.0747 -0.2111
 4659TIP3    H135468   6.381   0.181  12.107  0.0301  0.7641  0.5072
 4659TIP3    H235469   6.330   0.193  12.249 -0.7602 -0.8454  0.3859
 4660TIP3   OH235470   6.384   1.163   3.287  0.1841 -0.2215  0.2530
 4660TIP3    H135471   6.435   1.212   3.351 -0.3165 -0.9297  1.2355
 4660TIP3    H235472   6.327   1.228   3.246  0.4585  0.2350  0.5871
 4661TIP3   OH235473   4.723   2.476  17.034 -0.1351 -0.3127  0.1617
 4661TIP3    H135474   4.745   2.561  17.070 -1.0162 -0.1831  0.4036
 4661TIP3    H235475   4.803   2.447  16.989 -0.4021  1.4961 -1.6120
 4662TIP3   OH235476   5.422   0.107   0.534  0.1354  0.4000 -0.2267
 4662TIP3    H135477   5.488   0.163   0.576 -0.1853  1.3491 -0.9651
 4662TIP3    H235478   5.341   0.156   0.541 -0.7753 -1.2205  1.6288
 4663TIP3   OH235479   0.023   0.389  14.513 -0.1015 -0.0320  0.0273
 4663TIP3    H135480  -0.061   0.355  14.485  0.3821 -0.8593 -0.4677
 4663TIP3    H235481   0.035   0.469  14.462 -0.0411 -0.5699 -0.8212
 4664TIP3   OH235482   1.228   3.680  11.477  0.1881  0.0012 -0.5970
 4664TIP3    H135483   1.178   3.717  11.404  0.4863 -0.9121 -1.2820
 4664TIP3    H235484   1.172   3.612  11.513  0.7051 -0.6626 -1.0261
 4665TIP3   OH235485   0.987   4.933  13.452 -0.6748  0.6317  0.4366
 4665TIP3    H135486   1.001   4.921  13.359  0.0748 -0.9429  0.7167
 4665TIP3    H235487   1.062   4.891  13.494 -1.6029  0.1889  1.7686
 4666TIP3   OH235488   2.314   2.902   0.859 -0.2418  0.0105 -0.3718
 4666TIP3    H135489   2.323   2.819   0.813 -1.4020 -0.8578  0.9069
 4666TIP3    H235490   2.228   2.898   0.900  0.2077  1.3207  0.7741
 4667TIP3   OH235491   5.383   6.025  15.197 -0.5772 -0.0645 -0.6477
 4667TIP3    H135492   5.426   5.940  15.186 -1.1309 -0.5183  0.5567
 4667TIP3    H235493   5.325   6.013  15.272 -0.4615  1.4586 -0.2893
 4668TIP3   OH235494   0.858   1.649  14.376 -0.1254 -0.1742  0.4229
 4668TIP3    H135495   0.768   1.619  14.367 -0.0659 -0.3377  0.3740
 4668TIP3    H235496   0.903   1.578  14.422  0.1625 -0.4343 -0.2563
 4669TIP3   OH235497   0.386   0.730  12.530 -0.0033  0.1821 -0.2744
 4669TIP3    H135498   0.319   0.743  12.462 -2.2259 -3.8179  0.8598
 4669TIP3    H235499   0.457   0.684  12.485 -0.0918  0.2392 -0.4778
 4670TIP3   OH235500   5.392   4.800   3.580 -0.1037 -0.5306  0.5349
 4670TIP3    H135501   5.311   4.797   3.528 -1.0631  2.0403  1.7204
 4670TIP3    H235502   5.452   4.853   3.528  0.2614 -1.0687  0.4001
 4671TIP3   OH235503   4.409   3.195   3.084 -0.7771  0.3825  0.3644
 4671TIP3    H135504   4.502   3.196   3.065 -0.5923 -0.5455  1.1185
 4671TIP3    H235505   4.402   3.236   3.170 -0.9632 -0.1910  0.6330
 4672TIP3   OH235506   2.321   4.553   2.516  0.9183 -0.4675 -0.2073
 4672TIP3    H135507   2.362   4.467   2.522 -0.7449 -1.2247  2.0779
 4672TIP3    H235508   2.332   4.591   2.604 -1.6296 -0.0149  0.0028
 4673TIP3   OH235509   1.164   4.393  16.137 -0.0872 -0.0350  0.0823
 4673TIP3    H135510   1.182   4.322  16.200 -0.0335  0.7686  0.9915
 4673TIP3    H235511   1.158   4.348  16.052  1.9880 -0.8865  0.3227
 4674TIP3   OH235512   2.046   5.692   3.287  0.2716 -0.7195  0.2771
 4674TIP3    H135513   1.963   5.650   3.263 -0.5212  1.1900 -0.4605
 4674TIP3    H235514   2.094   5.698   3.205  0.1906  0.1892  0.2928
 4675TIP3   OH235515   5.907   4.515  16.857  0.0568  0.3473 -0.5815
 4675TIP3    H135516   5.968   4.518  16.930 -0.1097 -0.1290 -0.4219
 4675TIP3    H235517   5.841   4.582  16.878  1.3043  1.9204 -1.4713
 4676TIP3   OH235518   3.594   5.520  14.158  0.7330  0.5114  0.4390
 4676TIP3    H135519   3.609   5.609  14.126 -1.0514  1.5095  2.1541
 4676TIP3    H235520   3.621   5.464  14.085 -0.0432  2.5002 -1.5040
 4677TIP3   OH235521   5.740   5.809   1.298  0.4985 -0.0866  0.2487
 4677TIP3    H135522   5.698   5.895   1.303 -1.0082 -0.7846 -0.1006
 4677TIP3    H235523   5.694   5.756   1.363  1.9620 -0.4355  1.0518
 4678TIP3   OH235524   3.329   6.741   0.721 -0.6732 -0.4386  0.1781
 4678TIP3    H135525   3.385   6.816   0.741 -0.9069 -0.6438  1.7132
 4678TIP3    H235526   3.244   6.780   0.702 -0.9299 -0.3103  1.4897
 4679TIP3   OH235527   2.697   5.050  13.630  0.9146 -0.0433 -0.6780
 4679TIP3    H135528   2.742   5.072  13.712  0.6185 -0.4640 -0.3960
 4679TIP3    H235529   2.731   5.112  13.566  1.6025 -0.1044 -0.3757
 4680TIP3   OH235530   1.725   4.396   2.197 -0.5257  0.6353  0.0029
 4680TIP3    H135531   1.820   4.402   2.209 -0.6916  1.7980  0.9096
 4680TIP3    H235532   1.695   4.487   2.202 -1.7098  0.2656 -0.1585
 4681TIP3   OH235533   2.512   6.576   0.715  0.0629  0.0661 -0.0625
 4681TIP3    H135534   2.516   6.484   0.742 -0.2089 -0.3582 -1.3867
 4681TIP3    H235535   2.573   6.621   0.773  1.1845 -1.1752 -0.2325
 4682TIP3   OH235536   6.811   3.810  13.922 -0.9013  0.0318 -0.0453
 4682TIP3    H135537   6.795   3.715  13.928 -0.6824 -0.0208 -0.2880
 4682TIP3    H235538   6.764   3.837  13.843 -0.6144  0.0494 -0.2124
 4683TIP3   OH235539   1.512   4.075   2.836 -0.2202  0.0187  0.1276
 4683TIP3    H135540   1.572   4.065   2.763 -0.6889  0.1573 -0.2893
 4683TIP3    H235541   1.560   4.045   2.913 -0.2741 -1.7135 -0.4698
 4684TIP3   OH235542   4.960   2.726   0.239  0.2058 -0.0371 -0.3842
 4684TIP3    H135543   4.984   2.818   0.239  1.1636 -0.1868  2.5860
 4684TIP3    H235544   5.036   2.681   0.276 -1.2179 -1.6469  0.7342
 4685TIP3   OH235545   0.419   1.116   3.723 -0.2204 -0.0832 -0.6103
 4685TIP3    H135546   0.426   1.171   3.801 -0.6990  0.2698 -0.8145
 4685TIP3    H235547   0.494   1.057   3.729 -0.4858 -0.3473  0.3426
 4686TIP3   OH235548   2.631   5.853  16.323 -0.0024 -0.0698  0.1980
 4686TIP3    H135549   2.539   5.836  16.299  0.4061  0.0551 -1.6094
 4686TIP3    H235550   2.627   5.880  16.415 -1.8437  0.4583  0.0106
 4687TIP3   OH235551   4.262   1.373   0.006 -0.4083  0.2237  0.6165
 4687TIP3    H135552   4.313   1.433  -0.049  0.2187 -0.9578 -0.1561
 4687TIP3    H235553   4.213   1.320  -0.057  0.0985 -0.9658  1.1862
 4688TIP3   OH235554   5.671   1.688   0.281 -0.2060  0.3588 -0.5270
 4688TIP3    H135555   5.589   1.658   0.320 -0.7062  1.1874 -0.9077
 4688TIP3    H235556   5.735   1.620   0.303 -1.2096 -0.7969 -1.0688
 4689TIP3   OH235557   4.669   1.653   0.742 -0.0868 -0.1413  0.6024
 4689TIP3    H135558   4.593   1.701   0.709  0.1895  0.4970  0.8735
 4689TIP3    H235559   4.646   1.561   0.730 -0.6072  0.0543  0.0266
 4690TIP3   OH235560   4.214   4.449   2.708 -0.3189 -0.0301  0.0997
 4690TIP3    H135561   4.215   4.383   2.638  0.1352 -0.6460  0.6731
 4690TIP3    H235562   4.183   4.529   2.666  0.9110 -0.1213 -1.0578
 4691TIP3   OH235563   2.632   4.479   4.758  0.4874 -0.2116  0.1613
 4691TIP3    H135564   2.658   4.494   4.667  0.8952 -1.2622  0.0831
 4691TIP3    H235565   2.537   4.465   4.754  0.5354 -0.4607 -0.1312
 4692TIP3   OH235566   0.299   2.428   5.478 -0.3294  0.0389  1.0234
 4692TIP3    H135567   0.324   2.512   5.517  0.5692  0.6522 -0.7757
 4692TIP3    H235568   0.214   2.444   5.438 -0.0421  0.1821  0.4588
 4693TIP3   OH235569   2.947   0.226  15.736 -0.3925  0.5835 -0.1971
 4693TIP3    H135570   2.882   0.273  15.788 -1.0488  1.6434 -1.9093
 4693TIP3    H235571   2.902   0.201  15.656  0.5388 -1.1997 -0.2151
 4694TIP3   OH235572   4.218   0.818  14.181 -0.0911  1.4537 -0.0504
 4694TIP3    H135573   4.297   0.804  14.128  0.5816  1.2243  0.9839
 4694TIP3    H235574   4.205   0.913  14.180  0.5644  1.5564  0.2652
 4695TIP3   OH235575   0.646   4.715  11.387 -0.2731 -0.3754 -0.2742
 4695TIP3    H135576   0.596   4.665  11.322 -2.0974  1.4532 -0.3894
 4695TIP3    H235577   0.580   4.765  11.435  1.2646  0.2376  1.3230
 4696TIP3   OH235578   1.649   5.896   2.691 -0.1316  0.3399  0.3744
 4696TIP3    H135579   1.601   5.947   2.756  1.6089  2.0032  0.4529
 4696TIP3    H235580   1.582   5.848   2.643 -1.6737  1.1076  1.6896
 4697TIP3   OH235581   6.392   4.154   3.115  0.5866  0.1059  0.3885
 4697TIP3    H135582   6.432   4.173   3.200  0.7036 -0.2300  0.4103
 4697TIP3    H235583   6.354   4.237   3.087 -1.1496 -0.2060  1.6812
 4698TIP3   OH235584   2.993   6.066  13.270  0.3165  0.0097  0.0286
 4698TIP3    H135585   2.976   6.061  13.364  0.2954 -0.8830 -0.0218
 4698TIP3    H235586   2.927   6.128  13.237 -0.1176 -0.1982  0.4983
 4699TIP3   OH235587   5.439   5.980  11.413 -0.3625  0.0729 -0.0473
 4699TIP3    H135588   5.497   5.905  11.396 -0.5025 -0.1566  0.4676
 4699TIP3    H235589   5.351   5.946  11.399 -0.4905 -0.1605  1.2195
 4700TIP3   OH235590   4.986   0.108   1.181  0.4636  0.4748  0.7552
 4700TIP3    H135591   5.026   0.030   1.142 -2.6704 -0.0180 -1.9692
 4700TIP3    H235592   4.921   0.074   1.243 -0.2828  0.9170  0.2361
 4701TIP3   OH235593   6.494   3.788   5.697  0.1350  0.7273  0.5172
 4701TIP3    H135594   6.535   3.702   5.693 -2.5314 -0.6137 -0.0381
 4701TIP3    H235595   6.481   3.804   5.790  0.9583  0.7439  0.6443
 4702TIP3   OH235596   0.191   4.987  16.096  0.5428 -0.7442  0.4913
 4702TIP3    H135597   0.211   4.906  16.143 -3.0713 -0.5967  2.6953
 4702TIP3    H235598   0.107   4.970  16.053  1.3701  0.8007 -1.8820
 4703TIP3   OH235599   2.775   3.367  10.388 -0.0476  0.4148 -0.2671
 4703TIP3    H135600   2.682   3.360  10.411 -0.2080  0.6745 -0.8197
 4703TIP3    H235601   2.800   3.455  10.414 -0.8743  1.6481 -3.2579
 4704TIP3   OH235602   6.447   0.721   3.117 -0.0510  0.4299 -0.1991
 4704TIP3    H135603   6.458   0.758   3.030  1.7519  0.5522  0.0248
 4704TIP3    H235604   6.419   0.794   3.172 -2.8000  0.0138 -0.9259
 4705TIP3   OH235605   5.478   5.090  13.793 -0.5057 -0.2205  0.4413
 4705TIP3    H135606   5.485   5.049  13.879 -0.8488  2.2168  1.7391
 4705TIP3    H235607   5.465   5.183  13.812 -0.6829  0.3999 -2.2661
 4706TIP3   OH235608   0.068   4.952   0.865  0.5160  0.7463  0.5650
 4706TIP3    H135609  -0.005   5.000   0.903  1.2451  0.8318  1.9187
 4706TIP3    H235610   0.145   4.979   0.916  1.5462  0.8063 -0.9414
 4707TIP3   OH235611   0.240   1.296  16.770  0.6776 -0.2454  0.2624
 4707TIP3    H135612   0.224   1.389  16.785 -0.5737 -0.3790 -0.1587
 4707TIP3    H235613   0.265   1.262  16.856 -0.0121  0.2540  0.6654
 4708TIP3   OH235614   5.489   0.496  14.195  0.2509  0.4979 -0.6144
 4708TIP3    H135615   5.537   0.515  14.275  1.8275 -1.5621 -0.9731
 4708TIP3    H235616   5.519   0.562  14.132  0.2916  1.0940  0.0295
 4709TIP3   OH235617   3.805   4.936   1.192 -0.3026 -0.2044  0.3131
 4709TIP3    H135618   3.768   5.018   1.160 -0.8534 -0.8136 -0.6721
 4709TIP3    H235619   3.856   4.902   1.118  1.0225 -0.1190  1.1501
 4710TIP3   OH235620   2.543   6.576  12.329  0.1439  0.3033  0.3179
 4710TIP3    H135621   2.629   6.538  12.345 -0.1440 -1.3655 -1.6964
 4710TIP3    H235622   2.562   6.666  12.302  1.2505 -0.0465 -0.1227
 4711TIP3   OH235623   2.862   5.212   1.408 -0.0164  0.9879 -0.0751
 4711TIP3    H135624   2.954   5.207   1.381 -0.2957  0.5922 -0.9924
 4711TIP3    H235625   2.855   5.149   1.479  0.8400  2.3807  1.3236
 4712TIP3   OH235626   0.323   1.293   2.866 -0.2621  0.1108  0.4702
 4712TIP3    H135627   0.350   1.373   2.910  1.3851 -1.2398  2.1165
 4712TIP3    H235628   0.286   1.239   2.936 -2.2872 -0.2415 -0.7778
 4713TIP3   OH235629   6.807   2.551   1.628  0.3407  0.3987  0.3540
 4713TIP3    H135630   6.875   2.483   1.632 -0.4034 -0.3420  0.5582
 4713TIP3    H235631   6.856   2.632   1.612  1.2207 -0.2127 -0.1633
 4714TIP3   OH235632   2.270   0.147   6.538  0.5173 -0.4128 -0.0190
 4714TIP3    H135633   2.320   0.216   6.494 -0.2757  0.2650  0.1194
 4714TIP3    H235634   2.244   0.186   6.622  1.6256 -1.5278  0.8750
 4715TIP3   OH235635   2.199   1.540   5.685 -0.1282 -0.1254  0.0225
 4715TIP3    H135636   2.194   1.487   5.765 -1.1057 -0.4209 -0.2217
 4715TIP3    H235637   2.174   1.628   5.713  1.9360  0.3533  0.5209
 4716TIP3   OH235638   1.275   6.573   4.394 -0.2902  0.0556 -0.0462
 4716TIP3    H135639   1.187   6.610   4.382  0.4776  1.8762 -0.4087
 4716TIP3    H235640   1.307   6.615   4.474  0.4829 -0.1193 -0.2584
 4717TIP3   OH235641   2.170   0.918   1.185 -0.3733 -0.2217 -0.8923
 4717TIP3    H135642   2.154   0.824   1.174 -1.2983  0.0709 -2.3507
 4717TIP3    H235643   2.100   0.960   1.135  1.6521  1.2154 -2.6871
 4718TIP3   OH235644   2.840   0.658  13.281  0.0161 -0.0685  0.2982
 4718TIP3    H135645   2.851   0.707  13.200 -0.6626 -0.3453  0.0290
 4718TIP3    H235646   2.904   0.587  13.275  0.3834  0.2596  0.2842
 4719TIP3   OH235647   0.441   0.438  15.182 -1.1349 -0.5717  0.2330
 4719TIP3    H135648   0.426   0.515  15.237 -0.3576 -0.2358 -0.0101
 4719TIP3    H235649   0.536   0.423  15.187 -1.1281 -0.8432 -0.6165
 4720TIP3   OH235650   1.873   2.231  14.764  0.3918  0.3255  0.6327
 4720TIP3    H135651   1.810   2.166  14.733 -0.6429  0.7322  1.8187
 4720TIP3    H235652   1.860   2.306  14.705 -0.3596  0.4632  0.9604
 4721TIP3   OH235653   5.603   0.751  16.505 -0.2253 -0.1545 -0.3079
 4721TIP3    H135654   5.582   0.842  16.485 -1.8456 -0.3004  0.5425
 4721TIP3    H235655   5.633   0.752  16.596 -0.9329 -0.5316 -0.0567
 4722TIP3   OH235656   2.390   4.884  10.536  0.2176 -0.0572 -0.2811
 4722TIP3    H135657   2.412   4.839  10.617 -0.5066  0.1861  0.0591
 4722TIP3    H235658   2.330   4.824  10.491 -0.7700  0.5685  0.1847
 4723TIP3   OH235659   2.288   6.660   0.943  0.0875  0.2760  0.0297
 4723TIP3    H135660   2.382   6.642   0.939 -0.2187 -1.3427 -0.7595
 4723TIP3    H235661   2.261   6.667   0.851 -0.1572  3.3200  0.2490
 4724TIP3   OH235662   6.824   3.844  14.206  0.3583  0.0686  0.8002
 4724TIP3    H135663   6.811   3.843  14.111  0.2323  1.2615  0.7852
 4724TIP3    H235664   6.875   3.766  14.224 -0.6329 -0.8190 -0.1022
 4725TIP3   OH235665   4.649   3.987  10.710  0.7022  0.6625 -0.1043
 4725TIP3    H135666   4.618   4.061  10.658 -0.4896 -0.9927 -1.9177
 4725TIP3    H235667   4.606   3.911  10.671 -0.1396 -0.7678  3.2460
 4726TIP3   OH235668   3.874   4.419   1.369 -0.6986 -0.0923  0.3972
 4726TIP3    H135669   3.874   4.388   1.460 -1.6926  0.2417  0.5189
 4726TIP3    H235670   3.930   4.357   1.323  0.6062  0.2861  1.4151
 4727TIP3   OH235671   4.870   0.795  16.806  0.2028 -0.3535 -0.0141
 4727TIP3    H135672   4.825   0.863  16.856  0.0556  0.8986 -1.7427
 4727TIP3    H235673   4.929   0.754  16.868  1.1562  2.1529  0.8713
 4728TIP3   OH235674   4.634   3.054   0.557 -0.2798  0.7028  0.1677
 4728TIP3    H135675   4.689   3.006   0.619  2.5039  0.8928 -1.9627
 4728TIP3    H235676   4.687   3.130   0.532 -1.9762  1.4926 -1.2469
 4729TIP3   OH235677   0.216   1.645   2.063 -0.4020 -0.1590 -0.1909
 4729TIP3    H135678   0.151   1.614   2.000 -0.8673  1.8239 -0.7580
 4729TIP3    H235679   0.169   1.710   2.115  0.5789 -0.2037  0.7749
 4730TIP3   OH235680   2.957   6.813   1.965  0.0938 -0.1432  0.3523
 4730TIP3    H135681   3.007   6.736   1.992 -0.1328 -0.5812 -0.4449
 4730TIP3    H235682   3.023   6.879   1.942  0.2900  0.0771  1.4924
 4731TIP3   OH235683   3.403   2.787  11.769 -0.3345  0.3531  0.3168
 4731TIP3    H135684   3.360   2.865  11.804 -1.5190 -0.5287  0.9046
 4731TIP3    H235685   3.401   2.799  11.674  0.4181  1.4940  0.4271
 4732TIP3   OH235686   2.047   5.857  13.113  0.6746  0.0460 -0.9855
 4732TIP3    H135687   2.023   5.778  13.065  0.1198 -0.7198  0.5084
 4732TIP3    H235688   1.970   5.878  13.166  1.7618 -0.0047  0.6996
 4733TIP3   OH235689   3.573   5.012  15.347  0.1061 -0.2256 -0.0704
 4733TIP3    H135690   3.640   5.005  15.416  0.0291 -0.5920 -0.0338
 4733TIP3    H235691   3.582   4.932  15.297 -0.5800 -0.4656  0.1792
 4734TIP3   OH235692   2.155   4.165  14.056 -0.3934  0.6861 -0.4219
 4734TIP3    H135693   2.075   4.160  14.107  1.5130 -1.2024  2.6521
 4734TIP3    H235694   2.188   4.254  14.071 -0.6511  0.6522  0.3693
 4735TIP3   OH235695   5.158   4.691  14.635 -0.0459 -0.0325  0.0238
 4735TIP3    H135696   5.164   4.767  14.693 -2.9324 -0.2684  0.7754
 4735TIP3    H235697   5.200   4.620  14.683 -0.7197  0.2262  1.0189
 4736TIP3   OH235698   1.249   6.706   4.861  0.4756 -0.3055 -0.2382
 4736TIP3    H135699   1.164   6.710   4.904  0.2297  1.1609 -0.8103
 4736TIP3    H235700   1.297   6.638   4.909 -0.5410 -0.2192  0.9432
 4737TIP3   OH235701   3.202   2.594  11.042 -0.3139  0.0573 -0.0723
 4737TIP3    H135702   3.139   2.577  11.112  1.3600  0.9408  1.7402
 4737TIP3    H235703   3.284   2.557  11.074  0.2014 -0.8813 -2.2818
 4738TIP3   OH235704   5.718   2.845   5.600  0.3348 -0.0716  0.3568
 4738TIP3    H135705   5.779   2.780   5.635 -1.3408 -1.4043  0.9356
 4738TIP3    H235706   5.650   2.793   5.557  1.1339  1.4169 -3.0296
 4739TIP3   OH235707   5.060   1.074  15.878 -0.6422  0.1764  0.3517
 4739TIP3    H135708   5.114   0.997  15.861  2.2470  2.1491 -0.1200
 4739TIP3    H235709   4.999   1.046  15.947 -0.2048 -2.6885 -0.3216
 4740TIP3   OH235710   5.232   3.487   6.285  0.3647  0.3398 -0.0125
 4740TIP3    H135711   5.246   3.463   6.193  1.7767 -1.4276  0.5957
 4740TIP3    H235712   5.138   3.503   6.292 -0.1609 -1.7090 -1.3170
 4741TIP3   OH235713   6.636   6.792   6.182 -0.4032 -0.0908  0.1679
 4741TIP3    H135714   6.692   6.796   6.104  2.2548 -2.9746  1.6956
 4741TIP3    H235715   6.642   6.879   6.221  1.2172  0.3373 -0.9556
 4742TIP3   OH235716   0.728   2.796  14.742  0.4352  0.2349  1.0682
 4742TIP3    H135717   0.749   2.888  14.759  0.2687  0.8078 -1.5005
 4742TIP3    H235718   0.787   2.770  14.672  0.6148 -1.7264  1.8719
 4743TIP3   OH235719   0.096   0.071  13.202  0.2001  0.1330 -0.7310
 4743TIP3    H135720   0.016   0.098  13.246  0.0767 -1.7483  0.2766
 4743TIP3    H235721   0.160   0.062  13.273  0.3525 -1.6770 -1.0521
 4744TIP3   OH235722   6.013   5.157  15.902  0.1295 -0.2527  0.0217
 4744TIP3    H135723   6.099   5.196  15.917 -0.1219  0.4998 -0.4670
 4744TIP3    H235724   6.019   5.118  15.815 -0.8177  2.0616 -1.1410
 4745TIP3   OH235725   3.188   2.603  12.342  0.4214  0.5566  0.2538
 4745TIP3    H135726   3.268   2.588  12.392 -0.1590 -0.3485  0.9530
 4745TIP3    H235727   3.212   2.581  12.252  0.5425 -1.3920  0.7098
 4746TIP3   OH235728   1.803   6.564   4.651  0.0325  0.0831 -0.1420
 4746TIP3    H135729   1.879   6.545   4.706  0.8996  0.1458 -1.2891
 4746TIP3    H235730   1.838   6.613   4.577 -1.0398 -0.3652 -0.9810
 4747TIP3   OH235731   0.320   6.582   1.526 -0.0209  0.1237  0.6354
 4747TIP3    H135732   0.371   6.634   1.464 -0.1643 -1.1264 -0.5693
 4747TIP3    H235733   0.280   6.647   1.584  1.0525  1.2575  0.1627
 4748TIP3   OH235734   3.158   4.371  16.606  0.1372 -0.6211  0.1682
 4748TIP3    H135735   3.075   4.349  16.649 -0.4916  2.4759  0.7591
 4748TIP3    H235736   3.225   4.348  16.671 -0.4175 -0.8836  0.6597
 4749TIP3   OH235737   4.373   5.295  14.518  0.4218  0.0065  0.4908
 4749TIP3    H135738   4.306   5.229  14.536  0.0516  0.6305  1.4525
 4749TIP3    H235739   4.442   5.247  14.472 -0.1780 -0.8854  0.4976
 4750TIP3   OH235740   3.511   1.731   2.833  0.0546  0.2673 -1.0677
 4750TIP3    H135741   3.485   1.693   2.917  0.6437  1.0794 -0.5087
 4750TIP3    H235742   3.573   1.800   2.856  0.8839 -0.0608 -2.2204
 4751TIP3   OH235743   1.041   4.345   0.510 -0.8876  0.4540 -0.1455
 4751TIP3    H135744   1.073   4.264   0.469  1.6982  1.3515 -0.0669
 4751TIP3    H235745   1.002   4.316   0.592  1.6798 -0.6321  0.7846
 4752TIP3   OH235746   3.503   1.605  13.167  0.3685  0.6335  0.0957
 4752TIP3    H135747   3.420   1.635  13.129  0.2362  0.0815 -0.0644
 4752TIP3    H235748   3.554   1.685  13.181  0.0266  0.9259 -0.3147
 4753TIP3   OH235749   0.191   5.558   3.582  0.3115 -0.7698  0.2299
 4753TIP3    H135750   0.126   5.626   3.602 -1.1947 -1.9715 -0.3485
 4753TIP3    H235751   0.172   5.489   3.645  2.1320 -0.5231  1.1170
 4754TIP3   OH235752   3.310   3.420   5.034  0.3978  0.0295  0.0261
 4754TIP3    H135753   3.364   3.341   5.026 -0.6942 -0.6160 -1.6168
 4754TIP3    H235754   3.296   3.430   5.128 -0.4773 -2.5021  0.2462
 4755TIP3   OH235755   2.878   2.348  14.225  0.0750 -0.1239  0.9113
 4755TIP3    H135756   2.953   2.309  14.180  0.3159 -0.7135  1.7862
 4755TIP3    H235757   2.882   2.441  14.202  0.8610 -0.2135  0.6507
 4756TIP3   OH235758   0.660   5.432   0.078 -0.1179  0.1347  0.3126
 4756TIP3    H135759   0.566   5.424   0.094 -0.3311  1.0114 -0.3699
 4756TIP3    H235760   0.701   5.368   0.136 -1.2312 -1.3797 -0.5120
 4757TIP3   OH235761   2.034   1.248   3.461 -0.3566  0.8226 -0.0911
 4757TIP3    H135762   2.077   1.166   3.485  0.6393  0.9304 -1.3798
 4757TIP3    H235763   1.954   1.249   3.513 -1.8388 -2.3417 -1.9921
 4758TIP3   OH235764   4.269   3.045  11.840  0.0262  0.0423 -0.1491
 4758TIP3    H135765   4.294   3.098  11.915 -1.8654  2.2166 -0.9420
 4758TIP3    H235766   4.268   3.106  11.766  0.6975 -1.7761 -1.7639
 4759TIP3   OH235767   5.666   0.983   5.603 -0.3810 -0.3579  0.2677
 4759TIP3    H135768   5.714   0.991   5.685  0.1325  0.6376 -0.1104
 4759TIP3    H235769   5.576   0.962   5.630  0.3683 -3.0901  0.9556
 4760TIP3   OH235770   0.980   5.866   5.860  0.1943 -0.6870  0.0026
 4760TIP3    H135771   0.928   5.894   5.785 -0.8162 -1.6235  0.3160
 4760TIP3    H235772   0.923   5.804   5.906  0.9200 -0.3884  1.3507
 4761TIP3   OH235773   0.373   5.682   5.082  0.0901 -0.2493 -0.4525
 4761TIP3    H135774   0.282   5.652   5.078 -0.2769  0.6042  0.7972
 4761TIP3    H235775   0.421   5.622   5.024 -0.7925 -2.4633  0.9679
 4762TIP3   OH235776   5.029   3.300   0.634  0.7840 -0.3678 -0.2210
 4762TIP3    H135777   5.054   3.209   0.651  0.5716 -0.5954 -1.0666
 4762TIP3    H235778   5.044   3.345   0.717 -0.1670 -1.3977  0.5270
 4763TIP3   OH235779   1.284   4.937  14.036  0.9268  0.2954 -0.0532
 4763TIP3    H135780   1.312   4.923  13.946 -0.1807 -1.8072 -0.1457
 4763TIP3    H235781   1.361   4.919  14.089  0.8528 -1.4012 -0.4794
 4764TIP3   OH235782   6.619   6.531  14.757 -0.4657  0.0880 -0.4100
 4764TIP3    H135783   6.526   6.508  14.759 -0.9035  1.7431  0.0330
 4764TIP3    H235784   6.623   6.616  14.801  1.3279 -0.1634 -0.0469
 4765TIP3   OH235785   2.961   2.082  12.882 -0.0487  0.3576 -0.8082
 4765TIP3    H135786   3.008   2.000  12.896 -0.0818  0.4183 -0.3364
 4765TIP3    H235787   2.915   2.098  12.964  1.2279  1.6766 -0.3151
 4766TIP3   OH235788   0.129   1.159   0.493 -0.6371 -0.2506 -0.0544
 4766TIP3    H135789   0.079   1.103   0.434 -1.8625  1.2057 -0.4398
 4766TIP3    H235790   0.130   1.245   0.451  2.1066 -0.1473  0.0113
 4767TIP3   OH235791   6.282   0.320  14.395 -0.1287 -0.0909  0.2430
 4767TIP3    H135792   6.266   0.360  14.481 -2.3295  0.4987 -0.3772
 4767TIP3    H235793   6.198   0.327  14.350  1.3164  0.8839 -2.4937
 4768TIP3   OH235794   6.332   2.937   5.300  0.0255 -0.3274  0.1777
 4768TIP3    H135795   6.306   2.868   5.239 -0.4952  0.8765 -1.0047
 4768TIP3    H235796   6.425   2.922   5.316 -0.4068 -2.2272  1.2016
 4769TIP3   OH235797   6.662   6.116  13.368  0.1199 -0.1261  0.0649
 4769TIP3    H135798   6.742   6.067  13.382 -0.6673 -2.1021 -1.7392
 4769TIP3    H235799   6.610   6.101  13.447  1.1766  0.5440  0.9129
 4770TIP3   OH235800   3.281   4.855   5.316  0.0732 -0.3661  0.3922
 4770TIP3    H135801   3.345   4.808   5.370  2.1020  0.8703 -0.8109
 4770TIP3    H235802   3.278   4.806   5.234  0.0454  0.0071  0.1682
 4771TIP3   OH235803   2.821   2.825   4.506 -0.2462  0.0405  0.7064
 4771TIP3    H135804   2.768   2.750   4.535  1.7387 -1.2738  1.1849
 4771TIP3    H235805   2.870   2.791   4.430 -0.3329  1.3121  0.0575
 4772TIP3   OH235806   4.926   5.097  11.362 -0.6789 -0.2429 -0.2183
 4772TIP3    H135807   4.846   5.150  11.368 -0.0553  0.8107 -0.9239
 4772TIP3    H235808   4.907   5.020  11.415 -2.1684 -0.0212 -0.3692
 4773TIP3   OH235809   0.407   3.914  12.956  0.5576  0.3308  0.3969
 4773TIP3    H135810   0.409   3.854  13.031 -1.4368  0.9316  0.9828
 4773TIP3    H235811   0.350   3.985  12.984 -2.1109 -0.4982 -2.4304
 4774TIP3   OH235812   5.360   0.795  16.778  0.8916 -0.4148  0.1422
 4774TIP3    H135813   5.273   0.775  16.812  0.7805 -1.8577 -0.9111
 4774TIP3    H235814   5.408   0.830  16.853 -0.9537  1.6955  0.4369
 4775TIP3   OH235815   1.754   0.711  11.446 -0.0800  0.4665  0.4251
 4775TIP3    H135816   1.744   0.804  11.465  0.7756  0.7027 -0.2466
 4775TIP3    H235817   1.670   0.686  11.406 -1.5541  0.1892  3.3489
 4776TIP3   OH235818   4.111   4.705   0.634  0.2725 -0.5079  0.6454
 4776TIP3    H135819   4.142   4.770   0.571 -1.0849  0.2493  0.7279
 4776TIP3    H235820   4.191   4.665   0.668  1.0614 -0.3396 -0.9162
 4777TIP3   OH235821   1.594   2.052   4.671 -0.9240  0.2390 -0.0933
 4777TIP3    H135822   1.555   1.976   4.715 -2.9916 -0.7801 -3.3044
 4777TIP3    H235823   1.689   2.035   4.675 -1.2099 -1.3959  1.1101
 4778TIP3   OH235824   1.811   6.791   0.093  0.0983  0.1296 -0.4269
 4778TIP3    H135825   1.725   6.768   0.059  0.1374 -0.6466 -0.0203
 4778TIP3    H235826   1.843   6.858   0.033 -0.5461  0.0051 -0.9204
 4779TIP3   OH235827   4.662   5.257  16.884  0.1337 -0.1697  0.0107
 4779TIP3    H135828   4.694   5.326  16.942 -0.7055 -0.4792  0.8648
 4779TIP3    H235829   4.591   5.215  16.933 -1.2508  0.1657 -1.6088
 4780TIP3   OH235830   6.686   0.537   3.064  0.0774  0.5931  0.6015
 4780TIP3    H135831   6.638   0.574   3.139 -0.5053  1.0194  0.0327
 4780TIP3    H235832   6.686   0.443   3.079 -4.5610  0.0373 -1.3393
 4781TIP3   OH235833   3.334   5.621   6.151  0.0641 -0.1954  0.1838
 4781TIP3    H135834   3.246   5.645   6.123 -0.0277  0.2949  0.8739
 4781TIP3    H235835   3.388   5.631   6.072 -0.3893  0.0752 -0.0975
 4782TIP3   OH235836   4.876   6.575   3.962  0.1477 -0.5381  0.4800
 4782TIP3    H135837   4.908   6.579   4.052 -1.0656 -0.1390  0.9167
 4782TIP3    H235838   4.808   6.643   3.957  1.9131  1.2318 -1.4657
 4783TIP3   OH235839   6.481   6.434   6.670 -0.0367 -1.0625 -0.6590
 4783TIP3    H135840   6.421   6.403   6.738 -0.4589 -2.0653 -1.4486
 4783TIP3    H235841   6.553   6.370   6.671 -0.3678 -1.4701 -1.5684
 4784TIP3   OH235842   6.752   3.311  14.604  0.0813 -0.9290  0.1831
 4784TIP3    H135843   6.846   3.293  14.596  0.1383 -0.1276 -1.1645
 4784TIP3    H235844   6.717   3.296  14.517 -0.9477 -0.6264  0.5355
 4785TIP3   OH235845   3.899   1.669   4.476  0.2269 -0.2337 -0.1619
 4785TIP3    H135846   3.960   1.643   4.545 -1.3257 -0.1221  1.3189
 4785TIP3    H235847   3.931   1.754   4.446  1.2068 -0.5222  0.0419
 4786TIP3   OH235848   2.958   2.420  15.122 -0.0706  0.0923 -0.4714
 4786TIP3    H135849   3.024   2.483  15.095  0.1939  0.3167  0.6506
 4786TIP3    H235850   2.989   2.336  15.088  2.0241 -0.2206  1.8841
 4787TIP3   OH235851   1.245   5.110   4.889 -0.1874 -0.4316  0.0893
 4787TIP3    H135852   1.176   5.169   4.859 -2.1753 -2.0522  1.2766
 4787TIP3    H235853   1.295   5.091   4.809 -1.7155  0.0154 -1.0344
 4788TIP3   OH235854   6.140   3.894  15.999  0.1628 -0.4101 -0.4832
 4788TIP3    H135855   6.216   3.859  16.046  2.1715  0.3442 -2.9565
 4788TIP3    H235856   6.145   3.989  16.011 -1.6604 -0.4353  1.0165
 4789TIP3   OH235857   5.118   2.537  14.432 -0.4084  0.0743  0.5074
 4789TIP3    H135858   5.131   2.529  14.526 -1.9867  0.2575  0.7666
 4789TIP3    H235859   5.206   2.554  14.397  0.1706  0.1993  1.9528
 4790TIP3   OH235860   0.549   4.201  12.829 -0.0095 -0.1332  0.0259
 4790TIP3    H135861   0.583   4.282  12.791  0.2201  0.3423  1.2032
 4790TIP3    H235862   0.568   4.209  12.922 -2.6725 -0.1926  0.6515
 4791TIP3   OH235863   1.093   5.657   3.962 -0.9279  0.2784  0.2444
 4791TIP3    H135864   1.089   5.621   3.873 -1.1673 -0.0670  0.3915
 4791TIP3    H235865   1.001   5.673   3.985 -1.1285 -2.1496  1.4281
 4792TIP3   OH235866   4.994   0.800  12.696 -0.1234 -0.1022 -0.5313
 4792TIP3    H135867   4.972   0.873  12.638 -2.3762 -0.9153 -0.7670
 4792TIP3    H235868   4.973   0.722  12.646 -2.2214 -0.8297  1.3611
 4793TIP3   OH235869   5.714   0.532   6.046  0.0084 -0.9380 -0.1988
 4793TIP3    H135870   5.632   0.572   6.074  0.5856 -0.1421  0.3851
 4793TIP3    H235871   5.758   0.599   5.994  0.3116 -1.3398 -0.4704
 4794TIP3   OH235872   3.049   4.229  15.207  0.3101  0.1578 -0.1025
 4794TIP3    H135873   2.962   4.267  15.193 -0.0091 -0.2236  0.8143
 4794TIP3    H235874   3.056   4.162  15.139  0.6113  1.3609 -1.3102
 4795TIP3   OH235875   0.386   3.522  16.248  0.1460  0.3553  0.2519
 4795TIP3    H135876   0.406   3.610  16.281  0.5244  0.0648  0.7981
 4795TIP3    H235877   0.470   3.486  16.219  0.1846 -0.2684  1.1105
 4796TIP3   OH235878   2.613   2.640  11.396 -0.1043  0.2119  0.1849
 4796TIP3    H135879   2.688   2.698  11.383  1.3590 -1.2196  1.6165
 4796TIP3    H235880   2.613   2.584  11.318  0.1723  0.4067  0.0424
 4797TIP3   OH235881   4.435   2.251  12.454  0.5277  0.0653  0.6358
 4797TIP3    H135882   4.447   2.164  12.492  0.6895  0.4952  1.6015
 4797TIP3    H235883   4.348   2.278  12.485  0.4632  0.2384  0.3083
 4798TIP3   OH235884   3.641   4.947   0.604  0.7911 -0.1510  0.3360
 4798TIP3    H135885   3.661   4.956   0.511 -0.8514 -0.9488 -0.1365
 4798TIP3    H235886   3.637   4.852   0.619  0.0805 -0.0331  0.9788
 4799TIP3   OH235887   2.787   5.171  14.270 -0.4631 -0.0393 -0.4093
 4799TIP3    H135888   2.692   5.178  14.278 -0.3290  0.7001  0.8658
 4799TIP3    H235889   2.801   5.091  14.220 -1.7012 -2.0509  2.1523
 4800TIP3   OH235890   0.642   4.665  14.282  0.0643  0.0172  0.2699
 4800TIP3    H135891   0.710   4.645  14.219  0.3386  0.6577  0.3607
 4800TIP3    H235892   0.560   4.646  14.236  0.2903 -0.5627  0.0957
 4801TIP3   OH235893   6.002   5.209  11.245 -0.2160  0.0705 -0.2478
 4801TIP3    H135894   6.088   5.172  11.226  0.1963 -0.0583  1.6855
 4801TIP3    H235895   5.993   5.281  11.182  1.1659 -0.1112 -0.6948
 4802TIP3   OH235896   1.820   4.850   3.526 -0.0484  0.2663  0.2882
 4802TIP3    H135897   1.834   4.883   3.437 -0.3819  0.1320  0.1836
 4802TIP3    H235898   1.797   4.758   3.513  1.0456 -0.0629  0.5867
 4803TIP3   OH235899   2.338   6.682  16.295 -0.3961 -0.0229 -0.2575
 4803TIP3    H135900   2.384   6.656  16.216 -1.4400  0.8047 -1.1761
 4803TIP3    H235901   2.382   6.762  16.323 -0.4168  0.0262 -0.3651
 4804TIP3   OH235902   5.483   4.550  11.962  0.0837 -0.1503 -0.1309
 4804TIP3    H135903   5.467   4.538  11.868 -2.1172 -1.5173  0.3451
 4804TIP3    H235904   5.513   4.465  11.993  0.4579  0.1941  0.4714
 4805TIP3   OH235905   6.762   6.785   6.476 -0.0911 -0.3910  0.7816
 4805TIP3    H135906   6.728   6.871   6.500 -0.5543 -0.2490 -0.3227
 4805TIP3    H235907   6.686   6.727   6.480  0.2224 -0.7575  1.5389
 4806TIP3   OH235908   2.774   0.968  10.531  0.2803 -0.6002  0.2054
 4806TIP3    H135909   2.698   0.995  10.478  0.6373  3.0947  1.3147
 4806TIP3    H235910   2.846   0.964  10.468  0.0397  0.4739 -0.1670
 4807TIP3   OH235911   0.256   3.787   6.521  0.3259 -0.0720 -0.3282
 4807TIP3    H135912   0.214   3.801   6.606  0.7083 -0.1004 -0.1299
 4807TIP3    H235913   0.208   3.844   6.461  0.5046  0.5003  0.0534
 4808TIP3   OH235914   6.036   1.494  16.507 -0.6353  0.3159  0.1674
 4808TIP3    H135915   6.012   1.435  16.578 -2.8556 -2.2029 -2.3776
 4808TIP3    H235916   6.000   1.579  16.533 -1.9762 -0.6729  1.7499
 4809TIP3   OH235917   6.593   5.905  11.641  0.1417  0.2582  0.5722
 4809TIP3    H135918   6.625   5.836  11.698  2.0508  0.4371 -0.2123
 4809TIP3    H235919   6.615   5.875  11.553 -1.1543  0.7967  0.0408
 4810TIP3   OH235920   4.081   0.135   1.919 -0.2288 -0.0798 -0.5470
 4810TIP3    H135921   4.120   0.154   1.834 -0.9407 -0.9158 -1.0695
 4810TIP3    H235922   3.993   0.170   1.913 -0.5898 -0.9527 -0.4962
 4811TIP3   OH235923   3.258   5.835  13.481  0.1096  0.8021  0.0577
 4811TIP3    H135924   3.180   5.873  13.522  0.7778  0.1366  2.0988
 4811TIP3    H235925   3.237   5.742  13.472  0.9263  0.4648  1.3911
 4812TIP3   OH235926   4.603   5.382   5.821 -0.3999 -0.2946  0.5018
 4812TIP3    H135927   4.600   5.470   5.860  1.6090  1.4367 -2.8057
 4812TIP3    H235928   4.694   5.355   5.833  0.1765  0.1141 -2.3105
 4813TIP3   OH235929   5.123   0.970  16.810  0.3141 -0.1684 -0.0967
 4813TIP3    H135930   5.050   1.018  16.848  0.4488  0.2135 -0.3181
 4813TIP3    H235931   5.085   0.887  16.781  0.2187 -0.4846  0.9014
 4814TIP3   OH235932   2.113   1.551   4.789  0.4034  0.2112 -0.6486
 4814TIP3    H135933   2.166   1.471   4.793  2.0568  1.2531 -0.3651
 4814TIP3    H235934   2.028   1.526   4.825 -0.1877 -2.1445 -3.3213
 4815TIP3   OH235935   6.057   1.202   2.188  0.1697  0.1269 -0.2536
 4815TIP3    H135936   6.017   1.284   2.159 -0.2977 -0.2168 -0.5900
 4815TIP3    H235937   5.990   1.160   2.241  1.0826  0.8543  1.6199
 4816TIP3   OH235938   2.534   6.347  11.154  0.2872 -0.8086 -0.1506
 4816TIP3    H135939   2.453   6.342  11.103  0.6882 -1.4278 -0.7388
 4816TIP3    H235940   2.603   6.349  11.088  0.7354  0.1934  0.3369
 4817TIP3   OH235941   1.358   4.242  12.998  0.0480  0.8869 -0.1619
 4817TIP3    H135942   1.268   4.263  13.022  0.9763  1.8359  2.9907
 4817TIP3    H235943   1.351   4.201  12.912 -3.8499 -2.8831  1.5826
 4818TIP3   OH235944   2.488   0.661   4.996  0.4758 -0.0357 -0.0715
 4818TIP3    H135945   2.455   0.571   5.004  0.0254  0.2023  1.1033
 4818TIP3    H235946   2.498   0.690   5.087 -1.0106  1.6656 -0.3857
 4819TIP3   OH235947   0.216   2.304  15.623 -0.7608 -0.1823 -0.0581
 4819TIP3    H135948   0.290   2.279  15.568 -0.2979 -0.4134  0.6526
 4819TIP3    H235949   0.160   2.227  15.625 -1.0272 -0.0005 -0.6142
 4820TIP3   OH235950   5.056   4.804  10.617  0.0225  0.1412  0.3647
 4820TIP3    H135951   4.974   4.763  10.644 -0.9210  1.2323 -0.6843
 4820TIP3    H235952   5.092   4.841  10.697 -0.8994  0.2690  0.7346
 4821TIP3   OH235953   5.218   6.573   5.704 -0.6396  0.1280 -0.9422
 4821TIP3    H135954   5.248   6.603   5.618  0.8106  1.3021 -0.0581
 4821TIP3    H235955   5.277   6.501   5.726  1.0880  1.8657  0.4070
 4822TIP3   OH235956   3.249   4.101   3.286 -0.2671  0.2797 -0.1778
 4822TIP3    H135957   3.213   4.189   3.271 -2.0282 -0.6215 -1.6147
 4822TIP3    H235958   3.303   4.111   3.364 -0.6230  2.5821 -0.1423
 4823TIP3   OH235959   3.197   5.448  14.655 -1.1811 -0.1921  0.3159
 4823TIP3    H135960   3.268   5.398  14.694  0.2904  1.0061 -0.7340
 4823TIP3    H235961   3.180   5.518  14.718 -0.6032  0.2289 -0.0007
 4824TIP3   OH235962   5.392   4.586   3.818 -0.3048 -0.5087 -0.7306
 4824TIP3    H135963   5.379   4.525   3.746  0.1374 -0.7998 -0.5701
 4824TIP3    H235964   5.476   4.560   3.856 -1.1998 -1.2935  0.7992
 4825TIP3   OH235965   3.479   4.759   6.298 -0.5773 -0.7425  0.2921
 4825TIP3    H135966   3.571   4.769   6.275 -0.9579  1.4661 -0.5519
 4825TIP3    H235967   3.475   4.778   6.391 -0.3849  1.1946 -0.0516
 4826TIP3   OH235968   6.698   2.392   4.530  0.2758  0.2964 -0.4236
 4826TIP3    H135969   6.687   2.298   4.541  1.7745  0.0170 -1.0709
 4826TIP3    H235970   6.660   2.430   4.609 -0.2382 -0.8581 -0.1015
 4827TIP3   OH235971   5.370   1.931   5.240  0.1728  0.5370 -0.1389
 4827TIP3    H135972   5.325   1.850   5.219 -1.4065  1.5436 -0.8598
 4827TIP3    H235973   5.299   1.993   5.258  1.3154  1.0651  3.2864
 4828TIP3   OH235974   6.674   3.057   0.731  1.0244  0.0213  0.1819
 4828TIP3    H135975   6.724   3.088   0.807  0.4950  0.1719  0.4757
 4828TIP3    H235976   6.687   3.125   0.665 -0.9061  1.4343  1.1402
 4829TIP3   OH235977   3.187   6.704   4.218 -0.4197  0.2796  0.0780
 4829TIP3    H135978   3.250   6.633   4.203 -0.6404  0.3805 -1.4797
 4829TIP3    H235979   3.110   6.660   4.252 -0.2917 -0.1515 -0.1698
 4830TIP3   OH235980   0.206   1.083   4.629  0.8497  0.2457 -0.1594
 4830TIP3    H135981   0.161   1.129   4.558 -2.3220 -2.3792 -0.0806
 4830TIP3    H235982   0.263   1.149   4.667  0.6213  2.5450 -3.3522
 4831TIP3   OH235983   5.849   5.254   0.410  0.1150  0.1767 -0.2255
 4831TIP3    H135984   5.852   5.337   0.458  0.1831  0.2204 -0.3049
 4831TIP3    H235985   5.758   5.226   0.416 -0.1683  0.8375 -1.1841
 4832TIP3   OH235986   5.638   4.457  14.165 -0.4485 -0.1157  0.1896
 4832TIP3    H135987   5.640   4.423  14.255  0.1797 -0.7147 -0.0331
 4832TIP3    H235988   5.545   4.467  14.145 -0.6056 -0.2990  0.7951
 4833TIP3   OH235989   3.324   5.629  15.732 -0.1731  0.1045 -0.3395
 4833TIP3    H135990   3.323   5.538  15.762  0.4691 -0.2361 -1.2865
 4833TIP3    H235991   3.316   5.681  15.812 -3.3588 -0.7513  0.0250
 4834TIP3   OH235992   6.017   1.511   5.460  0.4335  0.2380 -0.0876
 4834TIP3    H135993   5.929   1.493   5.493  0.2709 -0.4321 -0.8450
 4834TIP3    H235994   6.074   1.504   5.537  0.1710 -2.0524 -0.0320
 4835TIP3   OH235995   6.235   0.326   5.828 -0.3381  0.0124 -0.2093
 4835TIP3    H135996   6.160   0.336   5.769  0.4944 -1.8159 -1.6837
 4835TIP3    H235997   6.220   0.243   5.872  0.5317 -0.1052 -0.1103
 4836TIP3   OH235998   0.804   4.869   2.197 -0.1415  0.0727  0.8553
 4836TIP3    H135999   0.795   4.914   2.281  0.1662 -0.4803  1.1954
 4836TIP3    H236000   0.842   4.784   2.220 -0.9162 -0.4503  0.2590
 4837TIP3   OH236001   0.561   5.086  16.711 -0.3439 -0.2240 -0.2570
 4837TIP3    H136002   0.651   5.068  16.738 -0.7612 -0.7056  0.8899
 4837TIP3    H236003   0.520   5.123  16.789 -1.9765 -2.9355  0.2942
 4838TIP3   OH236004   0.839   1.224  13.591 -0.2068 -0.1355 -0.2233
 4838TIP3    H136005   0.766   1.165  13.571 -0.5114 -0.3863  1.4931
 4838TIP3    H236006   0.915   1.184  13.549 -0.5472 -1.3785  0.3111
 4839TIP3   OH236007   1.913   3.705  11.711  0.7662  0.0684 -0.0230
 4839TIP3    H136008   1.822   3.676  11.714  1.1202 -1.0868  0.2137
 4839TIP3    H236009   1.928   3.730  11.620  0.3548 -0.2291 -0.1748
 4840TIP3   OH236010   2.589   0.382  16.587  0.6803  0.2304 -0.0729
 4840TIP3    H136011   2.624   0.448  16.646 -0.2177  0.9554 -0.3237
 4840TIP3    H236012   2.530   0.329  16.641  1.9973 -0.9031  0.3165
 4841TIP3   OH236013   3.454   6.650  13.987  0.1184 -1.1388  0.3163
 4841TIP3    H136014   3.432   6.575  14.041  0.7219 -1.3761  0.2471
 4841TIP3    H236015   3.532   6.687  14.029 -1.2912  0.6371  1.5083
 4842TIP3   OH236016   1.426   2.071   3.901 -0.7753 -0.5518 -0.6406
 4842TIP3    H136017   1.483   2.115   3.837 -0.9659  0.5273 -0.0915
 4842TIP3    H236018   1.405   2.139   3.965 -3.3261 -0.6755 -1.2300
 4843TIP3   OH236019   6.469   5.469   1.565 -0.4357  0.0719 -0.3288
 4843TIP3    H136020   6.547   5.520   1.540 -0.6743  0.3824 -0.4451
 4843TIP3    H236021   6.450   5.498   1.654  0.1294 -0.6849  0.0547
 4844TIP3   OH236022   2.033   2.043  12.908  0.5394 -0.1420  0.3862
 4844TIP3    H136023   2.009   1.953  12.928  0.3376 -0.5515 -1.4677
 4844TIP3    H236024   2.076   2.038  12.822  0.4935  1.5146  0.2248
 4845TIP3   OH236025   5.574   1.371  13.591  0.1025 -0.0091 -0.6913
 4845TIP3    H136026   5.661   1.402  13.615 -0.0502 -0.0348 -0.0988
 4845TIP3    H236027   5.519   1.450  13.593  0.2735  0.1608 -1.8872
 4846TIP3   OH236028   4.982   5.148  17.073 -0.7673 -0.1598 -0.1187
 4846TIP3    H136029   5.002   5.055  17.065 -0.8137 -0.2969  1.2234
 4846TIP3    H236030   5.043   5.180  17.139 -1.1893  0.6283 -0.1049
 4847TIP3   OH236031   2.596   5.767   5.004 -0.2817  0.2544  0.5859
 4847TIP3    H136032   2.546   5.741   5.082  1.1850 -0.4411  1.3351
 4847TIP3    H236033   2.619   5.859   5.020 -2.6146  1.1013 -0.5120
 4848TIP3   OH236034   4.026   0.511   2.120  0.0135 -0.2664  0.0792
 4848TIP3    H136035   4.054   0.552   2.038 -1.4212  0.0468 -0.2771
 4848TIP3    H236036   3.976   0.434   2.094 -2.2516  0.9492  0.5117
 4849TIP3   OH236037   3.217   5.295  11.689  0.2304 -0.5005 -0.3378
 4849TIP3    H136038   3.176   5.279  11.604 -0.6889 -0.7765  0.1457
 4849TIP3    H236039   3.306   5.323  11.668 -0.5814  1.4514 -1.5006
 4850TIP3   OH236040   6.666   5.685   6.802  0.0738  0.2489  0.2845
 4850TIP3    H136041   6.635   5.775   6.800 -0.2647  0.1931  1.7714
 4850TIP3    H236042   6.613   5.643   6.869 -0.0900 -1.1950 -0.7074
 4851TIP3   OH236043   1.852   1.760  15.656 -0.3343 -0.8104 -0.1865
 4851TIP3    H136044   1.868   1.854  15.660 -0.1470 -0.8717  2.1702
 4851TIP3    H236045   1.927   1.725  15.610 -0.0594  0.1257 -0.4755
 4852TIP3   OH236046   5.904   0.970   4.069 -0.0678 -0.2889  0.1320
 4852TIP3    H136047   5.891   1.035   4.000 -0.7626 -0.2651  0.2750
 4852TIP3    H236048   5.965   1.011   4.130 -1.0929  0.5639  0.6271
 4853TIP3   OH236049   6.412   3.540  13.678 -0.2059 -0.2627  0.1306
 4853TIP3    H136050   6.376   3.591  13.750 -1.7434 -0.9661 -0.1115
 4853TIP3    H236051   6.345   3.543  13.609  1.3428  0.6571 -1.4417
 4854TIP3   OH236052   2.588   2.200   3.286  0.0552  0.1729  0.1660
 4854TIP3    H136053   2.581   2.185   3.380 -0.8714 -0.8835 -0.0572
 4854TIP3    H236054   2.664   2.258   3.277  2.2044 -2.2917  1.3045
 4855TIP3   OH236055   0.215   1.563  11.316  0.4183 -0.1813 -0.6602
 4855TIP3    H136056   0.160   1.590  11.389  3.0401  1.2246  0.9417
 4855TIP3    H236057   0.215   1.467  11.320  0.5856 -0.1350  1.2895
 4856TIP3   OH236058   4.628   5.612  13.856  0.0986 -0.2452 -0.0902
 4856TIP3    H136059   4.643   5.659  13.937  1.2908 -1.8613  0.6847
 4856TIP3    H236060   4.602   5.679  13.793 -0.4653  1.0900  1.5074
 4857TIP3   OH236061   3.436   5.817  12.714 -0.1911 -0.0299  0.0114
 4857TIP3    H136062   3.377   5.868  12.770 -1.1337  0.5326 -1.4221
 4857TIP3    H236063   3.383   5.742  12.686  0.3932 -0.5066  0.1651
 4858TIP3   OH236064   2.614   0.294  12.288 -0.4635  0.1028  0.0090
 4858TIP3    H136065   2.519   0.286  12.279 -0.2226 -2.7369 -1.2782
 4858TIP3    H236066   2.643   0.338  12.208 -0.6021 -0.4337 -0.3431
 4859TIP3   OH236067   2.639   1.625  16.991  0.0042 -0.1312 -0.3669
 4859TIP3    H136068   2.731   1.634  17.015 -0.0941  0.6944 -0.2670
 4859TIP3    H236069   2.610   1.715  16.974 -0.6484 -0.4377 -0.8959
 4860TIP3   OH236070   3.504   0.673   4.194  0.1337  0.5652  0.0449
 4860TIP3    H136071   3.478   0.625   4.273 -0.0664 -0.7240 -0.7942
 4860TIP3    H236072   3.597   0.691   4.207 -0.2315  1.7654  1.2770
 4861TIP3   OH236073   5.860   5.995  15.527 -0.3577 -0.1052 -0.4472
 4861TIP3    H136074   5.880   6.084  15.556 -0.8166  0.4928 -1.8659
 4861TIP3    H236075   5.920   5.980  15.454 -0.1597 -1.0408 -0.1036
 4862TIP3   OH236076   3.786   2.605  12.347 -0.1374  0.5508  0.0890
 4862TIP3    H136077   3.779   2.694  12.382 -3.9595  0.5333 -0.2693
 4862TIP3    H236078   3.769   2.614  12.254  2.9537 -0.2666 -0.6680
 4863TIP3   OH236079   0.907   6.180  11.739 -0.4721  0.0812 -0.0764
 4863TIP3    H136080   0.838   6.213  11.681 -0.4436  0.0681 -0.1176
 4863TIP3    H236081   0.944   6.106  11.692 -1.3557 -0.7820  0.5371
 4864TIP3   OH236082   3.629   2.960   4.247  0.1060  0.4039 -0.2297
 4864TIP3    H136083   3.708   2.998   4.286  0.0981  0.4231 -0.2327
 4864TIP3    H236084   3.557   3.014   4.280 -0.0675 -0.5757  1.0531
 4865TIP3   OH236085   1.954   4.007  14.848 -0.2395  0.7083 -0.1911
 4865TIP3    H136086   2.016   4.052  14.905 -1.5635  1.4172  0.7463
 4865TIP3    H236087   1.980   3.915  14.852  0.9778  1.0372 -0.1517
 4866TIP3   OH236088   1.995   4.484   6.418  0.1052 -0.0188  0.0030
 4866TIP3    H136089   1.953   4.473   6.333  1.0599  2.3440 -0.8802
 4866TIP3    H236090   1.946   4.427   6.477 -0.7590 -1.5315 -2.0472
 4867TIP3   OH236091   3.114   1.039   3.403  0.3914  0.1876  0.3909
 4867TIP3    H136092   3.124   1.011   3.494 -1.7071  0.8360  0.8964
 4867TIP3    H236093   3.179   0.989   3.354  1.3060 -0.4537  2.1916
 4868TIP3   OH236094   2.159   6.337  14.085  0.5980 -0.4344 -0.0504
 4868TIP3    H136095   2.203   6.314  14.167  3.1473  0.7099 -1.0153
 4868TIP3    H236096   2.066   6.339  14.109  1.1490 -1.2031  2.5314
 4869TIP3   OH236097   5.723   0.875  12.630  0.4525 -0.0884  0.1596
 4869TIP3    H136098   5.788   0.875  12.701 -0.8194  1.0831  1.3833
 4869TIP3    H236099   5.673   0.794  12.644  0.3907 -0.0052  0.4294
 4870TIP3   OH236100   4.313   3.739   2.774 -0.3106  0.5519 -0.0070
 4870TIP3    H136101   4.288   3.829   2.795  0.3000  0.2326  2.4159
 4870TIP3    H236102   4.367   3.712   2.848 -0.9045 -1.9836 -0.4277
 4871TIP3   OH236103   4.452   3.770  11.744 -0.2705 -0.1566 -0.1304
 4871TIP3    H136104   4.538   3.755  11.704 -0.4354 -1.1503 -0.1417
 4871TIP3    H236105   4.470   3.770  11.838 -0.1478  0.3987 -0.1518
 4872TIP3   OH236106   0.378   2.233  11.189  0.0010  0.5137  0.0380
 4872TIP3    H136107   0.394   2.140  11.207  0.5029  0.5179 -0.3702
 4872TIP3    H236108   0.303   2.232  11.130  0.1050  0.3581 -0.0931
 4873TIP3   OH236109   0.974   3.436  14.010 -0.1290 -0.4386 -0.4104
 4873TIP3    H136110   0.922   3.504  14.053  3.1844  2.4625 -0.6006
 4873TIP3    H236111   1.036   3.407  14.077  1.8893  0.6094 -1.7170
 4874TIP3   OH236112   5.247   5.796  15.114 -0.0529 -0.6345  0.2509
 4874TIP3    H136113   5.320   5.777  15.172 -0.0843  0.2743  0.6090
 4874TIP3    H236114   5.178   5.736  15.141  0.3405 -1.0371  0.3554
 4875TIP3   OH236115   3.578   2.484  16.190 -0.1909 -0.0912  0.2120
 4875TIP3    H136116   3.564   2.520  16.277 -0.1014 -0.3416  0.3310
 4875TIP3    H236117   3.532   2.400  16.191 -2.1961  0.8979 -0.7231
 4876TIP3   OH236118   1.652   4.185   5.012 -0.1678 -0.6404  0.4743
 4876TIP3    H136119   1.615   4.128   5.080 -0.9326  0.3202  0.8756
 4876TIP3    H236120   1.621   4.272   5.034  0.9744 -0.0561 -0.1607
 4877TIP3   OH236121   3.131   3.143  13.090 -0.0683 -0.3352  0.3566
 4877TIP3    H136122   3.046   3.123  13.052  0.0828  1.3626 -0.9793
 4877TIP3    H236123   3.157   3.062  13.134 -2.3642 -0.8882  0.8318
 4878TIP3   OH236124   1.782   0.362   4.032  0.3846 -0.6289  0.2602
 4878TIP3    H136125   1.716   0.364   4.101 -1.0954 -0.7839 -1.1004
 4878TIP3    H236126   1.860   0.324   4.074 -1.0286 -2.4602  1.3723
 4879TIP3   OH236127   4.293   5.767   4.793  0.0627 -0.3429 -0.9725
 4879TIP3    H136128   4.333   5.738   4.875  0.1983  3.5595  0.6074
 4879TIP3    H236129   4.367   5.789   4.737  0.3072  2.7425  0.3249
 4880TIP3   OH236130   4.005   6.124   2.602  0.4457 -0.4734  0.1702
 4880TIP3    H136131   3.917   6.096   2.628  1.1339 -1.5472  1.4938
 4880TIP3    H236132   4.044   6.160   2.681  1.4503 -0.7004 -0.1932
 4881TIP3   OH236133   2.158   4.678   1.967  0.3313  0.5167  0.8318
 4881TIP3    H136134   2.208   4.692   1.887 -1.9013  1.7561 -0.4528
 4881TIP3    H236135   2.189   4.746   2.028  1.7525 -0.1814  0.9355
 4882TIP3   OH236136   4.050   5.333  13.884 -0.2690  0.2927 -0.0038
 4882TIP3    H136137   4.040   5.422  13.917 -0.1733  0.4664 -0.4529
 4882TIP3    H236138   3.967   5.290  13.907 -0.0139  0.2645  0.9137
 4883TIP3   OH236139   5.099   3.787   5.763 -0.6641  0.3942 -0.0757
 4883TIP3    H136140   5.194   3.783   5.750 -0.6555 -2.2092  0.1639
 4883TIP3    H236141   5.089   3.791   5.858 -0.7592 -1.0541 -0.0034
 4884TIP3   OH236142   3.567   6.208   4.757  0.2244 -0.0117 -0.5311
 4884TIP3    H136143   3.585   6.227   4.665  0.8287  1.1589 -0.1988
 4884TIP3    H236144   3.654   6.199   4.797  0.0406  1.4204  0.2788
 4885TIP3   OH236145   3.239   3.990  17.195 -0.6668 -0.1906 -0.4156
 4885TIP3    H136146   3.313   4.044  17.167 -0.5070 -0.3420 -0.2821
 4885TIP3    H236147   3.207   4.032  17.274 -0.8239 -0.0340 -0.5587
 4886TIP3   OH236148   4.622   6.629   1.458  0.1579  0.6445 -0.1055
 4886TIP3    H136149   4.575   6.712   1.458 -2.9915 -0.9641  0.6436
 4886TIP3    H236150   4.640   6.611   1.550 -1.4269 -0.5752  0.0063
 4887TIP3   OH236151   5.289   2.982  16.509 -0.0141 -0.5178  0.4036
 4887TIP3    H136152   5.230   2.974  16.584 -0.1110  1.7283  0.6576
 4887TIP3    H236153   5.365   3.029  16.544 -0.7562  2.0701 -1.1459
 4888TIP3   OH236154   0.494   2.512  15.365  0.3883 -0.1952  0.3540
 4888TIP3    H136155   0.498   2.455  15.289  0.4545 -1.6674  1.4212
 4888TIP3    H236156   0.503   2.453  15.440 -0.6535  1.0830  1.5426
 4889TIP3   OH236157   0.835   2.177  12.668 -0.4819  0.6445  0.5934
 4889TIP3    H136158   0.785   2.156  12.747 -2.0052  0.6000 -0.3589
 4889TIP3    H236159   0.926   2.161  12.694 -1.1290 -2.1657  1.4966
 4890TIP3   OH236160   4.701   3.232   3.048  0.4457  0.0688 -0.8151
 4890TIP3    H136161   4.731   3.313   3.089  0.7959 -0.1832 -0.5672
 4890TIP3    H236162   4.758   3.221   2.972  1.7595 -0.9928  0.2735
 4891TIP3   OH236163   1.971   3.606  15.978 -0.8093 -0.1509  0.7908
 4891TIP3    H136164   2.025   3.573  15.906  0.5047  1.2425  1.0882
 4891TIP3    H236165   1.881   3.586  15.951 -0.2523 -1.1325 -0.4582
 4892TIP3   OH236166   3.394   3.341   3.826 -1.0926  0.4446  0.4172
 4892TIP3    H136167   3.314   3.367   3.779 -0.6741  0.4306 -0.3196
 4892TIP3    H236168   3.425   3.264   3.778 -0.7214  0.3524  0.8025
 4893TIP3   OH236169   0.386   1.370   2.189 -0.0258 -0.3756  0.6392
 4893TIP3    H136170   0.393   1.312   2.264 -0.6253 -0.8131  0.3723
 4893TIP3    H236171   0.294   1.396   2.188  0.0226 -0.2144  0.1762
 4894TIP3   OH236172   0.528   3.357   4.718 -0.1235 -0.1672 -0.2626
 4894TIP3    H136173   0.521   3.266   4.688 -1.3865 -0.0947 -0.2362
 4894TIP3    H236174   0.559   3.406   4.641 -1.1101 -0.3522 -0.7924
 4895TIP3   OH236175   4.495   5.196   4.016 -0.1295  0.0984 -0.7347
 4895TIP3    H136176   4.437   5.208   3.941  1.5580  0.6439 -2.0179
 4895TIP3    H236177   4.514   5.102   4.018 -0.9672 -0.0747 -0.3409
 4896TIP3   OH236178   6.157   2.854   3.600  0.3271 -0.2854  0.5129
 4896TIP3    H136179   6.248   2.837   3.574  0.3072 -0.9732  0.8676
 4896TIP3    H236180   6.161   2.935   3.650  0.5138  0.5291 -0.7651
 4897TIP3   OH236181   5.561   1.317  11.772  0.1206 -0.4609 -0.5678
 4897TIP3    H136182   5.630   1.281  11.716 -1.3507  0.7179 -3.3466
 4897TIP3    H236183   5.489   1.337  11.711 -1.5233  1.1662  1.7446
 4898TIP3   OH236184   0.405   0.841  16.383 -0.1253 -0.0513  0.4044
 4898TIP3    H136185   0.490   0.802  16.361 -0.2291 -0.2664  0.3813
 4898TIP3    H236186   0.351   0.767  16.410 -0.6990 -0.1037 -0.8080
 4899TIP3   OH236187   2.270   4.657  14.862  0.0229 -0.0405  0.1571
 4899TIP3    H136188   2.189   4.621  14.827 -0.4664  2.1468 -1.1282
 4899TIP3    H236189   2.248   4.746  14.888  1.5280 -0.0890  1.8268
 4900TIP3   OH236190   2.212   5.593   0.789  0.5380 -0.1178  0.4473
 4900TIP3    H136191   2.200   5.653   0.715  0.5721  0.6666  1.0579
 4900TIP3    H236192   2.251   5.515   0.751  0.6892  0.3303 -0.3442
 4901TIP3   OH236193   6.470   3.625   2.162  0.4797 -0.3167  0.2088
 4901TIP3    H136194   6.407   3.647   2.230 -0.1570  0.3322 -0.5619
 4901TIP3    H236195   6.445   3.680   2.087  1.2609 -0.8766 -0.4928
 4902TIP3   OH236196   0.413   4.019   1.223 -0.9198  0.2839  0.8791
 4902TIP3    H136197   0.422   4.103   1.267  1.1697  1.0633 -0.8843
 4902TIP3    H236198   0.394   4.041   1.132  0.0008 -1.1150  0.3045
 4903TIP3   OH236199   0.137   3.510  11.524  0.5209 -0.2477 -0.7383
 4903TIP3    H136200   0.082   3.460  11.584  0.2654  0.3469 -0.4692
 4903TIP3    H236201   0.185   3.571  11.580 -0.1421  0.7079 -1.1818
 4904TIP3   OH236202   2.430   3.052   3.968 -0.5759 -0.1050 -0.3914
 4904TIP3    H136203   2.406   3.050   3.875  0.4406 -2.0564 -0.6649
 4904TIP3    H236204   2.521   3.023   3.969 -1.0334 -1.6591  1.3141
 4905TIP3   OH236205   5.649   3.817  10.452  0.1739  0.0071  0.1177
 4905TIP3    H136206   5.576   3.767  10.488 -0.3078 -0.3436 -1.2550
 4905TIP3    H236207   5.616   3.907  10.447  0.3250  0.0978  0.7542
 4906TIP3   OH236208   2.515   2.957  17.021 -0.1095 -0.1271 -0.4666
 4906TIP3    H136209   2.450   2.908  17.072 -1.2406  1.9897  0.2161
 4906TIP3    H236210   2.478   2.960  16.933 -1.7983  2.3471  0.2334
 4907TIP3   OH236211   3.699   4.730  15.524 -0.0427 -0.3179  0.5419
 4907TIP3    H136212   3.734   4.676  15.453  0.9009 -0.0059  0.7597
 4907TIP3    H236213   3.606   4.742  15.502  0.4529  0.5961 -1.1605
 4908TIP3   OH236214   5.086   4.240   0.093  1.0513  0.6058  0.1613
 4908TIP3    H136215   5.060   4.175   0.160 -0.3921 -0.6796 -1.5423
 4908TIP3    H236216   5.010   4.298   0.087  0.2317 -0.5763 -1.8079
 4909TIP3   OH236217   1.212   0.882   5.394  0.0355  0.5189 -0.1606
 4909TIP3    H136218   1.251   0.896   5.308 -0.1249  4.1226  0.2127
 4909TIP3    H236219   1.157   0.805   5.383  2.9019 -1.4733 -2.1703
 4910TIP3   OH236220   1.811   5.105   4.189  0.1735  0.2746  0.4236
 4910TIP3    H136221   1.812   5.106   4.093  1.4550  2.4215  0.3793
 4910TIP3    H236222   1.734   5.157   4.212 -2.2726 -3.1899  0.7117
 4911TIP3   OH236223   0.738   1.644  13.758 -0.4468 -0.0673  0.4301
 4911TIP3    H136224   0.696   1.558  13.756  0.9616 -0.8171  1.6492
 4911TIP3    H236225   0.705   1.688  13.680 -1.9241 -1.3545  0.2876
 4912TIP3   OH236226   4.049   0.041   1.246 -0.4879  0.7452  0.3384
 4912TIP3    H136227   4.102   0.118   1.270 -2.7133  1.9734  1.6329
 4912TIP3    H236228   4.034   0.051   1.152 -0.9641  2.0720  0.5301
 4913TIP3   OH236229   2.264   1.305   0.341  0.1797 -0.2581  0.1907
 4913TIP3    H136230   2.169   1.302   0.348  0.1653  0.9066  0.8960
 4913TIP3    H236231   2.293   1.215   0.353 -0.8243 -0.5889  0.1746
 4914TIP3   OH236232   6.118   0.533  14.846 -0.5938 -0.3528  0.2642
 4914TIP3    H136233   6.055   0.480  14.893 -0.6784 -1.6124 -1.1998
 4914TIP3    H236234   6.189   0.548  14.909 -0.9445 -1.5128  0.9569
 4915TIP3   OH236235   2.054   4.490  15.126 -0.6271 -0.2250 -0.2512
 4915TIP3    H136236   1.981   4.431  15.105 -0.1588 -1.4995  1.5012
 4915TIP3    H236237   2.124   4.464  15.066 -0.8140 -0.6848 -0.2743
 4916TIP3   OH236238   6.564   6.625   0.190 -0.4678  0.1116 -0.2072
 4916TIP3    H136239   6.501   6.554   0.175  0.9330 -1.2727  0.1263
 4916TIP3    H236240   6.550   6.650   0.281 -1.9607  1.3259 -0.7330
 4917TIP3   OH236241   6.242   6.433  16.041  0.5472  0.7927 -0.4226
 4917TIP3    H136242   6.259   6.405  15.951 -1.1104  0.5018 -0.6769
 4917TIP3    H236243   6.147   6.423  16.052  0.9171 -1.0004  1.9582
 4918TIP3   OH236244   3.966   5.564  16.371  0.3816  0.4826 -0.4291
 4918TIP3    H136245   3.896   5.546  16.434 -1.5467  1.7412 -2.0748
 4918TIP3    H236246   4.005   5.645  16.401  1.9814 -0.7703  1.1096
 4919TIP3   OH236247   5.994   2.469  12.961 -0.4046 -0.3559  0.0012
 4919TIP3    H136248   5.942   2.468  12.881 -1.0105  2.2159  0.2857
 4919TIP3    H236249   6.085   2.469  12.931 -0.6183  0.0338 -0.6675
 4920TIP3   OH236250   3.374   1.625   2.110 -0.4326  0.2999  0.0494
 4920TIP3    H136251   3.359   1.586   2.024 -3.7563  1.1998  0.1025
 4920TIP3    H236252   3.435   1.697   2.094  0.3777 -0.6150 -1.1805
 4921TIP3   OH236253   4.247   0.854  17.194 -0.2084 -0.4421  0.5386
 4921TIP3    H136254   4.321   0.914  17.185 -0.8882  0.4428  0.7512
 4921TIP3    H236255   4.196   0.866  17.114 -0.1365 -1.0364  0.4005
 4922TIP3   OH236256   5.901   2.915  15.820  0.2792 -0.0807 -0.0907
 4922TIP3    H136257   5.985   2.942  15.783 -1.1117  2.0949 -1.8874
 4922TIP3    H236258   5.865   2.994  15.859 -0.2935 -1.3528  2.1416
 4923TIP3   OH236259   6.426   4.442   4.531  0.4340 -0.1474 -0.1122
 4923TIP3    H136260   6.484   4.482   4.597  1.3183 -0.4924 -0.6655
 4923TIP3    H236261   6.379   4.516   4.493  0.5264  0.1432  0.3230
 4924TIP3   OH236262   3.415   5.164  15.507  0.0806 -0.6460 -0.2856
 4924TIP3    H136263   3.374   5.085  15.543 -2.5792 -0.3117 -2.2892
 4924TIP3    H236264   3.480   5.131  15.444 -0.1877 -1.2481 -0.2509
 4925TIP3   OH236265   3.857   0.067   4.177 -0.2706  0.0843  0.3351
 4925TIP3    H136266   3.809  -0.014   4.160  0.2229  0.0637 -1.1228
 4925TIP3    H236267   3.937   0.038   4.222  0.9220 -0.5498 -2.0288
 4926TIP3   OH236268   2.931   1.438   2.009 -0.3292  0.0344  0.6235
 4926TIP3    H136269   2.864   1.446   2.076 -1.2033  1.3316 -0.3418
 4926TIP3    H236270   2.913   1.355   1.966 -2.1540  0.9046 -0.4253
 4927TIP3   OH236271   1.268   1.811   0.258 -0.2077  0.3189  0.2030
 4927TIP3    H136272   1.179   1.840   0.281  0.5811  1.8830  1.4532
 4927TIP3    H236273   1.275   1.723   0.294 -1.2267  0.2016  0.1406
 4928TIP3   OH236274   5.514   0.906   5.917  0.6379 -0.2937 -0.3791
 4928TIP3    H136275   5.550   0.824   5.882  0.2061 -0.5378 -0.2533
 4928TIP3    H236276   5.525   0.898   6.012  0.4028 -0.2952 -0.3526
 4929TIP3   OH236277   2.809   4.648  11.577 -0.0375 -0.0146 -1.0210
 4929TIP3    H136278   2.895   4.673  11.610 -0.1177  1.3412 -1.7837
 4929TIP3    H236279   2.747   4.675  11.645  0.0254  0.2787 -1.0803
 4930TIP3   OH236280   1.533   3.644   2.304  0.3184 -0.0335  0.4133
 4930TIP3    H136281   1.513   3.631   2.212  0.2511  2.6821 -0.0309
 4930TIP3    H236282   1.615   3.693   2.304  0.8018 -0.7833  1.8526
 4931TIP3   OH236283   5.251   2.172  14.532 -0.3535  0.3358  0.0548
 4931TIP3    H136284   5.203   2.109  14.586  1.2307 -2.1080 -1.2323
 4931TIP3    H236285   5.318   2.207  14.590  0.1419 -0.8582  0.2296
 4932TIP3   OH236286   1.484   4.868  12.043  0.1684 -0.1871 -0.2516
 4932TIP3    H136287   1.436   4.789  12.067  1.3730 -1.0351 -0.5258
 4932TIP3    H236288   1.546   4.839  11.976  0.4409  1.0460 -0.5500
 4933TIP3   OH236289   1.503   1.768   4.736  0.3502  0.0573 -0.1999
 4933TIP3    H136290   1.557   1.705   4.784  0.6202 -0.1714 -0.8085
 4933TIP3    H236291   1.422   1.772   4.786  0.4082 -0.6211 -0.0477
 4934TIP3   OH236292   4.005   0.095  12.324  0.0960 -0.3761 -0.3525
 4934TIP3    H136293   3.940   0.160  12.296  0.1612 -0.5301 -0.8572
 4934TIP3    H236294   4.083   0.115  12.272  0.3096 -0.4880 -0.0806
 4935TIP3   OH236295   0.764   3.075  11.720  0.2605 -0.0706  0.0501
 4935TIP3    H136296   0.751   3.015  11.646  0.6666  1.8317 -1.6538
 4935TIP3    H236297   0.681   3.071  11.768 -1.3701  1.0674 -2.4246
 4936TIP3   OH236298   5.792   3.582  11.702  0.5441  0.3210 -0.1254
 4936TIP3    H136299   5.863   3.550  11.757  0.7952 -0.2941 -0.8028
 4936TIP3    H236300   5.716   3.530  11.728  0.5382  0.3856 -0.0087
 4937TIP3   OH236301   2.176   4.458   4.560 -0.2103 -0.1453 -0.2647
 4937TIP3    H136302   2.263   4.444   4.520 -0.4878 -4.6964  0.1490
 4937TIP3    H236303   2.193   4.461   4.654 -0.3753  1.0619 -0.2607
 4938TIP3   OH236304   4.186   5.934   2.802 -0.4954 -0.2475 -0.3038
 4938TIP3    H136305   4.132   5.910   2.877  2.9492  1.4470  3.0603
 4938TIP3    H236306   4.190   6.030   2.804  2.0633 -0.2549 -0.6318
 4939TIP3   OH236307   1.582   3.267   5.532 -0.1356 -0.4634 -0.2363
 4939TIP3    H136308   1.565   3.228   5.618 -1.5237  0.6883  0.0493
 4939TIP3    H236309   1.578   3.194   5.471  0.6795 -1.2719  0.6414
 4940TIP3   OH236310   6.701   0.448   0.568 -0.2839 -0.0006 -0.3066
 4940TIP3    H136311   6.790   0.414   0.576 -0.4842 -0.6549 -0.8035
 4940TIP3    H236312   6.661   0.431   0.654 -0.0036  0.0835 -0.1602
 4941TIP3   OH236313   0.104   4.428   4.028  0.1008  0.6051 -0.2522
 4941TIP3    H136314   0.063   4.509   4.058 -1.6506  1.5955 -4.5647
 4941TIP3    H236315   0.046   4.359   4.059  0.3232  1.1276  1.4681
 4942TIP3   OH236316   2.793   4.467   3.959  0.0572 -0.6169 -0.1802
 4942TIP3    H136317   2.870   4.413   3.945  0.6937  0.5168 -1.1641
 4942TIP3    H236318   2.805   4.504   4.046  0.7722 -0.2069 -0.4529
 4943TIP3   OH236319   2.472   1.107   3.894  0.0069  0.1519 -0.1252
 4943TIP3    H136320   2.552   1.098   3.842 -0.4978  0.8794 -1.0462
 4943TIP3    H236321   2.405   1.133   3.831 -1.6322 -2.9939  0.1016
 4944TIP3   OH236322   5.228   2.500  11.504  0.8807 -0.2171 -0.6037
 4944TIP3    H136323   5.135   2.493  11.484  1.1094 -0.4017 -1.6614
 4944TIP3    H236324   5.244   2.434  11.572  0.0920  0.3855  0.1978
 4945TIP3   OH236325   3.970   5.289  14.563 -0.3618  0.7219 -0.2475
 4945TIP3    H136326   3.997   5.256  14.478  0.3091  1.5513 -0.3710
 4945TIP3    H236327   4.012   5.231  14.626  0.1093  0.8164 -0.4684
 4946TIP3   OH236328   1.797   4.864   2.841 -0.1463  0.6557 -0.0521
 4946TIP3    H136329   1.754   4.848   2.925 -1.1267  0.6891 -0.5336
 4946TIP3    H236330   1.728   4.853   2.776  1.1228 -1.8607 -1.1027
 4947TIP3   OH236331   0.383   4.684  11.219 -0.1191  0.7034 -0.2841
 4947TIP3    H136332   0.400   4.638  11.137  0.7655  1.2043 -0.3970
 4947TIP3    H236333   0.315   4.747  11.197  0.3615  1.0798 -0.7431
 4948TIP3   OH236334   2.874   0.520   1.348 -0.7144 -0.1636 -0.2148
 4948TIP3    H136335   2.831   0.526   1.433  1.2447  0.3364  0.7905
 4948TIP3    H236336   2.932   0.596   1.345 -1.1149  0.1335 -2.2511
 4949TIP3   OH236337   4.610   4.472  13.605  0.0188  0.4948  0.8068
 4949TIP3    H136338   4.654   4.553  13.580  0.0345  0.1281 -0.4046
 4949TIP3    H236339   4.661   4.403  13.564 -0.6773 -0.0572  0.8436
 4950TIP3   OH236340   5.445   4.371   4.370  0.0964 -0.1405 -0.1167
 4950TIP3    H136341   5.401   4.370   4.455  0.9808 -1.1756  0.3617
 4950TIP3    H236342   5.421   4.288   4.329  0.3076  0.0055 -0.5428
 4951TIP3   OH236343   1.464   5.901  16.240  0.1706  0.3281 -0.2355
 4951TIP3    H136344   1.493   5.836  16.304 -1.0209 -0.9874 -0.9873
 4951TIP3    H236345   1.395   5.950  16.285  0.3366  0.3812 -0.0334
 4952TIP3   OH236346   1.659   4.914  11.301  0.3100 -0.1812  0.0542
 4952TIP3    H136347   1.737   4.897  11.248  0.3364 -0.0564  0.0524
 4952TIP3    H236348   1.646   5.008  11.295  0.2907 -0.1711  0.2377
 4953TIP3   OH236349   0.816   5.464   0.988  0.6275 -0.1893  0.1671
 4953TIP3    H136350   0.769   5.537   0.949 -0.2952 -0.3310  0.9732
 4953TIP3    H236351   0.818   5.483   1.082  2.6691  0.0650  0.1080
 4954TIP3   OH236352   4.961   2.737  16.835 -0.2067 -0.0266 -0.2636
 4954TIP3    H136353   5.004   2.658  16.866  0.4083  0.6337  0.6228
 4954TIP3    H236354   5.031   2.802  16.829 -0.5685  0.2694 -1.6809
 4955TIP3   OH236355   1.945   3.216  14.627  0.0762 -0.3572 -0.1826
 4955TIP3    H136356   1.871   3.253  14.674 -1.0801 -1.9037 -0.7252
 4955TIP3    H236357   2.018   3.220  14.689 -0.7157  0.2353  0.7206
 4956TIP3   OH236358   0.253   2.133   1.189  0.0753  0.5428  0.1786
 4956TIP3    H136359   0.185   2.138   1.123  0.3862  0.9371 -0.1165
 4956TIP3    H236360   0.232   2.055   1.240 -1.5900  1.5987  1.2043
 4957TIP3   OH236361   1.555   1.184  17.048 -0.4568  0.0239 -0.9466
 4957TIP3    H136362   1.609   1.163  16.972 -0.1050 -1.3411 -0.3497
 4957TIP3    H236363   1.475   1.134  17.035 -0.8424  0.6231 -0.9290
 4958TIP3   OH236364   2.439   4.353  16.373 -0.0983  0.0362 -0.1180
 4958TIP3    H136365   2.493   4.289  16.418 -0.0525 -0.1112 -0.3829
 4958TIP3    H236366   2.361   4.304  16.347 -0.0718  0.0911 -0.3036
 4959TIP3   OH236367   5.204   1.976  12.705 -0.0937 -0.0681  0.1858
 4959TIP3    H136368   5.110   1.973  12.684 -0.1750 -0.6281  0.6046
 4959TIP3    H236369   5.216   2.060  12.749 -0.0386  0.8474 -1.4791
 4960TIP3   OH236370   5.002   5.453   5.589 -0.5449  0.2700  0.7416
 4960TIP3    H136371   5.056   5.527   5.562 -0.7986  0.0344 -0.4788
 4960TIP3    H236372   5.017   5.386   5.522 -2.2263  0.1465  0.4413
 4961TIP3   OH236373   2.978   6.319   2.775  0.3704  0.2708  0.1901
 4961TIP3    H136374   2.895   6.285   2.741  1.1326 -0.8577 -0.6321
 4961TIP3    H236375   2.960   6.412   2.792 -1.6781 -0.3930  2.1497
 4962TIP3   OH236376   0.103   2.131  12.779 -0.5118 -0.2237  0.4676
 4962TIP3    H136377   0.199   2.136  12.772 -0.4373  1.0693  1.8815
 4962TIP3    H236378   0.086   2.042  12.811  0.0021 -1.3035 -2.0284
 4963TIP3   OH236379   0.280   6.419   5.235 -0.2131  0.1248 -0.2358
 4963TIP3    H136380   0.290   6.356   5.163  0.9460 -0.4607  0.4076
 4963TIP3    H236381   0.345   6.487   5.217  0.4661 -0.3036  0.5230
 4964TIP3   OH236382   4.332   4.177   3.400  0.2271  0.0504  0.0234
 4964TIP3    H136383   4.281   4.136   3.470 -2.4492  1.8105 -0.7379
 4964TIP3    H236384   4.270   4.185   3.327  3.0398 -2.3580 -2.9440
 4965TIP3   OH236385   2.575   6.700  11.956  0.3347  0.2913  0.3504
 4965TIP3    H136386   2.560   6.606  11.966 -0.6127  0.4150  0.1267
 4965TIP3    H236387   2.667   6.706  11.929  1.2546 -0.4027  3.0254
 4966TIP3   OH236388   3.622   1.734   4.538  0.5097  0.1709  0.3917
 4966TIP3    H136389   3.702   1.687   4.515 -0.7443 -1.9206  0.0528
 4966TIP3    H236390   3.585   1.684   4.611 -1.9473 -0.7290 -1.3421
 4967TIP3   OH236391   2.182   5.461  14.597  0.0431  0.5369 -0.0730
 4967TIP3    H136392   2.121   5.491  14.664 -1.4231  0.6858 -1.4262
 4967TIP3    H236393   2.141   5.486  14.514  1.6048 -0.0119 -1.0483
 4968TIP3   OH236394   0.506   3.912   1.464 -0.7621  0.4712  0.3389
 4968TIP3    H136395   0.417   3.887   1.491 -0.3977  0.1717  1.2729
 4968TIP3    H236396   0.496   3.938   1.373 -1.7976  0.3358  0.4011
 4969TIP3   OH236397   5.845   1.862   0.475 -0.8040  0.4020  0.2579
 4969TIP3    H136398   5.770   1.914   0.445 -0.7984  0.0811 -0.3240
 4969TIP3    H236399   5.812   1.812   0.549 -0.8121  1.2314  0.8239
 4970TIP3   OH236400   1.777   2.787  10.271  0.3318 -0.6653 -0.1950
 4970TIP3    H136401   1.809   2.870  10.305  1.6339 -1.5841  0.9434
 4970TIP3    H236402   1.711   2.759  10.334  3.0922 -2.6083  2.1166
 4971TIP3   OH236403   4.281   4.548  15.390 -0.0642  0.4663 -0.2551
 4971TIP3    H136404   4.366   4.569  15.427  0.0798 -1.8174  0.8890
 4971TIP3    H236405   4.223   4.537  15.466 -1.0722  0.7547 -0.9499
 4972TIP3   OH236406   4.445   2.892  16.625  0.1915  0.0291 -0.1156
 4972TIP3    H136407   4.444   2.897  16.529 -2.5955  0.4945 -0.1314
 4972TIP3    H236408   4.462   2.799  16.644 -2.5833 -0.7800 -1.2002
 4973TIP3   OH236409   4.674   4.801   0.808  0.0006  0.2927  0.0208
 4973TIP3    H136410   4.731   4.878   0.810  1.1309 -0.5201 -0.1596
 4973TIP3    H236411   4.660   4.779   0.901 -2.2217  2.0213  0.2014
 4974TIP3   OH236412   6.278   2.204  15.843 -0.2735  0.1515 -0.4945
 4974TIP3    H136413   6.215   2.229  15.775 -1.2377 -0.1857  0.2525
 4974TIP3    H236414   6.344   2.153  15.795 -1.7972 -1.5057 -0.9795
 4975TIP3   OH236415   5.521   1.965   1.700 -0.3137 -0.1080 -0.2060
 4975TIP3    H136416   5.479   2.020   1.766 -0.6147 -0.0851 -0.4148
 4975TIP3    H236417   5.577   1.906   1.750 -0.2383  0.1712  0.0425
 4976TIP3   OH236418   4.458   2.714  15.385 -0.0797  0.2492  0.1288
 4976TIP3    H136419   4.535   2.757  15.348 -1.0009 -0.0016 -2.2157
 4976TIP3    H236420   4.460   2.626  15.347 -1.2701  0.0863  0.4259
 4977TIP3   OH236421   6.521   0.309   3.244 -0.1563 -0.0887 -0.1547
 4977TIP3    H136422   6.569   0.365   3.304  0.5628  0.2395 -1.0087
 4977TIP3    H236423   6.463   0.257   3.300 -1.6443  2.2121  0.6156
 4978TIP3   OH236424   5.914   3.052  11.032 -0.5889  0.1507 -0.2516
 4978TIP3    H136425   5.848   3.068  10.964  0.0534  0.7370 -0.7434
 4978TIP3    H236426   5.995   3.036  10.984 -0.6786 -2.2887  0.2858
 4979TIP3   OH236427   2.125   6.742  12.147  0.1625 -0.2320 -0.1211
 4979TIP3    H136428   2.215   6.768  12.125  1.1132 -2.1282  1.2037
 4979TIP3    H236429   2.130   6.718  12.240 -2.0205  0.7475  0.3062
 4980TIP3   OH236430   5.470   5.009   1.097 -0.1390 -0.0062 -0.3513
 4980TIP3    H136431   5.467   5.105   1.089  0.3951  0.0221 -0.2499
 4980TIP3    H236432   5.412   4.978   1.027 -1.1922  0.4113  0.2966
 4981TIP3   OH236433   3.542   5.908   4.354  0.3996 -0.0603  0.6547
 4981TIP3    H136434   3.626   5.895   4.311  0.1406  0.3464  0.0167
 4981TIP3    H236435   3.511   5.992   4.322  0.0027  0.0533  1.3162
 4982TIP3   OH236436   5.927   5.323   1.101  0.2467 -0.1837  0.0662
 4982TIP3    H136437   6.017   5.340   1.073  0.2720 -2.8695 -1.9589
 4982TIP3    H236438   5.934   5.299   1.193  1.3928  0.8821  0.2842
 4983TIP3   OH236439   3.028   2.359  12.806 -0.3542  0.4664 -0.1475
 4983TIP3    H136440   2.950   2.304  12.812 -0.4857  0.5087 -1.1555
 4983TIP3    H236441   3.035   2.379  12.712  2.3059 -1.6425 -0.5353
 4984TIP3   OH236442   4.341   6.105  14.534  0.1918  0.0300 -0.4969
 4984TIP3    H136443   4.346   6.199  14.550 -0.3185  0.0561 -0.4562
 4984TIP3    H236444   4.288   6.097  14.454 -0.4468 -0.2470 -0.0562
 4985TIP3   OH236445   3.688   6.348   2.710  0.0968 -0.3462  0.5061
 4985TIP3    H136446   3.667   6.266   2.666 -0.6367  0.7074 -1.2387
 4985TIP3    H236447   3.735   6.399   2.644  0.7825  0.5397  1.6432
 4986TIP3   OH236448   6.163   6.701   2.620 -0.0927 -0.2564  0.6231
 4986TIP3    H136449   6.123   6.715   2.706  0.1131 -2.6451  1.1765
 4986TIP3    H236450   6.111   6.632   2.580  1.3658 -0.9843 -0.0930
 4987TIP3   OH236451   6.729   0.992  12.536 -0.2744  0.2550  0.0876
 4987TIP3    H136452   6.813   0.959  12.569 -1.7800 -0.9319  3.1269
 4987TIP3    H236453   6.731   1.086  12.559 -0.4098 -0.1156  1.7666
 4988TIP3   OH236454   0.198   0.147   2.320 -0.2170 -0.6156  0.7564
 4988TIP3    H136455   0.256   0.223   2.315  0.1269 -0.8900  0.5107
 4988TIP3    H236456   0.111   0.184   2.335 -0.1805 -0.1223 -0.1368
 4989TIP3   OH236457   6.119   1.786  16.071  0.2438  0.7291  0.3047
 4989TIP3    H136458   6.098   1.874  16.103  1.2169  0.9147  0.4591
 4989TIP3    H236459   6.210   1.792  16.041  0.6710 -0.4905  1.2764
 4990TIP3   OH236460   0.623   6.097   4.263  0.4187  0.0632  0.0766
 4990TIP3    H136461   0.666   6.169   4.217  1.0512 -0.3205  0.0547
 4990TIP3    H236462   0.677   6.020   4.244 -0.8576 -0.6512 -0.8031
 4991TIP3   OH236463   5.438   5.778   0.233 -0.0174 -0.0642 -0.2876
 4991TIP3    H136464   5.492   5.805   0.160 -1.0393  0.0919 -1.0114
 4991TIP3    H236465   5.498   5.733   0.293  1.4012  2.3330  0.1800
 4992TIP3   OH236466   3.016   3.654  15.738  0.5552  0.0533 -0.6620
 4992TIP3    H136467   3.029   3.647  15.833  2.0468  0.9941 -0.7760
 4992TIP3    H236468   3.048   3.571  15.703 -0.6764 -0.5989 -0.3081
 4993TIP3   OH236469   4.293   3.667  12.056 -0.5342 -0.8406  0.1541
 4993TIP3    H136470   4.264   3.746  12.102 -0.6943 -0.5929 -0.3579
 4993TIP3    H236471   4.388   3.667  12.067 -0.3911  0.0973 -0.8592
 4994TIP3   OH236472   5.629   5.990  13.825  0.1487  0.0550 -0.3949
 4994TIP3    H136473   5.614   6.036  13.742  0.5017 -1.7243 -1.4964
 4994TIP3    H236474   5.576   5.911  13.819  0.1983 -0.1214  1.0853
 4995TIP3   OH236475   2.695   2.114   4.849 -0.0184  0.3418 -0.1771
 4995TIP3    H136476   2.644   2.049   4.800  0.6461  0.4721 -1.0578
 4995TIP3    H236477   2.785   2.082   4.845  0.3340  1.3564 -0.7027
 4996TIP3   OH236478   6.097   0.152   2.898 -0.3932 -0.2855  0.0787
 4996TIP3    H136479   6.114   0.245   2.909 -2.4836  0.1679 -0.0603
 4996TIP3    H236480   6.142   0.110   2.972  1.8421  0.6097 -0.6851
 4997TIP3   OH236481   5.548   3.826  11.876 -0.0768 -0.2060 -0.6090
 4997TIP3    H136482   5.545   3.732  11.898 -1.8093  0.3515  1.9608
 4997TIP3    H236483   5.612   3.863  11.936 -1.0435  0.5901 -0.0472
 4998TIP3   OH236484   2.492   5.863  15.129  0.3485 -0.5616  0.2561
 4998TIP3    H136485   2.500   5.898  15.218  1.6160 -1.2708  0.4357
 4998TIP3    H236486   2.471   5.771  15.142  1.7742 -0.9667 -0.1368
 4999TIP3   OH236487   1.373   4.716  15.763  0.1046 -0.6012 -0.2650
 4999TIP3    H136488   1.374   4.627  15.729  1.3311 -1.7086  2.4115
 4999TIP3    H236489   1.281   4.732  15.786  0.2924 -2.5313  2.2683
 5000TIP3   OH236490   2.727   4.820   0.906  0.3897 -0.2032  0.6086
 5000TIP3    H136491   2.772   4.900   0.879 -0.6203  0.8523  1.9106
 5000TIP3    H236492   2.634   4.841   0.896  0.0467 -2.3709 -2.1804
 5001TIP3   OH236493   5.173   0.938   2.543  0.3521 -0.4494 -0.2260
 5001TIP3    H136494   5.239   0.880   2.581 -0.4799 -0.7085  0.8850
 5001TIP3    H236495   5.204   1.027   2.562  0.7805 -0.5634 -0.4068
 5002TIP3   OH236496   5.704   5.156   5.493 -0.1223 -0.0307  0.2025
 5002TIP3    H136497   5.610   5.175   5.490  0.3111  2.8550  1.2937
 5002TIP3    H236498   5.735   5.202   5.571  2.2025 -1.0450 -0.0370
 5003TIP3   OH236499   3.336   1.473  11.621  0.3109  1.0089  0.8028
 5003TIP3    H136500   3.378   1.419  11.554 -2.7300 -0.2336 -0.2540
 5003TIP3    H236501   3.386   1.554  11.621  1.7466  0.2229 -1.4013
 5004TIP3   OH236502   2.590   1.761   0.729 -0.2237 -0.7404  0.1329
 5004TIP3    H136503   2.563   1.838   0.680 -0.0626 -1.1828 -0.6655
 5004TIP3    H236504   2.508   1.716   0.750 -0.2628 -0.7940 -0.1343
 5005TIP3   OH236505   3.543   5.887   0.680 -0.7825 -0.1216  0.4402
 5005TIP3    H136506   3.561   5.920   0.768 -2.8373  2.5719 -0.0314
 5005TIP3    H236507   3.474   5.944   0.646 -0.0588 -1.0241 -2.9578
 5006TIP3   OH236508   5.557   5.018   3.488  0.3537  0.0191  0.3023
 5006TIP3    H136509   5.630   5.067   3.527  0.5696 -0.7087  0.8294
 5006TIP3    H236510   5.582   5.006   3.397  0.6240  0.2775  0.3406
 5007TIP3   OH236511   1.496   3.059  11.876 -0.1268  0.7794 -0.5874
 5007TIP3    H136512   1.437   3.133  11.863  0.9356  1.8752  0.6500
 5007TIP3    H236513   1.559   3.089  11.941  0.8665 -0.9117 -0.7154
 5008TIP3   OH236514   5.170   4.524   0.316  0.5623 -0.5803 -0.2852
 5008TIP3    H136515   5.125   4.440   0.319 -1.7373  0.5943  0.7846
 5008TIP3    H236516   5.101   4.589   0.327  2.2645  1.4764 -0.9509
 5009TIP3   OH236517   2.740   6.053   1.304  0.1963 -0.0244  0.0910
 5009TIP3    H136518   2.660   6.106   1.306  1.8308  2.6446  0.1841
 5009TIP3    H236519   2.717   5.973   1.351 -2.7409  0.0652 -0.9676
 5010TIP3   OH236520   3.643   6.601  11.862 -0.4830  0.1551 -0.1466
 5010TIP3    H136521   3.669   6.571  11.775  1.9283  0.6024  0.3281
 5010TIP3    H236522   3.702   6.554  11.922 -1.8480  0.1202  1.2360
 5011TIP3   OH236523   1.282   5.188   2.574  0.3427 -0.5358 -0.0094
 5011TIP3    H136524   1.342   5.164   2.645 -0.9479 -0.3329  1.1931
 5011TIP3    H236525   1.214   5.120   2.577 -0.6249  0.4096  0.0831
 5012TIP3   OH236526   6.586   1.890  13.900 -0.6435  0.0883 -0.2777
 5012TIP3    H136527   6.632   1.900  13.983 -1.2032 -1.3880  0.2552
 5012TIP3    H236528   6.582   1.795  13.886  1.2905  0.2657 -3.0612
 5013TIP3   OH236529   3.869   0.324  12.602  0.1896 -0.7303  0.0790
 5013TIP3    H136530   3.871   0.231  12.578 -0.3372 -0.8103  0.3270
 5013TIP3    H236531   3.793   0.359  12.556  1.4773  0.0283 -1.5582
 5014TIP3   OH236532   3.811   0.396  10.291  0.2928  0.0829  0.3043
 5014TIP3    H136533   3.875   0.332  10.260  0.3820  0.1555  0.3402
 5014TIP3    H236534   3.730   0.345  10.299  0.8483 -0.5660  2.4163
 5015TIP3   OH236535   3.786   2.343   2.970  0.0676 -0.1993 -0.0957
 5015TIP3    H136536   3.820   2.272   2.916  1.9043  0.8050 -0.3269
 5015TIP3    H236537   3.698   2.314   2.994 -0.4094 -1.1850 -2.6721
 5016TIP3   OH236538   6.414   4.925  11.735  0.0441 -0.2164 -0.3391
 5016TIP3    H136539   6.371   4.977  11.667  0.2955  0.3156 -0.0935
 5016TIP3    H236540   6.446   4.989  11.798 -0.3225 -0.7111  0.3659
 5017TIP3   OH236541   5.658   6.590   3.564  0.1419 -0.3244  0.2461
 5017TIP3    H136542   5.646   6.656   3.633  2.2169 -1.2833  1.6268
 5017TIP3    H236543   5.711   6.522   3.605 -0.1184 -1.8540 -1.7843
 5018TIP3   OH236544   2.525   0.856  13.689  0.1262 -0.3607  0.3364
 5018TIP3    H136545   2.430   0.865  13.686 -0.1212 -2.4213  0.6048
 5018TIP3    H236546   2.548   0.821  13.603  0.7423  0.7412  0.0378
 5019TIP3   OH236547   4.610   5.745   1.315 -0.1427  0.1346  0.0486
 5019TIP3    H136548   4.673   5.770   1.384 -0.6581  2.2058 -0.1627
 5019TIP3    H236549   4.624   5.651   1.303  5.1091  0.8349 -2.1291
 5020TIP3   OH236550   5.142   5.832   6.006  0.5421 -0.3206  0.1066
 5020TIP3    H136551   5.152   5.841   6.101 -0.9334  0.6489  0.1986
 5020TIP3    H236552   5.083   5.758   5.995  1.4525 -1.0358 -0.1174
 5021TIP3   OH236553   3.416   0.156   3.810  0.2064  0.4256  0.5582
 5021TIP3    H136554   3.406   0.239   3.856  0.2204  0.2392  0.9095
 5021TIP3    H236555   3.408   0.177   3.718  1.0226  0.9410  0.5995
 5022TIP3   OH236556   4.613   1.678   4.935 -0.3899 -0.3933  0.0999
 5022TIP3    H136557   4.683   1.629   4.977 -0.5632  0.3064  1.2300
 5022TIP3    H236558   4.610   1.643   4.845  1.6517 -0.1314 -0.0978
 5023TIP3   OH236559   6.599   1.838   0.445 -0.2251  0.1592 -0.1083
 5023TIP3    H136560   6.610   1.753   0.403 -0.9533 -0.1461  0.2861
 5023TIP3    H236561   6.615   1.821   0.538  1.5027  0.8501 -0.2456
 5024TIP3   OH236562   1.758   3.283   4.728  0.0279  0.0427  0.1936
 5024TIP3    H136563   1.768   3.248   4.817 -2.6285  2.6266  1.6916
 5024TIP3    H236564   1.810   3.362   4.727 -0.3480  0.2880 -0.3594
 5025TIP3   OH236565   6.666   3.622  13.557 -0.3952 -0.0554  0.7424
 5025TIP3    H136566   6.641   3.672  13.480 -1.1258  0.7544  1.4817
 5025TIP3    H236567   6.583   3.598  13.599 -0.0279  1.3455  2.4032
 5026TIP3   OH236568   0.934   4.714  11.759  0.1424  0.5216  0.0964
 5026TIP3    H136569   1.001   4.779  11.781 -0.8196  1.6142 -0.0990
 5026TIP3    H236570   0.983   4.642  11.720  1.1497  1.5827 -0.6858
 5027TIP3   OH236571   2.166   4.453   3.332  0.1414 -0.6078  0.2207
 5027TIP3    H136572   2.108   4.390   3.289 -0.1801 -0.0696 -0.1440
 5027TIP3    H236573   2.135   4.539   3.303  0.9804 -0.2990  0.2060
 5028TIP3   OH236574   3.579   2.167   0.010  0.1037  0.0454 -0.1143
 5028TIP3    H136575   3.507   2.229   0.022 -0.3644 -0.6241  0.5501
 5028TIP3    H236576   3.550   2.087   0.053  2.0330  0.3435  1.9650
 5029TIP3   OH236577   2.140   1.733   0.273  0.1905  0.1739  0.3836
 5029TIP3    H136578   2.090   1.743   0.353  1.0878 -0.5521  1.0553
 5029TIP3    H236579   2.192   1.654   0.286  0.2882 -0.0172 -0.9546
 5030TIP3   OH236580   5.210   1.810   1.287 -0.1274  0.3910  0.0404
 5030TIP3    H136581   5.303   1.816   1.265  0.0002 -0.7779  0.1921
 5030TIP3    H236582   5.164   1.831   1.206  0.2983 -0.3682 -0.4072
 5031TIP3   OH236583   5.366   4.617   1.034 -0.1576  0.2854 -0.5037
 5031TIP3    H136584   5.306   4.689   1.052 -0.1343  0.3500 -0.6833
 5031TIP3    H236585   5.325   4.570   0.961 -0.6262 -0.4047  0.1866
 5032TIP3   OH236586   1.243   0.431   6.133 -0.2166  0.3299 -0.3909
 5032TIP3    H136587   1.152   0.459   6.124  0.3196  2.6153  0.6118
 5032TIP3    H236588   1.237   0.349   6.184 -1.7358 -0.1448 -1.2566
 5033TIP3   OH236589   1.430   4.522   3.362 -0.4292 -0.6584  0.0654
 5033TIP3    H136590   1.468   4.436   3.340 -0.9792 -0.5817 -1.2729
 5033TIP3    H236591   1.405   4.514   3.454  2.6479 -0.7613  1.0329
 5034TIP3   OH236592   0.493   6.266  15.308  0.2115  0.2740  1.1258
 5034TIP3    H136593   0.448   6.282  15.225 -0.4062 -0.7766  1.2435
 5034TIP3    H236594   0.586   6.279  15.288  0.0984 -0.3311  0.1835
 5035TIP3   OH236595   0.530   6.521   5.881  0.4189  0.6358  0.4625
 5035TIP3    H136596   0.507   6.465   5.955  1.4988  2.1122  1.9859
 5035TIP3    H236597   0.487   6.604   5.899 -0.6944  0.5488 -1.4767
 5036TIP3   OH236598   6.836   3.856  13.616  0.8388  0.3481 -0.0785
 5036TIP3    H136599   6.782   3.931  13.592  0.5195  0.2146  0.2256
 5036TIP3    H236600   6.782   3.779  13.599  0.1140  0.2798  2.2032
 5037TIP3   OH236601   6.661   2.496   0.231 -0.1017  0.2624 -1.0396
 5037TIP3    H136602   6.618   2.541   0.304  0.9707 -0.2682 -0.0352
 5037TIP3    H236603   6.594   2.439   0.194 -0.7267  0.7066 -0.6022
 5038TIP3   OH236604   5.519   4.368  15.744  0.4475 -0.8651 -0.7409
 5038TIP3    H136605   5.491   4.396  15.657  0.0433 -1.4445 -0.8023
 5038TIP3    H236606   5.548   4.449  15.787 -1.2916 -0.2186 -0.6975
 5039TIP3   OH236607   1.442   2.174  14.774 -0.5400  0.2180 -0.1107
 5039TIP3    H136608   1.415   2.085  14.750  0.0254 -0.2193  0.8508
 5039TIP3    H236609   1.498   2.202  14.702 -0.8164 -0.1489 -0.4773
 5040TIP3   OH236610   5.443   1.876  11.475 -0.1472 -0.5304 -0.0216
 5040TIP3    H136611   5.475   1.810  11.414  1.1568 -1.2587  1.3806
 5040TIP3    H236612   5.350   1.882  11.457  0.1902 -0.6436 -2.1200
 5041TIP3   OH236613   4.951   5.136  12.956 -0.0863  0.2261  0.2531
 5041TIP3    H136614   4.967   5.073  13.027  1.1622  0.0984 -0.1240
 5041TIP3    H236615   4.937   5.081  12.878  1.1921  0.3837 -0.1172
 5042TIP3   OH236616   6.580   1.919  16.716  0.7994  0.7455 -0.3971
 5042TIP3    H136617   6.662   1.966  16.734  1.4378  0.0054 -1.2622
 5042TIP3    H236618   6.551   1.954  16.632  0.2554  0.9642 -0.1188
 5043TIP3   OH236619   1.244   1.441   4.242  0.2752 -0.3469 -0.4813
 5043TIP3    H136620   1.227   1.483   4.157 -0.3598  0.9089  0.2437
 5043TIP3    H236621   1.240   1.347   4.223  0.3339 -0.0913 -1.8760
 5044TIP3   OH236622   0.958   3.846   1.870 -0.4560 -0.0661  0.6826
 5044TIP3    H136623   0.930   3.754   1.864 -0.6808  0.0804 -2.9757
 5044TIP3    H236624   0.878   3.893   1.892 -1.3843 -0.4527 -1.5538
 5045TIP3   OH236625   4.766   1.151  16.218  0.0473  0.0105 -0.2138
 5045TIP3    H136626   4.790   1.120  16.306 -1.0756  0.7825  0.3815
 5045TIP3    H236627   4.794   1.242  16.216  0.8329 -0.2328 -0.9793
 5046TIP3   OH236628   3.380   1.614  15.854  0.3891  0.2916 -0.3531
 5046TIP3    H136629   3.321   1.568  15.794  1.0397  0.8682 -1.4681
 5046TIP3    H236630   3.326   1.637  15.929  0.3540 -3.7464  1.1046
 5047TIP3   OH236631   3.208   6.760  16.309 -0.3753 -0.3346  0.1780
 5047TIP3    H136632   3.246   6.842  16.279 -0.4724 -1.0509 -2.1333
 5047TIP3    H236633   3.119   6.783  16.334  0.1532  0.5556  1.3606
 5048TIP3   OH236634   4.956   0.352   5.464  0.0567 -0.2414 -0.1843
 5048TIP3    H136635   4.979   0.273   5.414  2.1653  0.0002  0.3011
 5048TIP3    H236636   5.023   0.416   5.440 -0.0317  0.5206  1.4303
 5049TIP3   OH236637   0.479   1.930  12.149 -0.6357 -0.1777 -0.0722
 5049TIP3    H136638   0.403   1.889  12.191 -1.3074  0.0720 -1.0177
 5049TIP3    H236639   0.446   2.012  12.114  0.4512  0.6885  0.8542
 5050TIP3   OH236640   3.916   0.055  13.251  0.5968 -0.8166  0.1662
 5050TIP3    H136641   3.910  -0.016  13.315  1.0285 -0.7132  0.3252
 5050TIP3    H236642   3.963   0.125  13.297 -0.7257 -0.0254  0.3672
 5051TIP3   OH236643   2.662   4.555  16.857 -1.3395  0.2122  0.4719
 5051TIP3    H136644   2.696   4.499  16.787  0.3114  1.5577  0.1237
 5051TIP3    H236645   2.638   4.494  16.928  0.3952 -0.9321  0.1216
 5052TIP3   OH236646   4.853   0.925   4.414 -0.5404  0.5750  0.2162
 5052TIP3    H136647   4.852   1.017   4.440  0.2230  1.1603 -1.6773
 5052TIP3    H236648   4.761   0.898   4.416 -0.6590  0.9633  2.0071
 5053TIP3   OH236649   2.486   1.891  15.034  0.1052 -0.7674  0.3151
 5053TIP3    H136650   2.534   1.844  14.965  0.9419 -0.7801  0.8835
 5053TIP3    H236651   2.499   1.983  15.014 -0.4298 -0.7714 -0.0605
 5054TIP3   OH236652   2.435   5.973  15.993  0.0305  0.1743  0.1416
 5054TIP3    H136653   2.381   5.906  16.034 -1.2289  0.5238 -0.9066
 5054TIP3    H236654   2.505   5.924  15.950 -2.5563 -0.8871 -3.2674
 5055TIP3   OH236655   3.550   5.671  16.242  0.1934  0.2960  0.0945
 5055TIP3    H136656   3.552   5.576  16.236  0.1890  0.2835  0.2713
 5055TIP3    H236657   3.539   5.689  16.335 -1.2150  0.4562 -0.0891
 5056TIP3   OH236658   6.184   3.357   0.954  0.0817 -0.6033 -0.7163
 5056TIP3    H136659   6.117   3.379   1.019  1.2674  1.7581 -0.1686
 5056TIP3    H236660   6.266   3.360   1.003  0.7482 -1.9792 -1.6904
 5057TIP3   OH236661   0.744   4.382   2.911  0.1472  0.0676 -0.1580
 5057TIP3    H136662   0.829   4.346   2.935  0.1581  0.4791  0.4514
 5057TIP3    H236663   0.763   4.473   2.888 -0.3449  0.7047  1.7140
 5058TIP3   OH236664   1.762   0.778  16.448  0.0932  0.6744 -0.0788
 5058TIP3    H136665   1.853   0.756  16.469  0.0647 -0.7705 -1.3186
 5058TIP3    H236666   1.762   0.790  16.353 -0.8312  1.6510  0.0250
 5059TIP3   OH236667   0.391   5.704  13.851  0.3117  0.5703 -0.1236
 5059TIP3    H136668   0.444   5.781  13.870 -0.0880  0.6018  0.9246
 5059TIP3    H236669   0.355   5.720  13.764  0.5187  1.4054 -0.0603
 5060TIP3   OH236670   6.143   3.020   0.223 -0.1939 -0.5093  0.0619
 5060TIP3    H136671   6.171   3.053   0.309  0.2312  1.8164 -0.8912
 5060TIP3    H236672   6.048   3.023   0.226 -0.1985 -0.9156  0.6022
 5061TIP3   OH236673   4.993   4.099   0.507 -0.0192 -0.2714 -0.2461
 5061TIP3    H136674   5.070   4.122   0.455  1.1185 -1.5932  0.7567
 5061TIP3    H236675   4.931   4.063   0.444  0.3579  0.4150 -1.0151
 5062TIP3   OH236676   4.094   4.107  13.907  0.5016 -0.0631 -0.2966
 5062TIP3    H136677   4.094   4.128  13.813 -1.1237  0.8368 -0.1268
 5062TIP3    H236678   4.003   4.115  13.934  0.3558 -3.5450  0.7092
 5063TIP3   OH236679   1.836   5.268   2.426 -0.1999  0.0816 -0.1554
 5063TIP3    H136680   1.885   5.347   2.450 -0.3558  0.4242 -0.9350
 5063TIP3    H236681   1.747   5.299   2.410  0.3082  0.2871 -3.2279
 5064TIP3   OH236682   5.467   2.762  10.482  0.0662  0.3874 -0.0900
 5064TIP3    H136683   5.380   2.723  10.495  1.1358 -1.5855  1.7203
 5064TIP3    H236684   5.522   2.689  10.455  1.3132  1.4916 -0.6253
 5065TIP3   OH236685   4.841   5.267   2.777  0.1217  0.1770 -0.2857
 5065TIP3    H136686   4.773   5.200   2.775  1.3421 -1.1044 -1.0275
 5065TIP3    H236687   4.890   5.253   2.695  1.3867  0.9183  0.3236
 5066TIP3   OH236688   2.431   2.338   1.775 -0.4162  0.4818 -0.0048
 5066TIP3    H136689   2.441   2.243   1.779 -0.2236  0.4957 -0.1604
 5066TIP3    H236690   2.368   2.353   1.704  0.8040  0.5510 -1.1167
 5067TIP3   OH236691   6.248   3.804   6.440 -0.0559 -0.5357 -0.6092
 5067TIP3    H136692   6.176   3.855   6.402  0.1485  0.0392 -0.2272
 5067TIP3    H236693   6.273   3.852   6.518  0.1249 -1.2414 -0.2234
 5068TIP3   OH236694   1.122   0.467   6.476 -0.3566  0.3732 -0.3184
 5068TIP3    H136695   1.027   0.462   6.489 -0.3593  0.9464 -0.0792
 5068TIP3    H236696   1.146   0.383   6.437 -0.5820 -0.7684  1.8710
 5069TIP3   OH236697   5.894   3.788  13.460  0.3569 -0.0058 -0.5330
 5069TIP3    H136698   5.869   3.733  13.386  0.7599 -0.2569 -0.4865
 5069TIP3    H236699   5.818   3.786  13.519  0.5913 -1.0180 -0.2389
 5070TIP3   OH236700   2.822   5.668  15.884  0.3255  0.1869 -0.3555
 5070TIP3    H136701   2.858   5.678  15.972  1.2851  0.3169 -0.7417
 5070TIP3    H236702   2.884   5.608  15.841 -0.2406 -0.0251 -0.8821
 5071TIP3   OH236703   2.050   0.383   3.765  0.3124 -0.5408 -0.1170
 5071TIP3    H136704   1.966   0.336   3.770  0.5658 -0.9934 -0.0837
 5071TIP3    H236705   2.114   0.321   3.801  0.8214 -0.5800 -1.0474
 5072TIP3   OH236706   3.477   2.666   4.295  0.4969 -0.4214  0.2628
 5072TIP3    H136707   3.446   2.594   4.240  0.6054 -1.1013  1.0694
 5072TIP3    H236708   3.438   2.744   4.256 -1.5893 -1.1550  0.7242
 5073TIP3   OH236709   3.157   1.800   4.634  0.4487 -0.5388  0.4640
 5073TIP3    H136710   3.230   1.772   4.578  0.8792  2.1570 -0.4790
 5073TIP3    H236711   3.094   1.727   4.629  1.0840 -1.0371 -2.4464
 5074TIP3   OH236712   4.694   3.687  16.736 -0.6354  0.2852 -0.2514
 5074TIP3    H136713   4.615   3.643  16.705 -1.4245  1.1154  0.5371
 5074TIP3    H236714   4.679   3.780  16.717  0.1454  0.4571 -0.0643
 5075TIP3   OH236715   0.301   2.156   3.095 -0.5182 -0.5666  0.8355
 5075TIP3    H136716   0.368   2.088   3.094  0.2156  0.1421 -0.5220
 5075TIP3    H236717   0.218   2.108   3.094 -0.0140 -1.4520  0.3264
 5076TIP3   OH236718   2.117   2.829   0.081 -0.1718  0.3110 -0.1912
 5076TIP3    H136719   2.153   2.917   0.077 -0.3573  0.4249  0.4915
 5076TIP3    H236720   2.048   2.834   0.147  2.2232 -1.1179  2.6879
 5077TIP3   OH236721   2.923   4.647   0.378 -0.0684 -0.2750  0.0850
 5077TIP3    H136722   2.856   4.579   0.365 -2.7230  2.2352 -0.3459
 5077TIP3    H236723   2.915   4.671   0.471 -1.0284  1.2076 -0.3539
 5078TIP3   OH236724   3.204   5.135  16.500  0.2123 -0.0754 -0.0426
 5078TIP3    H136725   3.119   5.100  16.528 -0.0047  0.6207  0.1963
 5078TIP3    H236726   3.186   5.226  16.477  1.2491  0.7259  1.9836
 5079TIP3   OH236727   0.679   5.253  13.588 -0.2815  0.1679  0.2844
 5079TIP3    H136728   0.690   5.202  13.668 -0.3719  0.5372  0.5357
 5079TIP3    H236729   0.628   5.330  13.615 -1.3001 -0.2562 -0.3501
 5080TIP3   OH236730   1.736   4.222  17.081 -0.5016  0.3602 -0.0567
 5080TIP3    H136731   1.671   4.249  17.147 -0.2900 -0.5326  0.5236
 5080TIP3    H236732   1.753   4.302  17.031  0.9725  1.6639  2.3576
 5081TIP3   OH236733   4.466   3.386  12.808  0.1302  0.1750 -0.0016
 5081TIP3    H136734   4.462   3.452  12.739 -0.1350  0.5464  0.3553
 5081TIP3    H236735   4.438   3.433  12.887  1.1810 -0.0326  0.5132
 5082TIP3   OH236736   6.620   6.170   4.171  0.2707  0.7834  0.0295
 5082TIP3    H136737   6.625   6.152   4.077  0.6946 -1.5249  0.4307
 5082TIP3    H236738   6.529   6.192   4.187 -0.0819 -0.0343 -0.7563
 5083TIP3   OH236739   0.477   6.769  15.828 -0.5968  0.0678 -0.9266
 5083TIP3    H136740   0.470   6.727  15.913 -0.0516 -0.4991 -1.1545
 5083TIP3    H236741   0.522   6.852  15.846  2.5317 -1.4384 -1.0351
 5084TIP3   OH236742   0.159   2.849   4.365  0.6905  0.1524 -0.0731
 5084TIP3    H136743   0.224   2.893   4.310  0.3244  1.0189  0.1652
 5084TIP3    H236744   0.085   2.832   4.306  0.4489  0.7389  0.0555
 5085TIP3   OH236745   5.311   4.193  11.175 -0.2500 -0.0964  0.9027
 5085TIP3    H136746   5.387   4.163  11.224 -0.6959 -1.0694  1.0095
 5085TIP3    H236747   5.347   4.251  11.108  0.5265 -0.1284  1.2869
 5086TIP3   OH236748   2.574   3.361   3.734 -0.0152 -0.2351 -0.0892
 5086TIP3    H136749   2.624   3.335   3.657 -0.9943 -0.0311 -0.8102
 5086TIP3    H236750   2.485   3.376   3.702  0.1238  2.5054  0.5336
 5087TIP3   OH236751   3.162   2.560   2.976  0.3890 -0.5174 -0.0209
 5087TIP3    H136752   3.107   2.486   3.000  0.8285 -0.9425 -0.2852
 5087TIP3    H236753   3.111   2.637   2.999 -0.5784 -0.8902 -0.8442
 5088TIP3   OH236754   5.386   0.947  12.865 -0.5621 -0.0878  0.3334
 5088TIP3    H136755   5.470   0.983  12.892 -0.7956  0.3967  0.4419
 5088TIP3    H236756   5.391   0.940  12.770 -0.5448  0.3242  0.3026
 5089TIP3   OH236757   0.068   0.643   4.007  0.2585  0.2426  0.0625
 5089TIP3    H136758   0.041   0.665   4.097  1.2817  1.0343  0.1895
 5089TIP3    H236759   0.022   0.707   3.952 -0.9733 -0.7193 -0.0753
 5090TIP3   OH236760   0.541   1.755  16.903  0.2788 -0.2239  0.2160
 5090TIP3    H136761   0.457   1.798  16.920  1.1805  1.1894  1.3993
 5090TIP3    H236762   0.597   1.785  16.974  1.9899 -0.5953 -0.9281
 5091TIP3   OH236763   6.557   0.358  15.588  0.0571  0.1312 -0.1865
 5091TIP3    H136764   6.542   0.263  15.589 -0.3595  0.1653 -1.4907
 5091TIP3    H236765   6.646   0.368  15.554  0.3709  0.2000  0.6227
 5092TIP3   OH236766   0.981   6.051  14.492 -0.1144 -0.3525  0.2801
 5092TIP3    H136767   0.925   5.977  14.516 -0.2514 -0.5084 -0.4845
 5092TIP3    H236768   1.054   6.012  14.445 -1.1586  0.1005 -1.8715
 5093TIP3   OH236769   6.273   2.681  12.056  0.3723  0.1506 -0.4014
 5093TIP3    H136770   6.220   2.619  12.006 -0.7187  1.1826 -0.5851
 5093TIP3    H236771   6.363   2.658  12.036  0.0913 -2.6442  1.0955
 5094TIP3   OH236772   4.816   0.965  13.482  0.1633  0.0690 -0.5178
 5094TIP3    H136773   4.866   0.898  13.528  1.2792  2.1030  1.4222
 5094TIP3    H236774   4.736   0.976  13.534 -0.0555  0.1811 -0.8720
 5095TIP3   OH236775   5.186   6.366  16.405  0.5381  0.2272 -0.0630
 5095TIP3    H136776   5.207   6.459  16.409  0.8808  0.2279 -1.3598
 5095TIP3    H236777   5.101   6.363  16.361  0.4144 -0.0623  0.1964
 5096TIP3   OH236778   0.918   0.723  14.942 -0.3810 -0.0692  0.1321
 5096TIP3    H136779   0.835   0.701  14.899 -0.4092  0.0834  0.1051
 5096TIP3    H236780   0.939   0.647  14.996  0.0275 -0.5857 -0.7186
 5097TIP3   OH236781   6.448   6.075  13.609 -1.1546 -0.0338  0.3031
 5097TIP3    H136782   6.377   6.135  13.586 -0.3806  1.0570  0.6834
 5097TIP3    H236783   6.489   6.114  13.686  0.3531 -0.1957 -0.3708
 5098TIP3   OH236784   6.096   5.759   0.154  0.7687 -0.6057 -0.6786
 5098TIP3    H136785   6.078   5.851   0.174  0.2303 -0.9056  0.2577
 5098TIP3    H236786   6.184   5.744   0.186  0.5641 -0.6170 -0.1070
 5099TIP3   OH236787   0.428   5.328  14.285 -0.6403  0.2209 -0.2573
 5099TIP3    H136788   0.383   5.308  14.367  0.3621  2.0463  0.7874
 5099TIP3    H236789   0.423   5.424  14.278  1.5427  0.3196 -1.0003
 5100TIP3   OH236790   4.255   3.032  13.074  0.2991 -0.0024 -0.2161
 5100TIP3    H136791   4.275   3.117  13.036  0.1226 -0.2064 -0.7894
 5100TIP3    H236792   4.340   2.989  13.085  0.2923 -0.3605 -1.4133
 5101TIP3   OH236793   1.380   2.963   0.498  0.1652 -0.5636 -0.8023
 5101TIP3    H136794   1.405   3.023   0.428  1.2212 -1.5038 -1.2526
 5101TIP3    H236795   1.410   2.877   0.469 -1.1164 -1.3018 -0.0703
 5102TIP3   OH236796   1.622   6.158  13.584 -0.1531 -0.1338 -0.5264
 5102TIP3    H136797   1.566   6.197  13.651 -0.4412 -0.8705 -0.3317
 5102TIP3    H236798   1.653   6.076  13.622  0.3439 -0.1648 -0.9793
 5103TIP3   OH236799   2.440   2.061   1.726 -0.3991 -0.2436  0.1011
 5103TIP3    H136800   2.444   2.009   1.645 -3.0782 -0.4895  0.0339
 5103TIP3    H236801   2.349   2.053   1.755  0.2833  0.5757  2.6847
 5104TIP3   OH236802   5.625   6.460   4.224 -0.2718 -0.8581  0.0691
 5104TIP3    H136803   5.699   6.521   4.217  0.5873 -1.7015  1.3184
 5104TIP3    H236804   5.557   6.498   4.168  0.8913  0.2554 -0.6498
 5105TIP3   OH236805   3.528   3.051  10.393  0.7255  0.1827 -0.1627
 5105TIP3    H136806   3.597   3.117  10.393  0.0027  0.9629  0.2397
 5105TIP3    H236807   3.447   3.101  10.379  0.3076 -0.7996 -1.5145
 5106TIP3   OH236808   5.070   3.633   0.866  0.0495 -0.8923 -0.2040
 5106TIP3    H136809   4.993   3.580   0.848  0.9972 -1.9190 -1.3561
 5106TIP3    H236810   5.080   3.628   0.961 -1.1487 -0.9389 -0.0624
 5107TIP3   OH236811   4.266   5.031   1.910  0.1402  0.1587 -0.0875
 5107TIP3    H136812   4.177   5.059   1.930  0.6654  0.8715  1.3086
 5107TIP3    H236813   4.317   5.049   1.989  1.1921 -1.7660 -0.2486
 5108TIP3   OH236814   5.583   4.105  14.369  0.2456 -0.1617 -0.3124
 5108TIP3    H136815   5.655   4.043  14.385 -1.2930 -1.4356  2.4114
 5108TIP3    H236816   5.624   4.191  14.376  1.8279 -0.8470 -0.6639
 5109TIP3   OH236817   1.556   0.066  15.783 -0.7494 -0.6720  0.0458
 5109TIP3    H136818   1.576   0.133  15.718  0.7310  0.7304  1.8285
 5109TIP3    H236819   1.479   0.099  15.828 -0.3526 -0.4180  0.5529
 5110TIP3   OH236820   4.631   2.220   2.888 -0.3860  0.3964 -0.1792
 5110TIP3    H136821   4.673   2.169   2.819  1.5725  0.0011  1.2350
 5110TIP3    H236822   4.674   2.192   2.969 -1.2765  2.2164  0.9897
 5111TIP3   OH236823   3.154   4.079  12.221 -0.4588 -0.1630  0.1859
 5111TIP3    H136824   3.200   4.146  12.271 -0.5897 -0.2576  0.4405
 5111TIP3    H236825   3.105   4.128  12.154 -0.4606 -0.0146  0.2947
 5112TIP3   OH236826   0.469   5.445   0.514 -0.2049  0.4885 -0.1675
 5112TIP3    H136827   0.413   5.378   0.553  1.1995  0.9757  3.0418
 5112TIP3    H236828   0.557   5.409   0.521  0.4906  2.2529  0.8853
 5113TIP3   OH236829   5.365   4.543   0.551 -0.6194 -0.5587  0.2548
 5113TIP3    H136830   5.306   4.550   0.476  0.6814 -0.7893 -0.8068
 5113TIP3    H236831   5.338   4.461   0.594  0.4419 -1.9652 -1.5971
 5114TIP3   OH236832   6.183   0.419   2.902  0.0621  0.4946 -0.0867
 5114TIP3    H136833   6.207   0.464   2.983 -1.1879  0.7712  0.1508
 5114TIP3    H236834   6.164   0.489   2.840  1.6014  0.2896 -0.8331
 5115TIP3   OH236835   3.665   5.988   0.900  0.1254  0.3005  0.2451
 5115TIP3    H136836   3.640   6.063   0.954 -0.0059 -0.4558  1.2622
 5115TIP3    H236837   3.740   5.950   0.945 -0.8242 -1.1547  0.7056
 5116TIP3   OH236838   6.624   3.313  15.329  0.1647  0.1766 -0.2191
 5116TIP3    H136839   6.656   3.397  15.295  0.5120 -0.4328 -1.4513
 5116TIP3    H236840   6.538   3.302  15.289 -0.0866  0.1630  0.3177
 5117TIP3   OH236841   2.646   3.556  16.502 -1.1123  0.3442  0.3105
 5117TIP3    H136842   2.587   3.622  16.467 -1.1765 -0.1051 -0.4422
 5117TIP3    H236843   2.708   3.539  16.431 -1.7581 -1.1930  0.0835
 5118TIP3   OH236844   2.424   1.892  15.557 -0.1685 -0.6675 -0.0946
 5118TIP3    H136845   2.442   1.840  15.479 -0.4448 -2.0211  0.7226
 5118TIP3    H236846   2.442   1.833  15.630  0.7292  0.7735  0.9008
 5119TIP3   OH236847   3.050   2.334  13.428  0.8549  0.3605 -0.3461
 5119TIP3    H136848   3.093   2.391  13.364  1.2136 -0.4604 -0.8490
 5119TIP3    H236849   3.015   2.394  13.494  2.6092  1.0781 -0.0142
 5120TIP3   OH236850   0.531   5.071  16.225  0.1862 -0.4704  0.0310
 5120TIP3    H136851   0.495   5.107  16.306 -0.4881  3.6531 -1.8190
 5120TIP3    H236852   0.624   5.091  16.228 -0.0679  0.9703 -0.6936
 5121TIP3   OH236853   1.728   2.950   6.435 -0.3949 -0.3939 -0.2385
 5121TIP3    H136854   1.800   2.911   6.484 -0.3239  1.4852  1.2703
 5121TIP3    H236855   1.768   3.021   6.385 -1.2322  1.2352  1.2794
 5122TIP3   OH236856   4.227   3.486   4.986  0.1589  0.4334  0.6180
 5122TIP3    H136857   4.202   3.561   5.041 -1.4449  0.4401 -0.0583
 5122TIP3    H236858   4.261   3.526   4.906 -1.9443  0.5294 -0.3016
 5123TIP3   OH236859   1.072   2.033   3.453 -0.0315  0.1927  0.6772
 5123TIP3    H136860   1.081   1.947   3.494 -1.1818 -0.5941 -0.6174
 5123TIP3    H236861   1.149   2.041   3.396 -1.6899 -1.7201 -2.0822
 5124TIP3   OH236862   5.387   0.138   5.427  0.0122  0.4195 -0.2811
 5124TIP3    H136863   5.364   0.046   5.414 -1.8858  0.8023  0.2023
 5124TIP3    H236864   5.381   0.176   5.339  3.8196 -0.4377 -1.1360
 5125TIP3   OH236865   5.477   5.271  13.410 -0.2088 -0.1158  0.7721
 5125TIP3    H136866   5.534   5.311  13.475 -0.9778 -0.0006  1.3885
 5125TIP3    H236867   5.439   5.195  13.455 -0.7123 -0.0609  0.4489
 5126TIP3   OH236868   5.354   5.551  16.635 -0.3185 -0.0939 -0.6560
 5126TIP3    H136869   5.319   5.507  16.558 -2.1092 -0.3422  0.2477
 5126TIP3    H236870   5.348   5.644  16.614  2.9979 -0.1373 -2.3631
 5127TIP3   OH236871   6.069   3.182  16.063 -0.0371 -0.2731  0.2163
 5127TIP3    H136872   6.007   3.112  16.042 -0.0866 -0.3067  0.4706
 5127TIP3    H236873   6.135   3.176  15.995 -0.8359  0.3971 -0.6364
 5128TIP3   OH236874   3.202   3.359  12.275  0.2369  0.0126  0.3252
 5128TIP3    H136875   3.113   3.329  12.293  0.4431 -1.7067 -1.2640
 5128TIP3    H236876   3.190   3.438  12.222 -0.2977  1.9818  3.1440
 5129TIP3   OH236877   4.386   1.616  12.536 -0.1582 -0.0173 -0.3401
 5129TIP3    H136878   4.370   1.634  12.628  0.3686  0.0253 -0.2524
 5129TIP3    H236879   4.464   1.560  12.535 -1.1007 -1.3759 -0.6762
 5130TIP3   OH236880   0.773   0.325   1.505  0.2536  0.3601 -0.3817
 5130TIP3    H136881   0.780   0.286   1.593 -1.2456  1.0711  0.0988
 5130TIP3    H236882   0.739   0.254   1.451 -2.3064  0.8364  0.4533
 5131TIP3   OH236883   2.152   0.021   6.806  0.6663 -0.5395 -0.1236
 5131TIP3    H136884   2.116   0.017   6.894  1.4773  1.8995  0.4067
 5131TIP3    H236885   2.177   0.113   6.794 -0.7340 -0.4299 -3.4519
 5132TIP3   OH236886   1.582   4.374   5.632  0.3096  0.2495 -0.6565
 5132TIP3    H136887   1.525   4.346   5.560  0.5456  1.6115 -1.4113
 5132TIP3    H236888   1.663   4.324   5.619 -0.3344 -0.9450 -0.1741
 5133TIP3   OH236889   6.357   3.070   2.768 -0.5463 -0.0262  0.8444
 5133TIP3    H136890   6.311   3.152   2.747 -0.5144 -0.4549 -1.0118
 5133TIP3    H236891   6.322   3.006   2.706  1.7184 -0.6522  0.1253
 5134TIP3   OH236892   3.491   3.802  13.058  0.0617  0.3318 -0.5141
 5134TIP3    H136893   3.531   3.719  13.032 -0.8876 -0.1258 -0.5381
 5134TIP3    H236894   3.496   3.802  13.154 -1.5170 -0.5778 -0.4071
 5135TIP3   OH236895   1.166   5.954  13.949 -0.4225  0.1298 -0.0354
 5135TIP3    H136896   1.257   5.965  13.922 -0.2199 -0.5329  0.3602
 5135TIP3    H236897   1.115   5.974  13.870 -0.0134  1.9713  0.1334
 5136TIP3   OH236898   1.899   3.679  14.319  0.5855 -0.8716  0.1581
 5136TIP3    H136899   1.971   3.738  14.340  0.4791 -0.2891 -1.0212
 5136TIP3    H236900   1.941   3.601  14.283  0.6613 -0.8435  0.1872
 5137TIP3   OH236901   1.652   1.888   5.053  0.0296  0.3953  0.3168
 5137TIP3    H136902   1.676   1.807   5.006  0.7660 -0.0058  1.3390
 5137TIP3    H236903   1.683   1.873   5.142 -0.1100  1.6964  0.5927
 5138TIP3   OH236904   6.067   2.062  16.878 -0.1715 -0.1377  0.2854
 5138TIP3    H136905   6.037   1.973  16.861  0.2070  0.0494 -1.5724
 5138TIP3    H236906   6.066   2.070  16.973 -0.2037 -2.1269  0.4912
 5139TIP3   OH236907   5.854   6.322  14.523 -0.0686  0.2199 -0.1096
 5139TIP3    H136908   5.901   6.399  14.555  0.3397 -0.3736  0.7506
 5139TIP3    H236909   5.838   6.269  14.601 -0.5846 -0.4413 -0.6506
 5140TIP3   OH236910   6.055   3.530   1.851  0.3629 -0.1201  0.6355
 5140TIP3    H136911   6.094   3.450   1.815 -4.8099 -2.3760 -0.8089
 5140TIP3    H236912   6.015   3.503   1.933 -0.6511  1.2196  0.6126
 5141TIP3   OH236913   5.601   4.322  12.130  0.1478  0.1536  0.1454
 5141TIP3    H136914   5.547   4.347  12.205  2.3594 -0.1634  1.9690
 5141TIP3    H236915   5.596   4.227  12.127 -1.5151  0.2406 -1.4435
 5142TIP3   OH236916   3.703   5.542   5.780 -0.2204 -0.8613 -0.2893
 5142TIP3    H136917   3.756   5.498   5.847  1.4098 -0.2112 -1.0783
 5142TIP3    H236918   3.709   5.485   5.703  0.4776 -0.1625 -0.7826
 5143TIP3   OH236919   6.496   2.305  16.647 -0.1408 -0.1935  0.0520
 5143TIP3    H136920   6.455   2.277  16.566  0.2727 -1.1056  0.1490
 5143TIP3    H236921   6.560   2.371  16.621  0.2479 -0.7471 -0.4104
 5144TIP3   OH236922   6.442   5.041   3.685 -0.1439 -0.4538 -0.1857
 5144TIP3    H136923   6.438   5.076   3.774 -0.4714 -0.4300 -0.2092
 5144TIP3    H236924   6.514   4.977   3.687  2.5487  2.3178 -0.8892
 5145TIP3   OH236925   5.586   0.706   1.744 -0.3518  0.1595 -0.5031
 5145TIP3    H136926   5.645   0.657   1.802 -1.9851  0.2459  1.3333
 5145TIP3    H236927   5.569   0.647   1.671 -1.1569 -1.5146  0.9682
 5146TIP3   OH236928   0.573   5.371   1.166  0.2168 -0.3235 -0.2480
 5146TIP3    H136929   0.645   5.398   1.223  1.6435 -0.0160 -2.0821
 5146TIP3    H236930   0.564   5.277   1.182  2.2203 -0.7338 -1.1537
 5147TIP3   OH236931   3.814   6.685  17.144  0.1514 -0.3941  0.5802
 5147TIP3    H136932   3.820   6.777  17.171  0.9951 -0.6347  1.2425
 5147TIP3    H236933   3.902   6.664  17.111  0.4421 -1.4039  1.9035
 5148TIP3   OH236934   2.854   4.264   2.676 -0.1783 -0.3768  0.1430
 5148TIP3    H136935   2.765   4.234   2.698  0.0450 -0.2744  1.2383
 5148TIP3    H236936   2.901   4.183   2.654 -0.1956 -0.5855  0.8475
 5149TIP3   OH236937   1.480   3.348  15.454 -0.8965 -0.5394 -0.4107
 5149TIP3    H136938   1.468   3.286  15.382 -2.1029 -0.8174 -0.0033
 5149TIP3    H236939   1.435   3.427  15.423  1.9732  0.7673 -1.6094
 5150TIP3   OH236940   2.094   4.217   2.027 -0.2491 -0.2989 -0.0406
 5150TIP3    H136941   2.084   4.188   1.936 -0.2009  0.3583 -0.2631
 5150TIP3    H236942   2.066   4.309   2.026  2.0939  0.4949  0.0854
 5151TIP3   OH236943   4.385   3.660   5.198  0.5965  0.4614  1.2414
 5151TIP3    H136944   4.425   3.726   5.255 -1.2766  1.1939  1.7781
 5151TIP3    H236945   4.291   3.666   5.216  0.2163 -1.2044  0.0610
 5152TIP3   OH236946   5.253   0.987   6.096 -0.5353  0.1854  0.2492
 5152TIP3    H136947   5.182   0.976   6.159 -0.1007  0.0855  0.7254
 5152TIP3    H236948   5.280   0.898   6.074  0.0794  0.2327  0.7982
 5153TIP3   OH236949   3.881   3.725  14.276  0.2621  0.3402  0.4415
 5153TIP3    H136950   3.952   3.693  14.220 -0.3984  0.5347 -0.5298
 5153TIP3    H236951   3.810   3.663  14.261 -1.2033  2.3979 -1.8154
 5154TIP3   OH236952   4.490   1.516  11.945  0.1707  0.1005 -0.1917
 5154TIP3    H136953   4.449   1.469  11.873  1.7347 -2.9081  0.6977
 5154TIP3    H236954   4.435   1.498  12.021 -0.2592  1.4205 -0.1523
 5155TIP3   OH236955   3.915   2.346   1.769 -0.1982 -0.1156  0.7633
 5155TIP3    H136956   3.998   2.370   1.810  1.4659  0.7099 -2.6774
 5155TIP3    H236957   3.855   2.417   1.793  1.0435  0.9562  0.7886
 5156TIP3   OH236958   4.035   6.756  14.332  0.1241 -0.4163 -0.2589
 5156TIP3    H136959   4.061   6.665  14.322 -1.6969 -0.8217 -2.1441
 5156TIP3    H236960   4.051   6.795  14.246  1.9190  1.4072  0.8137
 5157TIP3   OH236961   1.391   1.698  15.176 -0.9432 -0.2289 -0.2508
 5157TIP3    H136962   1.398   1.732  15.087  0.6344  2.5913  0.8307
 5157TIP3    H236963   1.471   1.647  15.189 -0.3728  0.7139  0.0326
 5158TIP3   OH236964   5.397   6.001  12.667  0.1613  0.1258  0.2120
 5158TIP3    H136965   5.333   5.968  12.604 -1.1429 -0.0860  1.6205
 5158TIP3    H236966   5.350   6.007  12.750  1.0254  3.0926  0.6095
 5159TIP3   OH236967   4.742   5.117   5.299  0.1887  0.0204  0.8096
 5159TIP3    H136968   4.783   5.071   5.226  0.6312  1.0525  0.3862
 5159TIP3    H236969   4.811   5.124   5.365  0.5175  1.1861  0.3579
 5160TIP3   OH236970   6.625   5.743   1.152  0.2513  0.6629 -0.7374
 5160TIP3    H136971   6.539   5.780   1.170 -0.0707 -0.2888 -0.2786
 5160TIP3    H236972   6.687   5.811   1.180 -0.3009  0.5304  0.9036
 5161TIP3   OH236973   3.620   1.171   0.141  0.5432  0.2816  0.3147
 5161TIP3    H136974   3.699   1.183   0.089  0.1763  2.3945  0.1670
 5161TIP3    H236975   3.595   1.259   0.168 -1.4130 -0.3961  0.8783
 5162TIP3   OH236976   1.535   2.640   4.874 -0.0985 -0.3934  0.4265
 5162TIP3    H136977   1.599   2.639   4.803  2.2080  0.3329  2.3546
 5162TIP3    H236978   1.538   2.552   4.910 -0.1119 -0.3307  0.5808
 5163TIP3   OH236979   1.362   0.790  13.551  0.3287  0.2486 -0.4223
 5163TIP3    H136980   1.381   0.772  13.459 -0.2463 -1.2106 -0.2668
 5163TIP3    H236981   1.343   0.884  13.553 -0.0956  0.2167 -1.8678
 5164TIP3   OH236982   0.662   4.205  14.174  0.2181 -0.2017 -0.3372
 5164TIP3    H136983   0.750   4.169  14.164  0.9515  0.9844  1.4049
 5164TIP3    H236984   0.622   4.153  14.243 -0.4077 -0.6410 -1.0207
 5165TIP3   OH236985   3.272   0.330  14.667  0.0864 -0.6193 -1.0310
 5165TIP3    H136986   3.297   0.276  14.592 -0.9293 -6.1429  2.0050
 5165TIP3    H236987   3.354   0.347  14.713  0.3275 -0.5747 -1.4761
 5166TIP3   OH236988   6.181   3.069   1.179 -0.1448  0.4624 -0.4906
 5166TIP3    H136989   6.224   3.099   1.259  1.4798 -0.6175 -0.9040
 5166TIP3    H236990   6.231   3.109   1.108  0.0681 -0.6535 -0.9926
 5167TIP3   OH236991   1.756   4.334  14.642  0.2670  0.6103 -0.0889
 5167TIP3    H136992   1.816   4.263  14.666  0.1133  0.3299 -0.5179
 5167TIP3    H236993   1.695   4.294  14.580 -0.4166  0.8666  0.3918
 5168TIP3   OH236994   3.717   2.251   2.141  0.5203  0.9535 -0.1036
 5168TIP3    H136995   3.649   2.192   2.171  1.6557  0.1905  1.0496
 5168TIP3    H236996   3.736   2.223   2.051  1.4737 -0.9046  0.6237
 5169TIP3   OH236997   2.139   0.937  12.891  0.4734  0.5048 -0.2558
 5169TIP3    H136998   2.145   0.935  12.795  0.4307 -0.0735 -0.2539
 5169TIP3    H236999   2.056   0.980  12.909 -0.2206 -0.6767 -0.5233
 5170TIP3   OH237000   6.186   6.092   4.525  0.7441 -0.6695  0.1586
 5170TIP3    H137001   6.111   6.068   4.578  0.2936  0.5573  0.1124
 5170TIP3    H237002   6.185   6.031   4.452 -0.6249 -0.2377 -0.2106
 5171TIP3   OH237003   3.959   1.866   1.855 -0.1877  0.4427  0.1891
 5171TIP3    H137004   3.998   1.787   1.893 -1.1119 -0.3839 -0.5066
 5171TIP3    H237005   4.031   1.909   1.809  0.5195  0.4674  1.3064
 5172TIP3   OH237006   3.198   2.523   0.176  0.3909  0.0461 -0.2460
 5172TIP3    H137007   3.228   2.454   0.117  0.3177  1.6932 -2.3806
 5172TIP3    H237008   3.228   2.604   0.134 -2.2859  1.4713  0.3559
 5173TIP3   OH237009   3.443   5.157  11.473 -0.2694  0.6174 -0.3360
 5173TIP3    H137010   3.534   5.186  11.461  0.0817 -0.8069 -1.4621
 5173TIP3    H237011   3.434   5.142  11.567  0.5755  1.0365 -0.1815
 5174TIP3   OH237012   5.338   4.310  13.500  0.2933  0.6409  0.3173
 5174TIP3    H137013   5.358   4.383  13.559  2.4010 -0.0647  0.5492
 5174TIP3    H237014   5.410   4.248  13.513 -0.9303 -1.0495 -0.5989
 5175TIP3   OH237015   4.463   3.739  16.962 -0.0511 -0.3823 -0.4176
 5175TIP3    H137016   4.380   3.774  16.994  0.4752 -0.0586  0.6327
 5175TIP3    H237017   4.494   3.804  16.899  0.0589  0.1672  0.1990
 5176TIP3   OH237018   2.677   2.031  10.888  0.2005 -0.2005  0.4900
 5176TIP3    H137019   2.642   2.030  10.799 -0.3999 -0.3537  0.7271
 5176TIP3    H237020   2.772   2.021  10.876  0.0281 -1.2779 -0.0865
 5177TIP3   OH237021   2.237   4.068  13.600  0.3359  0.1170 -0.8857
 5177TIP3    H137022   2.160   4.057  13.654  0.5219  1.5149 -0.2925
 5177TIP3    H237023   2.233   3.996  13.536 -0.8874 -0.4204 -0.2230
 5178TIP3   OH237024   5.210   1.569   3.145 -0.0381  0.0076 -0.4590
 5178TIP3    H137025   5.279   1.503   3.144 -0.7120 -0.8444  2.2751
 5178TIP3    H237026   5.170   1.562   3.232 -1.7351  2.3873 -0.9363
 5179TIP3   OH237027   1.485   5.944   4.171 -0.3053 -0.2849 -0.3775
 5179TIP3    H137028   1.450   5.857   4.152 -1.3809  0.2902 -1.1899
 5179TIP3    H237029   1.417   5.985   4.225 -0.1858  0.3242 -0.6824
 5180TIP3   OH237030   1.746   1.300  16.865 -0.5061  0.0999  0.3739
 5180TIP3    H137031   1.754   1.269  16.775 -1.3788 -2.2150  1.0162
 5180TIP3    H237032   1.836   1.300  16.899 -0.0921  1.6453 -0.6616
 5181TIP3   OH237033   2.488   0.903   4.892  0.2356 -0.5180 -0.2159
 5181TIP3    H137034   2.480   0.811   4.918  0.3809 -0.6066 -0.4709
 5181TIP3    H237035   2.581   0.923   4.905 -0.0446 -0.0159  1.0883
 5182TIP3   OH237036   1.275   2.895   4.504  0.1341  0.3694 -0.1329
 5182TIP3    H137037   1.216   2.921   4.433 -0.9550  1.2988  1.0770
 5182TIP3    H237038   1.218   2.856   4.570  1.2290 -1.1828 -0.0616
 5183TIP3   OH237039   0.136   0.266  12.339 -0.4187 -0.2243  0.6708
 5183TIP3    H137040   0.043   0.249  12.351 -0.1667 -1.3364  1.1472
 5183TIP3    H237041   0.173   0.182  12.311  0.7442 -0.3037  2.3101
 5184TIP3   OH237042   4.662   4.831   3.762  0.2663  0.1897  0.4212
 5184TIP3    H137043   4.702   4.766   3.820  0.6043  0.1628  0.1671
 5184TIP3    H237044   4.736   4.886   3.734 -0.1701  1.3882  1.5073
 5185TIP3   OH237045   3.896   4.424  14.616  0.7545  0.0942  0.0456
 5185TIP3    H137046   3.885   4.329  14.619  0.2419  0.1720  1.6621
 5185TIP3    H237047   3.864   4.449  14.529  1.2206 -1.2349 -0.5341
 5186TIP3   OH237048   1.773   5.515   3.462 -0.9215  0.2378  0.3903
 5186TIP3    H137049   1.796   5.591   3.515  0.9001 -0.0950  0.1189
 5186TIP3    H237050   1.748   5.552   3.377 -0.1653  0.5492  0.2986
 5187TIP3   OH237051   0.060   2.600   6.210 -0.1502 -0.0528  0.0144
 5187TIP3    H137052  -0.035   2.592   6.218 -0.5093 -0.3876 -3.0446
 5187TIP3    H237053   0.091   2.510   6.206  0.3701  0.0534  1.4024
 5188TIP3   OH237054   1.044   6.654  11.729  0.2855 -0.2025 -0.1864
 5188TIP3    H137055   1.063   6.745  11.708 -1.0190 -0.0743 -0.8567
 5188TIP3    H237056   1.035   6.611  11.644 -0.9281 -0.5622  0.1049
 5189TIP3   OH237057   3.353   6.627   3.329 -0.2652 -0.4945 -0.0503
 5189TIP3    H137058   3.383   6.595   3.244 -1.9874  0.2470 -0.9932
 5189TIP3    H237059   3.399   6.710   3.341 -0.9136 -0.0005 -0.8673
 5190TIP3   OH237060   2.486   0.946   1.683 -0.2083  0.5586  0.1251
 5190TIP3    H137061   2.398   0.964   1.651  0.9947  3.4360 -2.0762
 5190TIP3    H237062   2.521   0.882   1.620  0.0198  1.2328 -0.4449
 5191TIP3   OH237063   5.575   1.372  13.273  0.1140 -0.2390 -0.3355
 5191TIP3    H137064   5.576   1.379  13.368 -0.1917  0.2740 -0.3694
 5191TIP3    H237065   5.483   1.370  13.249  0.1866 -0.0928 -0.6379
 5192TIP3   OH237066   1.357   3.898   3.626  0.2040  0.1646  0.6844
 5192TIP3    H137067   1.395   3.811   3.627 -0.1839 -0.0087  0.5747
 5192TIP3    H237068   1.373   3.933   3.714  0.8453  0.1993  0.5585
 5193TIP3   OH237069   5.881   6.832   1.155 -0.1344 -0.4343 -0.0930
 5193TIP3    H137070   5.952   6.896   1.142  0.6335 -0.6429  2.3872
 5193TIP3    H237071   5.805   6.886   1.176 -0.5710 -0.2411 -1.9941
 5194TIP3   OH237072   1.805   5.181   3.811 -0.6820  0.2362 -0.3583
 5194TIP3    H137073   1.754   5.138   3.742 -0.2490 -1.2259  0.1922
 5194TIP3    H237074   1.739   5.207   3.875 -0.7946 -1.8050  0.4352
 5195TIP3   OH237075   0.325   0.193  16.608  0.1220  0.1300  0.0499
 5195TIP3    H137076   0.327   0.266  16.670 -0.7826 -0.1475  0.4282
 5195TIP3    H237077   0.260   0.132  16.645  1.2970 -1.1556  0.0625
 5196TIP3   OH237078   1.687   2.393  15.730  0.3505  0.3465 -0.5633
 5196TIP3    H137079   1.737   2.319  15.695  0.2274 -0.9936  1.8567
 5196TIP3    H237080   1.731   2.415  15.812 -1.4160  0.8909  0.2904
 5197TIP3   OH237081   6.631   4.088   5.062  0.0319 -0.0616  0.2139
 5197TIP3    H137082   6.585   4.006   5.042 -2.5588  1.4753 -0.6924
 5197TIP3    H237083   6.572   4.156   5.030  3.6584  2.1591 -2.4937
 5198TIP3   OH237084   4.297   1.206  11.492 -0.3204 -0.6916 -0.0590
 5198TIP3    H137085   4.324   1.180  11.404  0.1369 -0.5547  0.0373
 5198TIP3    H237086   4.280   1.300  11.485  2.0607 -0.1506  0.5287
 5199TIP3   OH237087   4.061   6.290   5.331 -0.1861  0.4943 -0.3645
 5199TIP3    H137088   4.118   6.216   5.310 -0.5719 -0.1043  0.6325
 5199TIP3    H237089   4.122   6.360   5.354  0.1819  0.5060 -1.2912
 5200TIP3   OH237090   0.876   2.101  10.559  0.5496  0.2829 -0.5533
 5200TIP3    H137091   0.846   2.148  10.637 -1.7509  0.9993 -1.7830
 5200TIP3    H237092   0.812   2.030  10.547  0.1523  0.8993 -2.4171
 5201TIP3   OH237093   5.884   1.511  11.920 -0.0548  0.0716 -0.5279
 5201TIP3    H137094   5.931   1.438  11.961  0.9157  0.7787 -0.3531
 5201TIP3    H237095   5.874   1.483  11.828 -0.8045 -0.8111 -0.1921
 5202TIP3   OH237096   2.570   2.549   0.662 -0.4050 -0.2531 -0.4777
 5202TIP3    H137097   2.506   2.579   0.598 -0.0106 -0.7628 -1.1149
 5202TIP3    H237098   2.625   2.626   0.679 -0.3103 -0.2083 -0.9942
 5203TIP3   OH237099   0.914   5.158  12.176 -0.2885  0.3438 -0.1336
 5203TIP3    H137100   0.826   5.179  12.208  0.2723 -0.0869  1.7803
 5203TIP3    H237101   0.925   5.215  12.099 -2.1780  0.4887 -0.3411
 5204TIP3   OH237102   4.624   4.516   3.323  0.4431 -0.0186 -0.5960
 5204TIP3    H137103   4.686   4.582   3.353 -0.0756  0.3377 -0.2778
 5204TIP3    H237104   4.539   4.561   3.323  0.1430 -0.5693 -0.7545
 5205TIP3   OH237105   6.598   5.864   3.001  0.0289 -0.4617 -0.3451
 5205TIP3    H137106   6.673   5.907   3.041  1.6998 -1.5912 -2.0881
 5205TIP3    H237107   6.549   5.934   2.959  0.6150  0.1746  0.0241
 5206TIP3   OH237108   3.869   5.710  13.005  0.2011 -0.0567 -0.3851
 5206TIP3    H137109   3.783   5.675  13.028  0.6995 -0.3839  1.1034
 5206TIP3    H237110   3.900   5.654  12.934  0.2856 -1.6847  0.8609
 5207TIP3   OH237111   0.921   2.363   5.213  0.2063  0.1327  0.1243
 5207TIP3    H137112   1.007   2.368   5.255 -0.0025 -2.4005  1.0580
 5207TIP3    H237113   0.862   2.333   5.283 -0.8654 -0.8764 -1.1602
 5208TIP3   OH237114   0.737   3.898   2.309  0.2275  0.2031  0.2594
 5208TIP3    H137115   0.787   3.823   2.278 -0.5933 -0.4951  0.5996
 5208TIP3    H237116   0.794   3.940   2.374  0.6036 -0.2386  0.2183
 5209TIP3   OH237117   2.759   4.737  17.085 -0.6639  0.5039  0.0798
 5209TIP3    H137118   2.685   4.686  17.051 -0.6821  0.4631  0.1793
 5209TIP3    H237119   2.815   4.671  17.126  0.2062  0.3101 -1.3509
 5210TIP3   OH237120   3.077   1.413  16.210 -0.0899  0.4175  0.0921
 5210TIP3    H137121   3.073   1.491  16.264  1.2379  0.4224  0.2280
 5210TIP3    H237122   3.026   1.347  16.257 -1.6202  1.3243 -0.2661
 5211TIP3   OH237123   4.629   0.224   4.811 -0.0973  0.1985 -0.4555
 5211TIP3    H137124   4.645   0.318   4.819 -2.9109  0.7124  0.1185
 5211TIP3    H237125   4.650   0.188   4.897 -0.6591  0.6004 -0.1475
 5212TIP3   OH237126   3.532   1.904  14.581 -0.4589  0.8418  0.0726
 5212TIP3    H137127   3.441   1.893  14.555 -0.3707 -0.3483  0.2098
 5212TIP3    H237128   3.573   1.947  14.506 -0.8169  0.0327 -0.6087
 5213TIP3   OH237129   2.589   4.790  13.735  0.1478  0.2496  0.4206
 5213TIP3    H137130   2.674   4.746  13.733  0.6727  1.1560 -2.6465
 5213TIP3    H237131   2.610   4.883  13.733 -0.9674  0.6121  2.7760
 5214TIP3   OH237132   2.204   6.273  11.300  0.4441 -0.0657 -0.6575
 5214TIP3    H137133   2.135   6.311  11.246 -0.0138  3.1846  1.8850
 5214TIP3    H237134   2.283   6.321  11.274  0.2736  1.3061  1.1896
 5215TIP3   OH237135   5.554   4.522   4.166 -0.2358  0.0860  0.0632
 5215TIP3    H137136   5.551   4.618   4.164  0.2448  0.0946 -0.3665
 5215TIP3    H237137   5.524   4.499   4.254 -1.9420  0.5640 -0.3488
 5216TIP3   OH237138   3.417   1.255  11.472  0.5134 -0.3104  0.4572
 5216TIP3    H137139   3.367   1.177  11.494 -0.3699  0.2856  0.5974
 5216TIP3    H237140   3.508   1.227  11.475  0.2093 -1.3015  0.6221
 5217TIP3   OH237141   2.851   0.384  16.165 -0.3664 -0.5246  0.1395
 5217TIP3    H137142   2.864   0.390  16.070  0.1975  0.0357  0.2448
 5217TIP3    H237143   2.757   0.396  16.177 -0.4033 -0.3045 -0.3299
 5218TIP3   OH237144   0.506   6.762  12.187 -0.1482  0.2562 -0.4715
 5218TIP3    H137145   0.444   6.815  12.137  0.4146  0.0155 -1.4466
 5218TIP3    H237146   0.453   6.689  12.220 -1.2815  2.1343  2.1878
 5219TIP3   OH237147   0.200   6.720   6.523 -0.0326 -0.6999 -0.9995
 5219TIP3    H137148   0.235   6.801   6.559 -1.3819  0.0863 -1.3746
 5219TIP3    H237149   0.105   6.733   6.523 -0.2256 -1.9489 -1.8313
 5220TIP3   OH237150   5.008   4.333   5.106  0.1136 -0.6389  0.7967
 5220TIP3    H137151   5.045   4.284   5.032 -0.5044 -0.3503  0.2863
 5220TIP3    H237152   4.918   4.351   5.080  0.4073  1.0697  0.8032
 5221TIP3   OH237153   0.283   6.334  11.788  0.2036 -0.3886  0.6899
 5221TIP3    H137154   0.361   6.388  11.799 -0.3137  0.5835 -0.1381
 5221TIP3    H237155   0.300   6.283  11.709 -0.0448 -0.0557  0.4148
 5222TIP3   OH237156   6.629   4.955  11.504 -0.5120 -0.2925  0.7908
 5222TIP3    H137157   6.560   4.931  11.566  0.4695 -0.5537  1.8209
 5222TIP3    H237158   6.691   5.007  11.556 -0.3832  0.7260 -0.3338
 5223TIP3   OH237159   1.254   0.348   1.300 -0.0889 -0.3110 -0.2238
 5223TIP3    H137160   1.282   0.257   1.294 -0.9160 -0.5593 -0.5099
 5223TIP3    H237161   1.170   0.345   1.347  0.9117  0.5295  1.7610
 5224TIP3   OH237162   3.062   4.332  11.152 -0.0944  0.2520 -0.5855
 5224TIP3    H137163   3.054   4.267  11.083 -1.0600 -0.4629  0.1790
 5224TIP3    H237164   3.152   4.364  11.144  0.4286 -1.2373 -0.9157
 5225TIP3   OH237165   5.378   4.201  16.873 -0.2986 -0.2530  0.2889
 5225TIP3    H137166   5.422   4.268  16.925  1.2795 -1.1457  0.1826
 5225TIP3    H237167   5.323   4.154  16.935  0.4236 -0.3567  0.8734
 5226TIP3   OH237168   0.728   4.508   2.028 -0.1688  0.3336  0.0752
 5226TIP3    H137169   0.695   4.486   1.941 -0.3346  2.0571 -0.3414
 5226TIP3    H237170   0.823   4.494   2.022 -0.0585  1.2617 -0.6868
 5227TIP3   OH237171   0.538   0.922  11.631  0.3897  0.1531  0.3136
 5227TIP3    H137172   0.560   0.970  11.552 -1.1166  2.1750  1.0268
 5227TIP3    H237173   0.609   0.941  11.692  0.4655  0.4003  0.1497
 5228TIP3   OH237174   3.546   0.312  14.776 -0.1651 -0.3427  0.3122
 5228TIP3    H137175   3.505   0.366  14.844 -0.7877  0.0567 -0.3721
 5228TIP3    H237176   3.594   0.374  14.721 -0.6378 -0.5218 -0.3049
 5229TIP3   OH237177   3.353   5.560  15.479 -0.2963  0.3325 -0.4728
 5229TIP3    H137178   3.309   5.612  15.546  0.7869  1.6830 -0.7665
 5229TIP3    H237179   3.418   5.509  15.528 -0.4532  0.2619 -0.3355
 5230TIP3   OH237180   3.880   5.438   2.453  1.0059 -0.1343 -0.5042
 5230TIP3    H137181   3.895   5.403   2.365 -0.0567 -1.7509 -0.0979
 5230TIP3    H237182   3.785   5.428   2.467  1.0327  0.8216  0.5387
 5231TIP3   OH237183   2.730   6.801  12.578  0.0020  0.6337  0.3528
 5231TIP3    H137184   2.799   6.735  12.567  0.6135  1.5689 -1.9961
 5231TIP3    H237185   2.760   6.855  12.651  0.0970 -0.8895  1.5004
 5232TIP3   OH237186   3.833   0.990  16.041  0.0211  0.3676  0.0163
 5232TIP3    H137187   3.773   1.026  15.976  0.6346  2.3437  0.4818
 5232TIP3    H237188   3.913   0.972  15.993 -0.1034  0.1473 -0.1101
 5233TIP3   OH237189   3.277   1.734   3.741  0.5255  0.2401  0.1804
 5233TIP3    H137190   3.330   1.739   3.820  0.2531  0.7606  0.3353
 5233TIP3    H237191   3.211   1.802   3.752 -0.1164 -0.3301 -0.0571
 5234TIP3   OH237192   1.923   6.137   1.743 -0.3938 -0.5269  0.2533
 5234TIP3    H137193   1.982   6.139   1.668  0.9275  0.8466  1.2874
 5234TIP3    H237194   1.867   6.214   1.732 -1.2293 -1.1576 -0.0804
 5235TIP3   OH237195   3.237   1.868   0.484  0.1081 -0.4456 -0.7985
 5235TIP3    H137196   3.275   1.796   0.433  0.2197 -1.9150  1.2338
 5235TIP3    H237197   3.146   1.841   0.499 -0.3366  0.6553 -1.3902
 5236TIP3   OH237198   4.506   3.511   0.431  0.6316  0.8217 -0.7772
 5236TIP3    H137199   4.452   3.486   0.505 -0.8189  2.4314 -1.2376
 5236TIP3    H237200   4.586   3.548   0.470  0.2545  0.8687 -0.0385
 5237TIP3   OH237201   1.130   2.572  15.779  0.1673  0.5028  0.5980
 5237TIP3    H137202   1.201   2.543  15.835  0.7428  0.3214 -0.2046
 5237TIP3    H237203   1.170   2.582  15.693 -1.2114 -1.5843 -0.3576
 5238TIP3   OH237204   2.721   0.249   6.527  0.0707  0.3869  0.5410
 5238TIP3    H137205   2.717   0.341   6.499 -1.2824  0.1255 -0.2316
 5238TIP3    H237206   2.681   0.201   6.455 -1.5912 -0.5532  2.0260
 5239TIP3   OH237207   6.159   0.689   2.782 -0.3255  0.2441 -0.9836
 5239TIP3    H137208   6.145   0.751   2.854 -0.2229  1.7399 -2.2140
 5239TIP3    H237209   6.239   0.719   2.739 -0.1828 -0.8466 -1.5237
 5240TIP3   OH237210   4.163   2.828   5.014  0.3619 -0.0056  0.0133
 5240TIP3    H137211   4.133   2.860   4.929 -0.0027 -1.0410 -0.2549
 5240TIP3    H237212   4.135   2.895   5.076  0.3328  0.5939 -0.6274
 5241TIP3   OH237213   2.238   0.554   6.180  0.3668 -0.2248  0.5958
 5241TIP3    H137214   2.191   0.596   6.108 -2.2816 -1.9554  1.1531
 5241TIP3    H237215   2.219   0.608   6.257 -1.0231 -1.0429  0.8629
 5242TIP3   OH237216   3.192   2.108  15.659 -0.0705  0.6003  0.1764
 5242TIP3    H137217   3.282   2.088  15.631 -0.2080  1.3199 -0.8469
 5242TIP3    H237218   3.179   2.199  15.632 -0.9923  0.6071  0.6273
 5243TIP3   OH237219   4.055   1.174   2.031  0.3452 -0.5573  0.1993
 5243TIP3    H137220   4.080   1.145   2.119  0.4055  1.3762  0.8644
 5243TIP3    H237221   4.112   1.125   1.972  1.3476 -0.7877  1.3284
 5244TIP3   OH237222   1.182   2.957  12.967  0.3729  0.8690  0.0399
 5244TIP3    H137223   1.208   2.913  12.887 -0.3857 -1.8579  1.1893
 5244TIP3    H237224   1.088   2.972  12.957  0.7932  3.4984 -0.8272
 5245TIP3   OH237225   2.374   3.861   2.420  0.2096  0.2273 -0.4283
 5245TIP3    H137226   2.435   3.793   2.393  0.4673  0.3794 -0.2331
 5245TIP3    H237227   2.323   3.880   2.341  0.5913  0.2835 -0.6665
 5246TIP3   OH237228   2.907   4.501  15.976  0.7171 -0.0037  0.0173
 5246TIP3    H137229   2.866   4.551  15.905  1.6787 -0.4986 -0.9250
 5246TIP3    H237230   2.985   4.463  15.936  0.9088 -0.8786  1.1670
 5247TIP3   OH237231   1.557   6.576  11.902  0.1240 -0.1513  0.3365
 5247TIP3    H137232   1.466   6.574  11.874  0.3527  1.1311 -0.6116
 5247TIP3    H237233   1.560   6.520  11.979 -1.6603  0.5364  0.9549
 5248TIP3   OH237234   6.333   1.831   1.216  0.2329 -0.5313 -0.0078
 5248TIP3    H137235   6.244   1.862   1.199  0.6822  1.9145  1.5959
 5248TIP3    H237236   6.389   1.898   1.177  1.2901  0.0984  2.4570
 5249TIP3   OH237237   6.179   5.386   1.027  0.0964 -0.4427 -0.9104
 5249TIP3    H137238   6.262   5.392   1.073  0.2816 -1.4390 -1.0835
 5249TIP3    H237239   6.185   5.451   0.957 -0.3268  1.3362  0.6224
 5250TIP3   OH237240   6.480   2.681   3.089  0.0797  0.4688  0.0042
 5250TIP3    H137241   6.413   2.648   3.149  0.6854 -0.5826  0.1281
 5250TIP3    H237242   6.563   2.664   3.135  0.6253 -1.2216 -1.4703
 5251TIP3   OH237243   5.526   1.721   5.845  0.2172  0.4776  0.2909
 5251TIP3    H137244   5.440   1.722   5.802 -0.3739 -2.2343  1.2677
 5251TIP3    H237245   5.511   1.762   5.930  0.1434  0.8517  0.1040
 5252TIP3   OH237246   0.662   1.929   5.151 -0.2449 -0.5842 -0.3773
 5252TIP3    H137247   0.629   1.963   5.234 -0.1446 -0.6531 -0.3091
 5252TIP3    H237248   0.753   1.904   5.169  0.3224  0.9419 -0.9124
 5253TIP3   OH237249   0.246   3.827   1.519 -0.0495  0.0318 -0.4009
 5253TIP3    H137250   0.216   3.876   1.595 -2.3659  1.1105 -1.8737
 5253TIP3    H237251   0.234   3.735   1.544 -0.3826  0.3496  0.6675
 5254TIP3   OH237252   5.021   0.151  14.892 -0.3796  0.1587  0.1000
 5254TIP3    H137253   4.927   0.147  14.874 -0.3550  0.3859 -0.0840
 5254TIP3    H237254   5.061   0.159  14.806 -0.2607  1.2410  0.2503
 5255TIP3   OH237255   1.378   6.354  15.706 -0.2816 -0.6456 -0.0224
 5255TIP3    H137256   1.415   6.292  15.769  0.2066 -0.8543 -0.5062
 5255TIP3    H237257   1.427   6.435  15.722 -0.6282 -0.4974  0.3215
 5256TIP3   OH237258   0.083   5.802  10.345  0.4799  0.1279 -0.0663
 5256TIP3    H137259   0.171   5.771  10.363  1.0338  0.0341 -2.5316
 5256TIP3    H237260   0.083   5.893  10.374  2.5962  1.2316 -3.1008
 5257TIP3   OH237261   1.270   6.059   5.517  0.3403 -0.6164 -1.0989
 5257TIP3    H137262   1.222   6.104   5.587  0.3180 -0.9769 -0.8813
 5257TIP3    H237263   1.284   6.127   5.451  1.7264  0.1493 -0.0770
 5258TIP3   OH237264   0.068   6.164  10.966  0.3179 -0.1937  0.1861
 5258TIP3    H137265   0.028   6.078  10.980 -0.3838 -0.3971 -2.5243
 5258TIP3    H237266   0.154   6.144  10.929 -0.1700  0.2394 -1.2234
 5259TIP3   OH237267   3.251   0.756  15.052 -0.5527 -0.5553  0.2580
 5259TIP3    H137268   3.229   0.847  15.031  1.5636 -0.4556 -2.1204
 5259TIP3    H237269   3.185   0.704  15.007 -0.8265 -0.2040  0.2530
 5260TIP3   OH237270   3.607   6.760   3.741  0.6102  0.1819 -0.7830
 5260TIP3    H137271   3.546   6.830   3.766  0.4965 -0.0467 -0.4180
 5260TIP3    H237272   3.691   6.788   3.777  0.3188 -0.4622  0.4537
 5261TIP3   OH237273   4.738   1.588  14.768  0.8439  0.1031 -0.1483
 5261TIP3    H137274   4.761   1.581  14.861  0.2980  0.7394  0.0428
 5261TIP3    H237275   4.750   1.680  14.748 -3.2628  0.9632  0.4746
 5262TIP3   OH237276   4.347   2.066  12.027 -0.1174  0.5642  0.5185
 5262TIP3    H137277   4.409   2.090  12.095 -0.3059 -0.6786  1.1513
 5262TIP3    H237278   4.331   2.148  11.979  1.0924  1.1442  1.0690
 5263TIP3   OH237279   2.253   3.446   4.374  0.1339  0.3526 -0.1294
 5263TIP3    H137280   2.331   3.455   4.318  1.7277 -0.9474  1.7105
 5263TIP3    H237281   2.201   3.379   4.331 -1.9359  3.6514 -3.3096
 5264TIP3   OH237282   5.695   5.893   0.121 -0.4180  1.0371 -0.1346
 5264TIP3    H137283   5.652   5.922   0.041 -1.3431  1.8921  0.6519
 5264TIP3    H237284   5.738   5.971   0.156  0.4221  0.5590 -0.0446
 5265TIP3   OH237285   4.599   3.945   3.534 -0.5504 -0.0721  0.0656
 5265TIP3    H137286   4.505   3.926   3.532 -0.4655 -0.4637 -0.6352
 5265TIP3    H237287   4.628   3.914   3.620 -0.6843 -1.9031 -0.5055
 5266TIP3   OH237288   5.922   1.067  12.965 -0.1866  0.2502  0.3253
 5266TIP3    H137289   5.991   1.079  13.029 -1.1557  0.3755  1.3706
 5266TIP3    H237290   5.867   1.145  12.973 -0.1109  0.4739 -0.9599
 5267TIP3   OH237291   6.727   2.985  14.363 -0.0331 -0.0457  0.1947
 5267TIP3    H137292   6.771   2.970  14.446  0.2080  2.2403  0.5445
 5267TIP3    H237293   6.776   2.934  14.300  1.6355  0.5297  0.9752
 5268TIP3   OH237294   3.104   2.350   6.273  0.2589 -0.2301 -0.2042
 5268TIP3    H137295   3.155   2.287   6.223  2.7210 -0.4303  2.3196
 5268TIP3    H237296   3.116   2.433   6.226 -1.4810 -1.1656 -2.4998
 5269TIP3   OH237297   1.633   5.308   4.133  0.2169 -0.0489  0.6179
 5269TIP3    H137298   1.587   5.282   4.053  2.5155 -2.5119 -0.0500
 5269TIP3    H237299   1.673   5.392   4.111 -0.7298  0.2227 -0.1394
 5270TIP3   OH237300   6.795   6.815  16.946 -0.0919  0.5246  0.1677
 5270TIP3    H137301   6.766   6.784  17.032  0.7241 -0.9229 -0.0424
 5270TIP3    H237302   6.783   6.910  16.949  0.5611  0.5891  2.1331
 5271TIP3   OH237303   0.496   5.031   2.373 -0.2689  0.0587  0.5099
 5271TIP3    H137304   0.526   4.944   2.397  1.9589  0.6113 -0.0037
 5271TIP3    H237305   0.465   5.023   2.284  0.6896 -0.0954  0.1718
 5272TIP3   OH237306   0.514   2.330   2.655  0.7332 -0.7258 -0.8138
 5272TIP3    H137307   0.599   2.373   2.671 -0.7335  1.6189  1.5286
 5272TIP3    H237308   0.462   2.396   2.609 -0.3366 -1.4994 -0.7441
 5273TIP3   OH237309   6.423   1.901   1.826 -0.2847 -0.2434 -0.2009
 5273TIP3    H137310   6.383   1.823   1.788 -0.7183 -0.7692  1.2473
 5273TIP3    H237311   6.349   1.960   1.843 -0.0067  0.3162 -0.9046
 5274TIP3   OH237312   6.680   6.639  17.159 -0.0889 -0.1678 -0.3371
 5274TIP3    H137313   6.685   6.544  17.144  1.9196 -0.1366 -0.2062
 5274TIP3    H237314   6.635   6.648  17.243 -2.1939 -0.8580 -1.3261
 5275TIP3   OH237315   6.485   2.168  13.671 -0.6523 -0.0876 -0.6908
 5275TIP3    H137316   6.552   2.219  13.715 -1.8421 -0.5547  1.9079
 5275TIP3    H237317   6.462   2.218  13.593  0.9312  1.3069 -0.3025
 5276TIP3   OH237318   2.410   6.125  11.855  0.3976 -0.4750 -0.0762
 5276TIP3    H137319   2.325   6.133  11.897  0.6568 -1.8387  0.7632
 5276TIP3    H237320   2.453   6.209  11.873 -1.0898  0.6243 -1.3652
 5277TIP3   OH237321   5.904   0.931  11.746  0.6379  0.9321  0.0810
 5277TIP3    H137322   5.892   1.015  11.789  0.8713 -0.1151  2.3528
 5277TIP3    H237323   5.947   0.876  11.812  1.0699 -0.7811 -1.5371
 5278TIP3   OH237324   6.533   3.977   4.450 -0.0016 -0.8163 -0.4132
 5278TIP3    H137325   6.588   3.902   4.430  0.0939 -0.8597  0.0058
 5278TIP3    H237326   6.568   4.048   4.395  1.1487 -0.5577  0.6006
 5279TIP3   OH237327   2.855   0.802  15.542 -0.3623 -0.5915  0.1991
 5279TIP3    H137328   2.898   0.721  15.568 -1.5207 -0.7127  1.8707
 5279TIP3    H237329   2.763   0.790  15.567 -1.0830  0.2707 -1.8329
 5280TIP3   OH237330   2.112   3.288   3.645 -0.4625  0.1783  0.3623
 5280TIP3    H137331   2.076   3.214   3.596  0.4509 -0.6682  0.9420
 5280TIP3    H237332   2.201   3.299   3.611  0.6269 -1.1658  2.5559
 5281TIP3   OH237333   5.914   0.451  13.426 -0.1389  0.4960 -0.0921
 5281TIP3    H137334   5.856   0.398  13.480  0.0448 -0.1592 -0.5342
 5281TIP3    H237335   5.860   0.525  13.399 -0.7513 -0.0629 -0.4271
 5282TIP3   OH237336   2.167   5.899  16.055  0.2634 -0.2374 -0.8999
 5282TIP3    H137337   2.101   5.947  16.004 -1.3808 -1.3456  0.0990
 5282TIP3    H237338   2.151   5.807  16.034  0.6955 -0.5962  0.2803
 5283TIP3   OH237339   1.983   6.001  14.082 -0.3837 -0.1205  0.3632
 5283TIP3    H137340   2.078   5.988  14.085 -0.4198 -0.7085 -0.5962
 5283TIP3    H237341   1.946   5.917  14.110 -0.6186 -0.1420 -0.0097
 5284TIP3   OH237342   4.417   6.059  12.131 -0.2708  0.2910 -0.3074
 5284TIP3    H137343   4.411   6.130  12.195  1.5903  0.4525 -0.2789
 5284TIP3    H237344   4.464   6.097  12.057  0.6688 -0.8678 -0.3315
 5285TIP3   OH237345   4.551   6.040   2.032 -0.0554 -0.0549 -0.6214
 5285TIP3    H137346   4.642   6.064   2.048 -0.1975  0.5179 -0.6141
 5285TIP3    H237347   4.509   6.124   2.011 -0.6033 -0.2958 -0.4927
 5286TIP3   OH237348   5.204   5.100  16.170  0.2829 -0.4067 -0.1044
 5286TIP3    H137349   5.215   5.181  16.221 -0.7627 -0.8964  0.9395
 5286TIP3    H237350   5.254   5.034  16.219  0.9053 -0.4748 -0.8052
 5287TIP3   OH237351   2.700   0.266   6.050  0.5270  0.3107 -0.3222
 5287TIP3    H137352   2.615   0.261   6.007 -0.6116 -1.6933  1.8895
 5287TIP3    H237353   2.691   0.338   6.112  0.5150  0.2416 -0.2436
 5288TIP3   OH237354   6.288   4.694   2.796  1.0629 -0.0704  0.1124
 5288TIP3    H137355   6.370   4.645   2.797  0.1640 -1.7911 -2.5939
 5288TIP3    H237356   6.311   4.778   2.756  1.6671 -0.1959  0.1888
 5289TIP3   OH237357   2.972   0.097   2.285  0.8031 -0.1577 -0.3608
 5289TIP3    H137358   3.041   0.041   2.322 -0.5829 -0.9370  1.1631
 5289TIP3    H237359   2.927   0.133   2.361  0.0754  1.0573 -1.3322
 5290TIP3   OH237360   1.899   2.331  16.371 -0.1016 -0.6285 -0.1304
 5290TIP3    H137361   1.954   2.274  16.317 -0.9007 -0.1527 -1.4931
 5290TIP3    H237362   1.926   2.420  16.349 -0.5565 -0.4207  0.1271
 5291TIP3   OH237363   0.813   4.143  13.679  0.7256 -0.1785  0.2400
 5291TIP3    H137364   0.734   4.115  13.723  0.7946 -1.6493 -0.5091
 5291TIP3    H237365   0.785   4.164  13.589  0.7172  2.0468  0.6966
 5292TIP3   OH237366   5.853   1.955  13.238 -0.3436 -0.0457  0.5160
 5292TIP3    H137367   5.868   1.991  13.151 -1.9281  1.4091  0.8001
 5292TIP3    H237368   5.928   1.985  13.290  0.8500 -1.3052 -0.4067
 5293TIP3   OH237369   0.493   1.640   4.187  0.0825  0.2546  0.4159
 5293TIP3    H137370   0.436   1.567   4.163  0.3063 -0.3815  1.7109
 5293TIP3    H237371   0.508   1.629   4.281 -0.1576  2.1801  0.7286
 5294TIP3   OH237372   2.368   2.530   3.247  0.5098  0.4672 -0.2061
 5294TIP3    H137373   2.459   2.541   3.272  0.5079 -1.4421  0.7176
 5294TIP3    H237374   2.363   2.570   3.160  2.2821  0.3408 -0.3982
 5295TIP3   OH237375   1.258   4.691  12.613  0.7787 -0.6237 -0.0410
 5295TIP3    H137376   1.184   4.667  12.669 -0.4035  1.4556 -0.6204
 5295TIP3    H237377   1.335   4.678  12.668 -0.2013 -0.4540  1.4126
 5296TIP3   OH237378   1.948   6.020  15.956 -0.1733 -0.0961  0.7779
 5296TIP3    H137379   1.858   6.016  15.990 -0.4391  2.0311  0.4769
 5296TIP3    H237380   1.945   6.089  15.890  1.7843  0.2879  1.0333
 5297TIP3   OH237381   4.126   0.078   3.882 -0.3181 -0.4674  0.2174
 5297TIP3    H137382   4.086  -0.008   3.895  1.8084 -1.3470  1.6146
 5297TIP3    H237383   4.182   0.068   3.806 -0.0247 -0.3468  0.4132
 5298TIP3   OH237384   5.635   5.335  12.509  0.0993  0.1433 -0.0794
 5298TIP3    H137385   5.694   5.306  12.579  0.3536 -1.4535 -0.9027
 5298TIP3    H237386   5.694   5.361  12.438 -0.1682  1.0876  0.0368
 5299TIP3   OH237387   6.264   5.591   2.618  0.2345 -0.0917 -0.0692
 5299TIP3    H137388   6.300   5.628   2.699  1.1602  1.1968 -1.0166
 5299TIP3    H237389   6.172   5.576   2.637 -0.3317  3.1855  0.2848
 5300TIP3   OH237390   5.014   3.214   6.617 -0.5617 -0.2372 -0.4634
 5300TIP3    H137391   5.105   3.205   6.589 -0.2209 -2.2085  1.0688
 5300TIP3    H237392   4.963   3.172   6.547 -0.2037 -0.2042 -0.7457
 5301TIP3   OH237393   2.166   5.180   5.994 -0.2092 -0.6729  0.3139
 5301TIP3    H137394   2.110   5.103   5.985 -1.5010  0.1816  0.8378
 5301TIP3    H237395   2.130   5.243   5.932  0.6136 -0.3509  0.1565
 5302TIP3   OH237396   5.650   5.140   2.152  0.6755 -0.2301 -0.2980
 5302TIP3    H137397   5.586   5.181   2.094  1.1093  0.4103 -0.3265
 5302TIP3    H237398   5.627   5.047   2.150  0.8991 -0.2789 -1.7573
 5303TIP3   OH237399   6.513   6.319  15.397  0.4558  0.2028 -0.3605
 5303TIP3    H137400   6.545   6.263  15.326  1.0425  0.5393 -0.3694
 5303TIP3    H237401   6.544   6.276  15.477 -0.6972 -0.4928 -0.2553
 5304TIP3   OH237402   6.827   4.153  14.670  0.3616  0.2318 -0.1942
 5304TIP3    H137403   6.869   4.135  14.586 -0.4220  2.1501 -1.0421
 5304TIP3    H237404   6.754   4.091  14.673  1.2274 -0.8269 -0.2364
 5305TIP3   OH237405   2.866   1.494   5.225 -0.0867 -0.2618 -0.0855
 5305TIP3    H137406   2.813   1.571   5.206  0.1995 -0.4337 -1.8027
 5305TIP3    H237407   2.802   1.423   5.232 -0.1681 -0.5018 -2.3302
 5306TIP3   OH237408   5.413   2.549  14.134  0.0240 -0.6869 -0.5122
 5306TIP3    H137409   5.450   2.520  14.050  1.3469 -1.1896  0.2133
 5306TIP3    H237410   5.441   2.482  14.197 -1.1913 -0.4675  0.2957
 5307TIP3   OH237411   2.454   5.076   1.069 -0.5466  0.0404 -0.0909
 5307TIP3    H137412   2.420   5.049   0.984  0.0162  1.3571 -0.7662
 5307TIP3    H237413   2.430   5.005   1.128 -1.5143 -0.6042 -1.2112
 5308TIP3   OH237414   1.547   1.133   3.154  0.0600  0.0914 -0.4709
 5308TIP3    H137415   1.508   1.093   3.232 -1.3790  0.5046 -0.9450
 5308TIP3    H237416   1.631   1.166   3.184  0.4039 -1.4795  0.4198
 5309TIP3   OH237417   3.181   2.647  11.436 -0.5157  0.0590 -0.4123
 5309TIP3    H137418   3.145   2.626  11.522 -0.0149 -1.0122 -0.4463
 5309TIP3    H237419   3.199   2.741  11.439 -1.8858  0.3238  0.1203
 5310TIP3   OH237420   6.183   3.881  13.246  0.3360 -0.9400 -0.0189
 5310TIP3    H137421   6.098   3.857  13.209  0.5752  0.5793 -1.6677
 5310TIP3    H237422   6.244   3.873  13.173  1.0093  1.1784  0.2560
 5311TIP3   OH237423   2.678   2.167  14.361 -0.1282  0.1101  0.4907
 5311TIP3    H137424   2.589   2.131  14.365  0.3887 -1.1863  0.7216
 5311TIP3    H237425   2.668   2.259  14.387 -1.2525 -0.2827  1.5142
 5312TIP3   OH237426   1.866   2.910  14.918  0.2205  0.7843 -0.7567
 5312TIP3    H137427   1.882   2.820  14.948 -0.4454  1.0561  0.4632
 5312TIP3    H237428   1.939   2.929  14.860  1.1541 -0.0346  0.1220
 5313TIP3   OH237429   4.564   1.509   6.030 -0.2010  0.1867 -0.3746
 5313TIP3    H137430   4.532   1.428   6.069 -0.8612 -0.0704 -1.4313
 5313TIP3    H237431   4.637   1.535   6.087 -3.2585  1.7577  3.2265
 5314TIP3   OH237432   2.246   0.015  12.871  0.0355 -0.3862 -0.2979
 5314TIP3    H137433   2.201  -0.018  12.793  0.8257  0.3718 -1.1135
 5314TIP3    H237434   2.237   0.110  12.865  1.2713 -0.2378 -0.2317
 5315TIP3   OH237435   5.532   5.799   5.604  0.1085 -0.0720  0.1592
 5315TIP3    H137436   5.597   5.730   5.592  0.3516  0.4198 -1.5563
 5315TIP3    H237437   5.575   5.862   5.661  0.3368 -0.7423  0.7473
 5316TIP3   OH237438   0.654   5.720   2.627 -0.3477 -0.3403  0.3377
 5316TIP3    H137439   0.633   5.802   2.584 -1.0702 -0.1443  1.0291
 5316TIP3    H237440   0.697   5.746   2.709  2.7197 -0.7255 -1.0236
 5317TIP3   OH237441   3.259   3.472  11.524 -0.3189 -0.3090 -0.4785
 5317TIP3    H137442   3.323   3.542  11.516  0.0952 -0.6182  0.0167
 5317TIP3    H237443   3.311   3.392  11.526 -0.7197 -0.5697 -0.1384
 5318TIP3   OH237444   3.795   0.735   4.736 -0.4830  0.0638 -0.4039
 5318TIP3    H137445   3.702   0.756   4.736 -0.6096 -0.4812  0.3978
 5318TIP3    H237446   3.831   0.788   4.665 -0.8450  2.7871  1.3016
 5319TIP3   OH237447   0.668   2.122   4.604 -0.0867  0.6705 -0.1954
 5319TIP3    H137448   0.738   2.180   4.574  2.1233 -1.1567  1.1133
 5319TIP3    H237449   0.673   2.125   4.699  0.3423 -1.8457 -0.0833
 5320TIP3   OH237450   3.873   3.449   4.430 -0.1651 -0.0276  0.0363
 5320TIP3    H137451   3.876   3.382   4.361  1.0698  0.1944 -0.1478
 5320TIP3    H237452   3.898   3.402   4.510  0.1971  0.0985 -0.0015
 5321TIP3   OH237453   5.413   4.369  12.795 -0.7959  0.1900 -0.1036
 5321TIP3    H137454   5.503   4.346  12.816 -0.8477  1.7824  2.3377
 5321TIP3    H237455   5.388   4.310  12.724  1.7793 -1.0414 -0.0814
 5322TIP3   OH237456   3.590   0.075  11.170  0.1592 -0.0831  0.2512
 5322TIP3    H137457   3.626   0.103  11.254 -0.2327 -0.5887  0.5970
 5322TIP3    H237458   3.513   0.023  11.194 -0.2522  0.1983 -0.4377
 5323TIP3   OH237459   5.927   4.438  15.363 -0.1021 -0.4205  0.3750
 5323TIP3    H137460   5.887   4.481  15.438  0.1686  0.1743  0.1793
 5323TIP3    H237461   5.953   4.352  15.396 -0.0393 -0.1884  0.9437
 5324TIP3   OH237462   6.236   3.015  12.433  0.1784  0.3330  0.6266
 5324TIP3    H137463   6.207   2.926  12.411 -0.4389  0.4377  1.0147
 5324TIP3    H237464   6.295   3.039  12.361 -0.1247 -0.1546  0.2089
 5325TIP3   OH237465   6.610   0.206  14.736  0.2196 -0.4473 -0.0659
 5325TIP3    H137466   6.685   0.206  14.796 -0.5694 -1.6334  0.9926
 5325TIP3    H237467   6.621   0.126  14.684 -0.7439 -1.1194  0.7221
 5326TIP3   OH237468   2.676   4.590   4.217 -0.0912  0.0016  0.5943
 5326TIP3    H137469   2.662   4.683   4.198  1.5955  0.2619  0.3997
 5326TIP3    H237470   2.589   4.555   4.235 -0.9417  1.2575 -0.8916
 5327TIP3   OH237471   2.235   3.306   2.049  0.6477  0.3957  0.0598
 5327TIP3    H137472   2.155   3.285   2.001 -0.3280  1.0446  1.3378
 5327TIP3    H237473   2.224   3.264   2.134  0.7427  2.1269  0.9740
 5328TIP3   OH237474   3.144   3.712  15.467  0.2786 -0.2151 -0.3972
 5328TIP3    H137475   3.086   3.710  15.543 -0.9678  0.6249 -1.2819
 5328TIP3    H237476   3.122   3.632  15.419 -0.7202  0.4778 -1.1203
 5329TIP3   OH237477   3.740   6.193   3.587  0.7369 -0.3643 -0.1288
 5329TIP3    H137478   3.812   6.146   3.629 -0.2754 -0.3494  1.7502
 5329TIP3    H237479   3.686   6.224   3.660 -0.1092  1.3557 -1.4099
 5330TIP3   OH237480   1.432   5.860  13.544  0.5058 -1.0913  0.2268
 5330TIP3    H137481   1.352   5.822  13.509  1.9454 -3.0045 -1.2417
 5330TIP3    H237482   1.477   5.896  13.467 -0.0206  2.2586  1.3467
 5331TIP3   OH237483   4.784   6.119  17.005  0.0795  0.0171 -0.5625
 5331TIP3    H137484   4.856   6.153  16.952  0.6326  0.7082  0.5858
 5331TIP3    H237485   4.707   6.128  16.949  0.5011  1.5700 -0.9423
 5332TIP3   OH237486   1.875   4.588  14.315  0.5518 -0.3389  0.0009
 5332TIP3    H137487   1.824   4.582  14.234 -0.2903  0.1857  0.4784
 5332TIP3    H237488   1.878   4.498  14.348  0.5913 -0.4982 -0.4318
 5333TIP3   OH237489   2.354   6.075   5.083  0.2776 -0.2482  0.3555
 5333TIP3    H137490   2.443   6.058   5.054  0.2992  0.2640  0.1210
 5333TIP3    H237491   2.318   6.135   5.018 -0.5832 -1.2471 -0.1243
 5334TIP3   OH237492   4.869   6.619   1.362  0.7352 -0.1072 -0.7047
 5334TIP3    H137493   4.774   6.610   1.375  1.1279 -2.1275  1.2687
 5334TIP3    H237494   4.891   6.551   1.299  1.2499 -1.7001  1.1196
 5335TIP3   OH237495   0.393   0.642   0.596 -0.0400 -0.2654  0.0579
 5335TIP3    H137496   0.404   0.558   0.640 -1.6986 -0.5872 -0.0886
 5335TIP3    H237497   0.471   0.692   0.620  0.2529 -1.3023  1.3677
 5336TIP3   OH237498   6.821   1.968  13.717  0.4675  0.0420  0.8072
 5336TIP3    H137499   6.774   1.992  13.638  1.5305 -0.0326  0.1315
 5336TIP3    H237500   6.768   1.900  13.758  0.1557 -0.2677 -0.0992
 5337TIP3   OH237501   5.729   5.121  16.472  0.1483 -0.5431  0.1475
 5337TIP3    H137502   5.738   5.169  16.389  0.8054 -0.0012  0.5245
 5337TIP3    H237503   5.740   5.029  16.448  0.7881 -0.3568 -0.3066
 5338TIP3   OH237504   5.338   2.203  11.215 -0.5297 -0.0851  0.2740
 5338TIP3    H137505   5.324   2.279  11.159 -0.8777  0.1869  0.7210
 5338TIP3    H237506   5.379   2.138  11.158  0.6096  0.7452  0.1134
 5339TIP3   OH237507   1.837   1.482  13.376 -0.2666  0.5234  0.0484
 5339TIP3    H137508   1.776   1.512  13.443  0.3928  0.6802  0.5882
 5339TIP3    H237509   1.845   1.388  13.392  0.9670  0.7897  1.0966
 5340TIP3   OH237510   4.152   0.341  13.674  0.1045 -0.2646 -0.2357
 5340TIP3    H137511   4.177   0.410  13.612 -0.6830 -0.7928 -1.1870
 5340TIP3    H237512   4.223   0.276  13.667  1.4769  0.9664  1.5767
 5341TIP3   OH237513   0.435   1.677  14.843 -0.6331  0.5665  0.0987
 5341TIP3    H137514   0.463   1.616  14.775 -0.9496 -0.3062  0.7354
 5341TIP3    H237515   0.502   1.670  14.911 -1.7924 -0.7681  1.1692
 5342TIP3   OH237516   1.885   5.857   2.500  0.0613 -0.1309 -0.7160
 5342TIP3    H137517   1.961   5.807   2.531  1.2758  1.6283 -0.7060
 5342TIP3    H237518   1.832   5.870   2.579  0.3193 -0.4238 -0.4888
 5343TIP3   OH237519   6.273   4.163  11.656 -0.3947 -0.2204  0.8988
 5343TIP3    H137520   6.220   4.165  11.735 -0.9535  1.4012  0.5151
 5343TIP3    H237521   6.231   4.097  11.601 -1.0984 -0.0485  1.2192
 5344TIP3   OH237522   1.688   5.644   0.277  0.2040  0.0166  0.7980
 5344TIP3    H137523   1.684   5.549   0.266 -0.6631  0.0201  1.0401
 5344TIP3    H237524   1.753   5.673   0.213 -0.7049 -0.5638 -0.4205
 5345TIP3   OH237525   2.398   1.702  13.840 -0.8894  0.1259  0.6549
 5345TIP3    H137526   2.449   1.783  13.839 -1.2701  0.3664 -0.3573
 5345TIP3    H237527   2.338   1.713  13.914  0.3802 -0.0904  1.7460
 5346TIP3   OH237528   5.089   6.284   6.273  0.0962 -1.1049  0.3580
 5346TIP3    H137529   5.162   6.309   6.328 -1.5890  0.1481  2.1322
 5346TIP3    H237530   5.098   6.189   6.263  1.7407 -1.0204  0.7809
 5347TIP3   OH237531   6.607   1.590   1.529 -0.2573 -0.3881 -0.1520
 5347TIP3    H137532   6.614   1.636   1.613 -0.1578  2.6893 -1.7058
 5347TIP3    H237533   6.679   1.527   1.531  0.4065  0.3449  1.6668
 5348TIP3   OH237534   3.337   1.582   0.959 -0.2382  0.1518 -0.2376
 5348TIP3    H137535   3.385   1.663   0.977  1.0786  0.1293 -3.0323
 5348TIP3    H237536   3.374   1.518   1.019  0.1945  1.1453  0.5750
 5349TIP3   OH237537   0.601   0.482  15.907 -0.0702 -0.0394 -0.6977
 5349TIP3    H137538   0.539   0.508  15.975  0.6805  1.1793 -0.4347
 5349TIP3    H237539   0.588   0.546  15.837  0.6733  0.0706 -0.7465
 5350TIP3   OH237540   4.248   4.845  16.924 -0.0761  0.0670  0.3945
 5350TIP3    H137541   4.227   4.862  17.016  1.2401  0.2447  0.6841
 5350TIP3    H237542   4.314   4.775  16.928  0.4921  0.5441 -0.3693
 5351TIP3   OH237543   5.716   4.534   2.277  0.1266  0.1176  0.4632
 5351TIP3    H137544   5.668   4.476   2.218 -0.9648  1.1250  0.3237
 5351TIP3    H237545   5.765   4.474   2.334 -0.5262 -0.9253 -0.0336
 5352TIP3   OH237546   6.191   4.210  13.622  0.7409  0.4839  0.3523
 5352TIP3    H137547   6.127   4.149  13.588  0.5459 -1.3486  3.5865
 5352TIP3    H237548   6.139   4.275  13.670  1.1762 -0.0639  1.6022
 5353TIP3   OH237549   6.118   0.537  12.016  0.1237 -0.1494 -0.3507
 5353TIP3    H137550   6.207   0.544  12.052 -0.9773  0.7524  2.4619
 5353TIP3    H237551   6.097   0.444  12.022  1.0787 -0.4913 -1.7260
 5354TIP3   OH237552   4.793   5.587   2.269  0.5871 -0.4661 -0.2340
 5354TIP3    H137553   4.740   5.659   2.236 -1.6225 -1.4592  0.9287
 5354TIP3    H237554   4.820   5.616   2.357 -0.4915 -1.1133  0.3234
 5355TIP3   OH237555   4.651   0.595   0.709 -0.6368  0.4106 -0.4552
 5355TIP3    H137556   4.686   0.684   0.720 -0.3652  0.2769 -0.2194
 5355TIP3    H237557   4.617   0.572   0.795 -1.4250  0.5830 -0.7116
 5356TIP3   OH237558   6.652   5.850  16.580  0.3042 -0.6376 -0.4351
 5356TIP3    H137559   6.583   5.847  16.646  1.0193 -2.1797  0.3092
 5356TIP3    H237560   6.718   5.909  16.616  0.8422 -1.7269  0.4325
 5357TIP3   OH237561   0.812   1.835   5.436 -0.0128  0.4787  0.2696
 5357TIP3    H137562   0.896   1.874   5.459 -0.6341  0.7435  2.3009
 5357TIP3    H237563   0.750   1.909   5.438 -0.7938 -0.1726  1.8473
 5358TIP3   OH237564   3.005   0.314   3.384  0.0655  0.4214 -0.0371
 5358TIP3    H137565   3.042   0.242   3.333  1.3762  1.4227 -0.5724
 5358TIP3    H237566   2.925   0.338   3.337  1.3598  1.4732 -1.8520
 5359TIP3   OH237567   3.979   4.240   2.778 -0.1266  0.1061  0.1894
 5359TIP3    H137568   4.008   4.189   2.703 -0.1919 -1.2024  1.0352
 5359TIP3    H237569   4.033   4.210   2.851 -1.2895  0.0464  1.0529
 5360TIP3   OH237570   6.066   0.790  11.906 -0.0911 -0.4047 -0.0994
 5360TIP3    H137571   6.114   0.845  11.968  0.0076 -0.5143 -0.0781
 5360TIP3    H237572   6.070   0.702  11.944  0.0926 -0.4984 -0.3332
 5361TIP3   OH237573   0.497   4.434  15.987  0.0561 -0.2094  0.4846
 5361TIP3    H137574   0.489   4.340  15.966  1.2951  0.2471 -2.6402
 5361TIP3    H237575   0.576   4.440  16.039  0.9836 -0.7943 -0.7889
 5362TIP3   OH237576   4.091   0.922   2.772  0.2428 -0.0913  0.4030
 5362TIP3    H137577   4.026   0.859   2.805 -1.2703  0.0881 -2.0195
 5362TIP3    H237578   4.049   1.007   2.779 -0.0930 -0.0257 -1.7166
 5363TIP3   OH237579   5.043   3.652   6.605  0.0540  0.2063  0.4380
 5363TIP3    H137580   5.108   3.688   6.665  1.4162 -0.2253 -0.7136
 5363TIP3    H237581   4.970   3.625   6.661  1.0492  0.2962  1.8212
 5364TIP3   OH237582   6.693   1.305  15.444  0.5885 -0.1528 -0.7122
 5364TIP3    H137583   6.751   1.357  15.499 -1.4645  0.5485  0.9010
 5364TIP3    H237584   6.676   1.226  15.494 -1.3816  0.5308 -0.2175
 5365TIP3   OH237585   3.254   3.262   3.191  0.5417  0.6695  0.0732
 5365TIP3    H137586   3.346   3.236   3.195  0.2406 -1.3913 -3.0542
 5365TIP3    H237587   3.250   3.327   3.121 -0.5231 -0.1403 -0.6462
 5366TIP3   OH237588   0.659   2.563   4.422 -0.2951 -0.6806  0.6147
 5366TIP3    H137589   0.727   2.495   4.426 -0.0053 -0.5517 -1.2629
 5366TIP3    H237590   0.708   2.645   4.427 -0.4592 -0.5938  0.7919
 5367TIP3   OH237591   1.122   1.053   0.268  0.4490  0.2258 -0.3312
 5367TIP3    H137592   1.029   1.075   0.262  0.5331  1.0701  0.9481
 5367TIP3    H237593   1.133   0.980   0.208 -0.4795  1.7889 -2.5607
 5368TIP3   OH237594   5.150   4.754   3.473  0.5534  0.3238  0.2023
 5368TIP3    H137595   5.108   4.683   3.424  1.2220  0.1729 -0.1533
 5368TIP3    H237596   5.085   4.825   3.471  0.2881  0.0789 -0.3048
 5369TIP3   OH237597   5.847   0.298   2.395  0.0030  0.0082 -0.4454
 5369TIP3    H137598   5.856   0.306   2.490  1.8575 -4.3234  0.0212
 5369TIP3    H237599   5.925   0.341   2.359  2.7026 -3.4197  0.6979
 5370TIP3   OH237600   2.116   2.416   5.860  0.1264  0.1317  0.3786
 5370TIP3    H137601   2.102   2.340   5.804 -1.5028  0.7095 -0.0384
 5370TIP3    H237602   2.118   2.491   5.800 -0.9057  0.6784  0.9899
 5371TIP3   OH237603   3.564   5.726  13.005 -0.4947 -0.2570  1.3886
 5371TIP3    H137604   3.563   5.690  12.917  0.1756 -1.3314  1.7917
 5371TIP3    H237605   3.476   5.710  13.040 -0.6888 -0.0339  1.0063
 5372TIP3   OH237606   4.979   2.857   5.150 -0.1390 -0.1608 -0.4815
 5372TIP3    H137607   4.932   2.803   5.086 -1.3371 -0.1081  0.3274
 5372TIP3    H237608   4.926   2.852   5.229  1.2235 -0.0819  0.4718
 5373TIP3   OH237609   6.197   5.388   1.710  0.4267  0.2262 -0.1623
 5373TIP3    H137610   6.264   5.436   1.760 -1.4139  1.7372  1.0123
 5373TIP3    H237611   6.245   5.317   1.667  2.7672  1.2522  0.5876
 5374TIP3   OH237612   5.124   3.615   5.133  0.5387  0.3891  0.0312
 5374TIP3    H137613   5.050   3.588   5.188  0.2815 -2.2100 -1.4480
 5374TIP3    H237614   5.084   3.666   5.062  0.6993  2.3304  1.2321
 5375TIP3   OH237615   0.047   3.392  13.516 -0.3436  0.0688 -0.1294
 5375TIP3    H137616   0.069   3.339  13.593  2.0195  0.3348 -0.5423
 5375TIP3    H237617  -0.015   3.458  13.549 -1.8220 -1.6888  0.8093
 5376TIP3   OH237618   2.570   3.414  12.003  0.0224 -0.0452 -0.4422
 5376TIP3    H137619   2.536   3.325  12.011  2.8011 -1.2883 -1.0159
 5376TIP3    H237620   2.521   3.452  11.931 -2.5152 -0.3844  0.9972
 5377TIP3   OH237621   3.538   4.874   1.090  0.3066 -0.5215  0.0102
 5377TIP3    H137622   3.584   4.836   1.164 -0.0074 -4.1712 -1.4655
 5377TIP3    H237623   3.599   4.866   1.017 -0.9910 -1.3181 -1.0390
 5378TIP3   OH237624   4.690   2.855   3.360 -0.2675 -0.3996  0.2012
 5378TIP3    H137625   4.695   2.879   3.268  1.5866 -0.1791  0.3331
 5378TIP3    H237626   4.745   2.919   3.405 -1.6862 -0.0751  1.5837
 5379TIP3   OH237627   3.486   4.091  17.148  0.1924 -0.2907 -0.3065
 5379TIP3    H137628   3.530   4.020  17.100  0.0022 -1.0783  0.6464
 5379TIP3    H237629   3.522   4.086  17.237 -0.8131 -0.0742  0.1351
 5380TIP3   OH237630   0.122   4.684   0.142  0.2330  0.4871 -0.1035
 5380TIP3    H137631   0.201   4.639   0.113  0.1517  0.1790  0.1450
 5380TIP3    H237632   0.066   4.688   0.065  0.0974 -0.1497 -0.0378
 5381TIP3   OH237633   1.953   4.326  14.407 -0.9961  0.0917 -0.0013
 5381TIP3    H137634   2.016   4.297  14.473  0.2949  0.1793 -1.1372
 5381TIP3    H237635   1.885   4.258  14.407  0.0126 -0.9507  0.0385
 5382TIP3   OH237636   3.573   5.390  12.129  0.6705  0.2832 -0.7011
 5382TIP3    H137637   3.638   5.419  12.193  0.4618 -2.3710  0.8299
 5382TIP3    H237638   3.556   5.299  12.151 -0.5683 -0.3079 -3.6349
 5383TIP3   OH237639   2.005   3.860  11.200  0.3957  0.1869 -0.4151
 5383TIP3    H137640   1.910   3.852  11.194  0.3591  0.0403  0.2913
 5383TIP3    H237641   2.037   3.770  11.190  0.4429  0.2015 -0.3965
 5384TIP3   OH237642   3.434   3.178   2.344  0.1937  0.0320 -0.5455
 5384TIP3    H137643   3.492   3.122   2.292 -1.4293 -1.5956 -0.6782
 5384TIP3    H237644   3.347   3.143   2.329 -0.6537  1.3743  0.9774
 5385TIP3   OH237645   6.377   4.869   0.640  0.0118 -0.0854  0.6457
 5385TIP3    H137646   6.454   4.812   0.641 -2.2628 -3.4604 -0.3452
 5385TIP3    H237647   6.351   4.876   0.732  1.0436  0.5000  0.9097
 5386TIP3   OH237648   5.260   2.951   5.954 -0.7712  0.7449  0.2202
 5386TIP3    H137649   5.244   2.909   6.038  0.7146 -0.8925 -0.2618
 5386TIP3    H237650   5.338   2.908   5.920 -1.5257  1.1086 -2.1693
 5387TIP3   OH237651   2.016   0.766   3.370 -0.1338 -0.2097  0.5089
 5387TIP3    H137652   2.040   0.704   3.300 -1.0209  0.9357 -0.8787
 5387TIP3    H237653   2.034   0.719   3.451  2.8290 -0.8816 -0.4265
 5388TIP3   OH237654   6.042   2.970  12.976  0.2571 -0.4350  0.6206
 5388TIP3    H137655   6.066   2.921  12.898 -0.0401 -0.7793  0.7444
 5388TIP3    H237656   6.118   2.961  13.034  0.4573 -0.2201  0.3950
 5389TIP3   OH237657   4.754   6.695   1.910  0.0975  0.3085  0.8457
 5389TIP3    H137658   4.768   6.785   1.940  1.5449  0.5972 -0.5462
 5389TIP3    H237659   4.842   6.657   1.906  0.0704  0.2637 -2.7716
 5390TIP3   OH237660   3.143   6.038   3.885  0.8984 -0.7950  0.8402
 5390TIP3    H137661   3.047   6.040   3.880  0.8042 -0.2366  2.2918
 5390TIP3    H237662   3.170   6.122   3.849  0.8921 -1.2244 -0.1865
 5391TIP3   OH237663   6.332   5.109   4.123 -0.4416  0.0932  0.4841
 5391TIP3    H137664   6.412   5.161   4.113 -1.5285  1.7104 -0.2672
 5391TIP3    H237665   6.262   5.174   4.124 -1.6907 -1.1896  2.2934
 5392TIP3   OH237666   4.098   1.724   0.082 -0.4325 -0.2390 -0.3328
 5392TIP3    H137667   4.117   1.803   0.133 -1.5629 -0.1904  0.0320
 5392TIP3    H237668   4.181   1.704   0.038 -0.2150  1.3489 -0.7185
 5393TIP3   OH237669   2.782   3.700  11.289  0.2517 -0.3080 -0.3874
 5393TIP3    H137670   2.807   3.608  11.288  1.6674  0.0470 -1.5797
 5393TIP3    H237671   2.827   3.737  11.365  0.8948 -0.3123 -0.7575
 5394TIP3   OH237672   2.096   2.333   1.914 -0.0776 -0.4816 -0.0391
 5394TIP3    H137673   2.023   2.277   1.889 -1.2653  1.4081 -1.0833
 5394TIP3    H237674   2.173   2.294   1.872 -1.0154 -0.8085 -1.5178
 5395TIP3   OH237675   4.475   3.577   2.163  0.5377 -0.0876  0.3640
 5395TIP3    H137676   4.434   3.635   2.227 -2.3141 -1.7989  0.2251
 5395TIP3    H237677   4.466   3.622   2.079  0.2642  0.2074  0.5505
 5396TIP3   OH237678   5.182   2.624   5.084 -0.6929  0.0757  0.4348
 5396TIP3    H137679   5.196   2.570   5.162 -1.0684 -1.0663 -0.2566
 5396TIP3    H237680   5.269   2.654   5.060 -0.4993 -0.0519  0.9552
 5397TIP3   OH237681   5.144   6.199   1.860  0.1593 -0.6388  0.2120
 5397TIP3    H137682   5.183   6.215   1.946  0.1922  0.5447 -0.0067
 5397TIP3    H237683   5.196   6.127   1.824  0.9678 -0.3027  0.6702
 5398TIP3   OH237684   5.295   0.837  15.709 -0.3895  0.1675  0.1428
 5398TIP3    H137685   5.203   0.848  15.733 -0.1075  0.2411  1.2768
 5398TIP3    H237686   5.343   0.856  15.790  0.6042 -0.2435 -0.3286
 5399TIP3   OH237687   1.290   4.675  15.447  0.4084 -0.2111 -0.4312
 5399TIP3    H137688   1.207   4.653  15.405 -0.6746  2.7257 -0.0895
 5399TIP3    H237689   1.306   4.603  15.508 -1.1523 -1.5113 -1.4544
 5400TIP3   OH237690   3.062   5.254   5.111 -0.3942  0.2930 -0.2879
 5400TIP3    H137691   3.088   5.180   5.056  1.3078  0.0300  0.8056
 5400TIP3    H237692   2.967   5.258   5.101 -0.3770 -1.1335 -1.4834
 5401TIP3   OH237693   3.622   3.526   3.820  0.0905  0.5997 -0.1962
 5401TIP3    H137694   3.547   3.467   3.831 -0.7012  1.5337 -0.3874
 5401TIP3    H237695   3.675   3.512   3.898  0.5197 -1.1633 -0.7441
 5402TIP3   OH237696   1.149   2.361  16.740  0.1391 -0.0955  0.1601
 5402TIP3    H137697   1.159   2.284  16.796 -1.5569  0.7616  1.7464
 5402TIP3    H237698   1.099   2.331  16.665  1.3560 -0.9765 -0.3404
 5403TIP3   OH237699   5.414   2.782  16.363 -1.0500  0.1705 -0.1300
 5403TIP3    H137700   5.433   2.854  16.423  0.7941  0.6205 -1.1711
 5403TIP3    H237701   5.338   2.738  16.401  0.1071  0.3416  2.5715
 5404TIP3   OH237702   2.810   0.182  15.510 -0.2509  0.6765 -0.1155
 5404TIP3    H137703   2.827   0.235  15.432 -0.3926  2.8277  1.2375
 5404TIP3    H237704   2.724   0.144  15.495  0.2470  0.0154 -1.5150
 5405TIP3   OH237705   2.369   3.733   0.843 -0.3486  0.5982 -0.0710
 5405TIP3    H137706   2.410   3.718   0.758 -1.6577  0.0733 -0.6301
 5405TIP3    H237707   2.391   3.656   0.895 -1.2380 -0.0552 -0.6309
 5406TIP3   OH237708   4.859   1.398  17.126 -0.4443  0.2965  0.1609
 5406TIP3    H137709   4.879   1.406  17.033  1.6535 -0.5693  0.4768
 5406TIP3    H237710   4.801   1.322  17.132  1.0153 -0.9045 -0.2939
 5407TIP3   OH237711   3.503   6.709   0.194 -0.3711  0.0381 -0.0602
 5407TIP3    H137712   3.533   6.764   0.266  0.5364 -0.5012 -0.0059
 5407TIP3    H237713   3.416   6.742   0.173 -0.5264  0.3924  1.0824
 5408TIP3   OH237714   0.637   1.023  11.388 -0.0032  0.1391 -0.4030
 5408TIP3    H137715   0.731   1.025  11.369 -0.2466  1.7238 -1.6710
 5408TIP3    H237716   0.605   0.945  11.344  0.5689  0.1165 -0.7877
 5409TIP3   OH237717   1.715   0.613  12.930  0.1144  0.0509  0.0357
 5409TIP3    H137718   1.685   0.542  12.986  0.8219 -0.4118 -0.1703
 5409TIP3    H237719   1.695   0.585  12.841  1.9745 -0.7013 -0.1912
 5410TIP3   OH237720   1.822   5.752  17.022  0.2260  0.1292 -0.0412
 5410TIP3    H137721   1.853   5.712  16.941 -1.3278  2.5049 -1.9694
 5410TIP3    H237722   1.805   5.679  17.081  0.6717 -1.7511 -2.1235
 5411TIP3   OH237723   6.493   0.345  13.985  0.1188  0.7306  0.4656
 5411TIP3    H137724   6.400   0.370  13.983 -0.2061 -0.4467 -0.2761
 5411TIP3    H237725   6.534   0.410  14.041 -1.1089  1.4472  0.5732
 5412TIP3   OH237726   3.399   0.096   6.147  0.5008 -0.0793  0.3891
 5412TIP3    H137727   3.357   0.176   6.177 -1.4793 -0.4856 -1.0127
 5412TIP3    H237728   3.413   0.044   6.226 -4.0888 -0.9545  0.8906
 5413TIP3   OH237729   2.121   4.362  11.948  0.2627 -0.1461 -0.2707
 5413TIP3    H137730   2.073   4.438  11.917  0.1002  0.1963  0.7970
 5413TIP3    H237731   2.073   4.287  11.911  0.4303  0.2468 -1.3262
 5414TIP3   OH237732   5.298   2.078  12.300 -0.0227 -0.0293 -0.0267
 5414TIP3    H137733   5.338   2.041  12.221  0.1095 -2.9114  1.2562
 5414TIP3    H237734   5.343   2.162  12.313  1.7388 -0.6668 -1.6140
 5415TIP3   OH237735   1.024   0.418  16.622  0.5927  0.0332  0.4646
 5415TIP3    H137736   1.117   0.402  16.633  0.5036 -0.2439  0.8484
 5415TIP3    H237737   0.992   0.438  16.710 -0.2779 -2.9234  0.9508
 5416TIP3   OH237738   2.118   4.654   0.556 -0.0469  0.2207 -0.1448
 5416TIP3    H137739   2.146   4.616   0.472  2.2545 -0.7715  0.9621
 5416TIP3    H237740   2.032   4.617   0.572  0.3753 -1.2715 -1.1029
 5417TIP3   OH237741   5.255   4.927   3.011 -0.5722  0.1494  0.6084
 5417TIP3    H137742   5.246   4.831   3.014 -1.2648  0.1692 -0.4766
 5417TIP3    H237743   5.231   4.951   2.922  1.1371  1.1978  0.3760
 5418TIP3   OH237744   0.645   6.750  16.434 -0.3197  0.3377  0.2539
 5418TIP3    H137745   0.577   6.802  16.391  0.3976  1.2152  0.1600
 5418TIP3    H237746   0.683   6.809  16.498 -0.4610 -0.5377  1.1699
 5419TIP3   OH237747   1.067   6.589   0.120 -0.4921 -0.1414  0.0506
 5419TIP3    H137748   1.010   6.547   0.185  0.0218 -0.1051  0.5342
 5419TIP3    H237749   1.034   6.558   0.036 -0.3019 -1.3175  0.3811
 5420TIP3   OH237750   5.866   1.745  11.397  0.3732  0.6830 -0.1198
 5420TIP3    H137751   5.785   1.698  11.378  1.1827 -0.8951  0.1526
 5420TIP3    H237752   5.879   1.801  11.321  0.3940 -1.0232 -1.4312
 5421TIP3   OH237753   4.273   0.171   5.134 -0.1311  0.2358  0.1228
 5421TIP3    H137754   4.218   0.226   5.078  1.2518  2.1474  0.5578
 5421TIP3    H237755   4.267   0.211   5.221  0.4299 -0.6811  0.6075
 5422TIP3   OH237756   3.921   0.762  12.134 -0.2972 -0.5273 -0.5417
 5422TIP3    H137757   3.991   0.793  12.190  1.4217 -1.3329 -2.1285
 5422TIP3    H237758   3.925   0.667  12.141  0.0010 -0.6559 -2.0047
 5423TIP3   OH237759   3.515   1.639   4.785  0.2330 -0.3665 -0.5283
 5423TIP3    H137760   3.510   1.562   4.842  1.6773 -1.5397 -1.8795
 5423TIP3    H237761   3.439   1.691   4.808 -0.9860 -2.3592  0.2251
 5424TIP3   OH237762   6.697   6.394   2.899 -0.4441  0.5035  0.0563
 5424TIP3    H137763   6.789   6.415   2.885 -0.1692 -1.0567 -0.6370
 5424TIP3    H237764   6.672   6.448   2.974  0.6040  2.0706 -0.6614
 5425TIP3   OH237765   4.058   0.680  13.938 -0.6898 -0.2221 -0.0511
 5425TIP3    H137766   3.989   0.692  14.003  0.9583  2.0613  1.4434
 5425TIP3    H237767   4.033   0.736  13.865 -0.3614  0.7803  0.5827
 5426TIP3   OH237768   2.513   0.540   1.659  0.6403  0.4754 -0.5269
 5426TIP3    H137769   2.521   0.614   1.599  0.1667 -0.3319 -1.6257
 5426TIP3    H237770   2.451   0.571   1.726  1.4552  1.5183 -0.2265
 5427TIP3   OH237771   2.000   3.102   2.121 -0.2416  0.3457  0.4237
 5427TIP3    H137772   1.964   3.017   2.096 -1.6645  0.8618  0.6636
 5427TIP3    H237773   1.997   3.154   2.041  0.6568  0.1854  0.2691
 5428TIP3   OH237774   4.986   5.957  15.388  0.9898 -0.2033  0.2222
 5428TIP3    H137775   4.960   6.045  15.360 -0.1718 -0.8356 -0.7691
 5428TIP3    H237776   5.078   5.966  15.411  1.0349  1.1640 -0.3697
 5429TIP3   OH237777   0.017   5.765   3.569  0.2838  0.1946 -0.1919
 5429TIP3    H137778   0.083   5.819   3.525  0.9754 -1.4594 -1.2988
 5429TIP3    H237779  -0.050   5.751   3.501 -0.5843  0.7618  0.5192
 5430TIP3   OH237780   3.493   0.023   4.134  0.0410  0.1981  0.1212
 5430TIP3    H137781   3.586   0.000   4.129 -0.1597 -0.4169 -0.9744
 5430TIP3    H237782   3.491   0.118   4.127  0.5824  0.2117  0.1162
 5431TIP3   OH237783   5.001   4.420   2.390  0.0686 -0.2369 -0.2074
 5431TIP3    H137784   5.053   4.489   2.431 -2.1484  1.6943 -0.4158
 5431TIP3    H237785   4.975   4.363   2.463  0.1750  0.3635  0.3062
 5432TIP3   OH237786   6.260   5.852  14.172  0.2057  0.2030 -0.4533
 5432TIP3    H137787   6.263   5.908  14.250 -0.6366  0.9425 -0.9303
 5432TIP3    H237788   6.351   5.842  14.145  0.4018  0.9611 -0.0870
 5433TIP3   OH237789   1.169   4.376   5.041  0.3301 -0.1306  0.3468
 5433TIP3    H137790   1.229   4.450   5.035  0.4671 -0.1365  1.4700
 5433TIP3    H237791   1.126   4.373   4.956  1.8810 -0.0925 -0.4670
 5434TIP3   OH237792   3.883   1.461  16.076 -0.4719 -0.1778 -0.4361
 5434TIP3    H137793   3.977   1.483  16.076 -0.3805 -0.5505 -0.8245
 5434TIP3    H237794   3.856   1.474  15.985 -0.7018 -0.4641 -0.4066
 5435TIP3   OH237795   2.741   6.347   3.530 -0.0676 -0.1157  0.0825
 5435TIP3    H137796   2.808   6.402   3.570 -1.7268  2.2012 -0.1630
 5435TIP3    H237797   2.787   6.303   3.458  1.3463  0.8378  0.3592
 5436TIP3   OH237798   1.338   0.550   6.663 -0.2086 -0.2072 -0.0405
 5436TIP3    H137799   1.387   0.630   6.645  0.0870 -0.4801 -0.4697
 5436TIP3    H237800   1.268   0.549   6.598  0.3169 -0.7348 -0.6168
 5437TIP3   OH237801   5.004   1.632  17.206 -0.1516 -0.0016 -0.3640
 5437TIP3    H137802   5.057   1.620  17.127 -1.0752 -2.0453 -0.7252
 5437TIP3    H237803   4.927   1.578  17.192 -0.2374 -0.5966  2.0323
 5438TIP3   OH237804   3.674   5.853   5.265 -0.0704  0.6267 -0.1697
 5438TIP3    H137805   3.581   5.845   5.248 -0.0216  1.2580 -0.7988
 5438TIP3    H237806   3.695   5.943   5.239  1.1205 -0.1309 -2.0432
 5439TIP3   OH237807   1.582   6.503   0.292  0.0333 -0.4306  0.0052
 5439TIP3    H137808   1.554   6.482   0.203 -1.7197  0.1516  0.3765
 5439TIP3    H237809   1.501   6.516   0.340  0.9391 -0.8114  1.7282
 5440TIP3   OH237810   6.011   5.342   1.933 -0.8769 -0.5176  0.4565
 5440TIP3    H137811   6.066   5.305   1.864 -0.3381 -1.1693  1.2173
 5440TIP3    H237812   5.993   5.268   1.992  0.1076  0.3613  1.9408
 5441TIP3   OH237813   1.166   2.299  12.243 -0.5995 -0.2952 -0.3479
 5441TIP3    H137814   1.259   2.319  12.251 -0.7225  0.3552 -0.5114
 5441TIP3    H237815   1.164   2.212  12.203 -0.0597 -0.3687 -0.2214
 5442TIP3   OH237816   2.834   3.738  12.754 -0.5224 -0.3584 -0.4667
 5442TIP3    H137817   2.814   3.646  12.769  1.7228 -0.7733  0.3726
 5442TIP3    H237818   2.926   3.747  12.779  0.4736  1.2997 -4.0544
 5443TIP3   OH237819   1.033   2.663   5.023  0.2040 -0.1250  0.1851
 5443TIP3    H137820   1.051   2.698   5.110  0.8258 -0.0209  0.0247
 5443TIP3    H237821   1.033   2.740   4.965  0.2175 -0.2391  0.0316
 5444TIP3   OH237822   4.308   5.459   2.324 -0.4920 -0.1997 -0.2973
 5444TIP3    H137823   4.302   5.505   2.240  0.9813  1.4201  0.4145
 5444TIP3    H237824   4.390   5.491   2.363  0.0015 -2.5656  0.8091
 5445TIP3   OH237825   0.654   2.727  15.362  0.1577 -0.4027  0.2273
 5445TIP3    H137826   0.597   2.651  15.353  0.3133 -0.5067  0.1195
 5445TIP3    H237827   0.672   2.754  15.272  1.3183 -1.1438  0.2238
 5446TIP3   OH237828   6.318   6.732   1.746 -0.6065 -0.4734  0.4646
 5446TIP3    H137829   6.254   6.786   1.698  0.2398  3.8295  3.5297
 5446TIP3    H237830   6.388   6.715   1.683 -1.6034  0.8519 -1.0804
 5447TIP3   OH237831   0.306   0.367   0.679 -0.4991  0.3998 -0.3713
 5447TIP3    H137832   0.252   0.402   0.750 -1.7831 -1.3222 -0.4316
 5447TIP3    H237833   0.266   0.401   0.599 -0.8259  0.0129 -0.3736
 5448TIP3   OH237834   5.712   0.016   2.994 -0.0019  0.3234 -0.3476
 5448TIP3    H137835   5.622   0.045   2.986  0.3770  1.9088  0.6199
 5448TIP3    H237836   5.707  -0.068   3.039 -1.0595 -0.3307 -1.6451
 5449TIP3   OH237837   1.890   3.965   3.643  0.7481 -0.2891 -0.0183
 5449TIP3    H137838   1.827   3.923   3.702 -0.3028  0.3130 -0.6840
 5449TIP3    H237839   1.875   4.059   3.655  2.0926 -0.0982  0.3980
 5450TIP3   OH237840   2.246   5.035  16.543  0.4916 -0.2722  0.2319
 5450TIP3    H137841   2.327   5.043  16.492  0.0509 -0.4494 -0.5139
 5450TIP3    H237842   2.183   5.091  16.496  0.2434  0.0569  0.9413
 5451TIP3   OH237843   6.377   6.477   2.909 -0.4639 -0.2276 -0.0087
 5451TIP3    H137844   6.301   6.513   2.955  0.3736 -1.7138  2.7521
 5451TIP3    H237845   6.427   6.554   2.881 -1.4014  0.7552  0.9193
 5452TIP3   OH237846   4.318   0.521   4.178  0.2604 -0.0791 -0.4306
 5452TIP3    H137847   4.411   0.510   4.158  0.4357 -0.8416  0.7204
 5452TIP3    H237848   4.273   0.490   4.100  0.9646  0.7497 -1.1941
 5453TIP3   OH237849   5.832   0.388  15.911 -0.3729 -0.2206 -0.0658
 5453TIP3    H137850   5.898   0.457  15.914  0.1430 -0.6944 -0.3779
 5453TIP3    H237851   5.842   0.349  15.824 -0.1456 -1.1860  0.3789
 5454TIP3   OH237852   2.939   5.802   3.182  0.2372  0.1367  0.3090
 5454TIP3    H137853   3.028   5.768   3.180  0.0550 -0.5259  1.9046
 5454TIP3    H237854   2.888   5.733   3.225 -0.8508  0.9069  0.2996
 5455TIP3   OH237855   2.742   5.907  12.640  0.1915  0.1547  0.0558
 5455TIP3    H137856   2.786   5.892  12.556 -0.9993 -1.5322 -0.3242
 5455TIP3    H237857   2.702   5.993  12.632  2.4998  1.3157  0.0446
 5456TIP3   OH237858   3.004   6.271  14.185 -0.0032 -0.0579  0.2730
 5456TIP3    H137859   3.072   6.231  14.240 -1.0022 -0.9414  0.9177
 5456TIP3    H237860   2.973   6.199  14.129  0.4998  0.6616 -0.9687
 5457TIP3   OH237861   5.203   4.384   1.374  0.3752  0.0635 -0.2531
 5457TIP3    H137862   5.276   4.356   1.319 -0.4368 -1.9593 -0.3902
 5457TIP3    H237863   5.194   4.316   1.440 -2.3412 -0.6205 -1.1780
 5458TIP3   OH237864   4.939   1.546   1.087 -0.2992 -0.8856 -0.2398
 5458TIP3    H137865   4.980   1.553   1.173 -1.3605  1.7219  0.1320
 5458TIP3    H237866   4.978   1.617   1.036 -2.3586 -0.0056 -0.6896
 5459TIP3   OH237867   5.948   3.932   6.643  0.1951  0.0045 -0.3559
 5459TIP3    H137868   5.984   3.926   6.554  2.2189  1.0294  0.3503
 5459TIP3    H237869   5.914   4.021   6.649 -0.9428 -0.4069 -0.4286
 5460TIP3   OH237870   4.767   2.424   2.552 -0.3681 -0.0012 -0.1891
 5460TIP3    H137871   4.712   2.487   2.599  0.6468  0.0271  1.0403
 5460TIP3    H237872   4.714   2.345   2.548 -0.5794  0.0603  0.8665
 5461TIP3   OH237873   4.342   2.211   0.545  0.2984 -0.2058 -0.1464
 5461TIP3    H137874   4.389   2.237   0.466  0.3050  0.6552  0.1324
 5461TIP3    H237875   4.253   2.193   0.515  0.4557 -0.5126 -0.4451
 5462TIP3   OH237876   5.221   1.263   5.581 -0.0010 -0.0705 -0.9190
 5462TIP3    H137877   5.153   1.202   5.612  0.1072  0.0128 -0.5097
 5462TIP3    H237878   5.296   1.245   5.637  0.9935 -1.5321 -2.6383
 5463TIP3   OH237879   2.840   3.982   5.318 -0.1420  0.5708 -0.5245
 5463TIP3    H137880   2.752   4.002   5.285 -1.3263 -1.1270  1.3453
 5463TIP3    H237881   2.825   3.949   5.406  2.3201 -0.5510 -0.4469
 5464TIP3   OH237882   5.645   2.066   0.526 -0.0092 -0.0392 -0.2596
 5464TIP3    H137883   5.583   2.135   0.549  0.8137  0.6356 -0.0183
 5464TIP3    H237884   5.675   2.031   0.609  1.2265  0.8290 -0.3091
 5465TIP3   OH237885   6.172   0.096  15.151 -0.5433  0.1695 -0.5475
 5465TIP3    H137886   6.079   0.095  15.174 -0.3560 -0.7717  0.2597
 5465TIP3    H237887   6.173   0.101  15.056 -1.4126  0.3926 -0.5596
 5466TIP3   OH237888   3.683   5.529   5.116  0.0884 -0.1383  0.2806
 5466TIP3    H137889   3.725   5.612   5.141  0.2854 -0.0755 -0.2296
 5466TIP3    H237890   3.606   5.556   5.064  1.1479 -0.2651 -1.4482
 5467TIP3   OH237891   1.795   0.746   1.761 -0.0782 -0.7556 -0.9165
 5467TIP3    H137892   1.760   0.657   1.751  0.5634 -0.8918 -2.1969
 5467TIP3    H237893   1.727   0.802   1.723 -1.4640 -0.4331  1.7835
 5468TIP3   OH237894   2.681   6.293  15.979 -0.4296  0.0663 -0.0539
 5468TIP3    H137895   2.754   6.231  15.974 -3.1065 -3.3237 -1.1819
 5468TIP3    H237896   2.680   6.321  16.071  1.4990 -0.8054  0.2893
 5469TIP3   OH237897   2.342   3.424  13.540 -0.3370 -0.0093 -0.1096
 5469TIP3    H137898   2.315   3.354  13.481 -1.1193  1.2961 -1.3567
 5469TIP3    H237899   2.270   3.433  13.603  0.4273 -1.2934  0.9964
 5470TIP3   OH237900   1.630   5.946  14.123  0.2996  0.1728  0.1893
 5470TIP3    H137901   1.642   5.993  14.205 -0.6143  0.8900 -0.0662
 5470TIP3    H237902   1.621   5.855  14.149  1.0644  0.2577  0.7891
 5471TIP3   OH237903   1.715   3.361  17.165  0.4194 -0.3103  0.0433
 5471TIP3    H137904   1.635   3.405  17.138 -0.2458 -0.2527  1.9467
 5471TIP3    H237905   1.784   3.401  17.112 -0.3717  1.9013  0.5829
 5472TIP3   OH237906   3.064   4.336   3.984  0.2700 -0.3325 -0.2400
 5472TIP3    H137907   3.144   4.353   4.033  0.0541  2.0002 -0.5619
 5472TIP3    H237908   3.087   4.354   3.893  0.1835 -2.8311 -0.8329
 5473TIP3   OH237909   5.996   5.459   3.539 -0.3620 -0.0488 -0.5866
 5473TIP3    H137910   5.999   5.451   3.443  0.7957  0.5683 -0.6191
 5473TIP3    H237911   5.937   5.533   3.554 -0.3732 -0.0061 -0.8277
 5474TIP3   OH237912   4.917   3.004  17.106 -0.1038 -0.2870  0.2448
 5474TIP3    H137913   4.911   2.922  17.154  0.3074  0.0740  0.9209
 5474TIP3    H237914   4.837   3.051  17.128 -1.1386 -1.1639 -1.4199
 5475TIP3   OH237915   3.819   1.884  16.846 -0.4668  0.5062  0.0824
 5475TIP3    H137916   3.801   1.896  16.939  1.0399 -1.1780  0.6454
 5475TIP3    H237917   3.909   1.915  16.834  0.3336 -1.6830 -0.1889
 5476TIP3   OH237918   1.166   0.092   3.385  0.4353  0.3021 -0.1620
 5476TIP3    H137919   1.191  -0.000   3.379 -0.4584 -0.3338  3.4292
 5476TIP3    H237920   1.219   0.127   3.456  0.4941  2.5211 -1.2148
 5477TIP3   OH237921   2.619   0.960  16.696 -0.3410  0.5223  0.0111
 5477TIP3    H137922   2.681   1.029  16.673 -0.0102  0.6590  1.2576
 5477TIP3    H237923   2.567   0.998  16.767 -0.8614 -0.1312 -0.0159
 5478TIP3   OH237924   6.504   5.048  12.159  0.0143  0.1545 -0.1188
 5478TIP3    H137925   6.471   5.097  12.083 -1.2019  0.7364  0.7415
 5478TIP3    H237926   6.564   5.109  12.202 -0.5089  0.4291  0.2385
 5479TIP3   OH237927   1.913   6.828   0.960  0.4526  0.3861 -0.2286
 5479TIP3    H137928   1.854   6.886   1.009  0.7452  0.1255  0.4498
 5479TIP3    H237929   1.979   6.801   1.024  1.5053  0.9263 -1.0598
 5480TIP3   OH237930   4.768   2.400   4.020 -0.6097 -0.1635  0.3802
 5480TIP3    H137931   4.836   2.466   4.037 -0.2390  0.1153 -1.9203
 5480TIP3    H237932   4.749   2.362   4.106  2.6829 -0.4820  1.0764
 5481TIP3   OH237933   2.592   5.376  12.696 -0.1120  0.2256 -0.5746
 5481TIP3    H137934   2.531   5.371  12.770 -0.6007 -2.9491 -1.0653
 5481TIP3    H237935   2.662   5.433  12.728 -0.8440 -0.1187  1.9244
 5482TIP3   OH237936   0.880   1.147  11.912 -0.0417  0.6697 -0.3201
 5482TIP3    H137937   0.884   1.187  11.825 -0.4296 -0.4525 -0.8891
 5482TIP3    H237938   0.793   1.107  11.916 -0.4248  1.5904  1.0079
 5483TIP3   OH237939   5.472   2.352  14.334 -0.0876 -0.1744  0.2556
 5483TIP3    H137940   5.508   2.271  14.300  0.2404  0.1108 -0.0867
 5483TIP3    H237941   5.418   2.325  14.409 -2.5173 -1.0623 -1.6821
 5484TIP3   OH237942   2.816   5.160   0.248  0.1237 -0.4787  0.5351
 5484TIP3    H137943   2.829   5.212   0.328 -0.0969 -0.0787  0.3155
 5484TIP3    H237944   2.721   5.153   0.239 -0.0083  2.0913 -1.3118
 5485TIP3   OH237945   2.802   3.332   1.050 -0.4265  0.1431 -0.2313
 5485TIP3    H137946   2.770   3.284   1.126  0.7741 -1.6869 -0.8246
 5485TIP3    H237947   2.841   3.411   1.087  2.9832 -2.1153  1.5273
 5486TIP3   OH237948   5.509   4.435   0.177 -0.0457 -0.2959 -0.3698
 5486TIP3    H137949   5.527   4.384   0.256  3.2876  1.2082  0.0171
 5486TIP3    H237950   5.578   4.409   0.115  1.2380  2.8432 -0.4743
 5487TIP3   OH237951   4.341   2.337  16.817  0.4989  0.6539  0.6935
 5487TIP3    H137952   4.395   2.397  16.868  0.5588 -0.1019  1.5414
 5487TIP3    H237953   4.335   2.258  16.871  0.0160  0.0771 -0.1806
 5488TIP3   OH237954   3.543   3.096   4.536 -0.3830  0.6144  0.6565
 5488TIP3    H137955   3.449   3.082   4.521 -0.1730  0.1697 -0.3201
 5488TIP3    H237956   3.548   3.182   4.577 -1.2733  0.3228  1.4122
 5489TIP3   OH237957   6.207   3.416  16.172 -0.0063  0.2875 -0.3578
 5489TIP3    H137958   6.165   3.331  16.184 -1.1910  0.7962 -0.6758
 5489TIP3    H237959   6.300   3.400  16.184 -0.1306 -1.2122 -1.2847
 5490TIP3   OH237960   2.084   3.319  16.859 -0.0999  0.0963  0.0392
 5490TIP3    H137961   2.132   3.349  16.782 -0.9278  0.7722 -0.2278
 5490TIP3    H237962   1.992   3.331  16.836 -0.3605  0.2806  1.1273
 5491TIP3   OH237963   4.429   5.828   2.694 -0.0229 -0.1501 -0.2714
 5491TIP3    H137964   4.344   5.870   2.701 -0.5361 -1.3488  1.2694
 5491TIP3    H237965   4.488   5.885   2.744 -0.3799 -0.3829  0.4378
 5492TIP3   OH237966   4.325   4.197  14.002 -0.3065 -0.1542 -0.1235
 5492TIP3    H137967   4.242   4.159  13.971 -1.4190 -0.3305  2.7650
 5492TIP3    H237968   4.389   4.127  13.989 -1.3284 -1.2748  0.6234
 5493TIP3   OH237969   0.592   5.764  14.548 -0.3373  0.9401 -0.3910
 5493TIP3    H137970   0.504   5.734  14.527 -0.6945  1.6609  0.0546
 5493TIP3    H237971   0.628   5.795  14.464 -0.4172  0.4359 -0.6140
 5494TIP3   OH237972   2.858   4.364   4.824 -0.5048 -0.7399 -0.1099
 5494TIP3    H137973   2.848   4.315   4.906 -0.2873 -0.7043 -0.0595
 5494TIP3    H237974   2.770   4.396   4.804 -0.5898 -0.8902  0.0218
 5495TIP3   OH237975   6.025   4.375  13.816  0.3399 -0.0214 -0.3288
 5495TIP3    H137976   6.028   4.314  13.890  1.4327 -2.2568 -2.0866
 5495TIP3    H237977   6.096   4.437  13.833  1.3102 -1.1901 -0.0409
 5496TIP3   OH237978   3.804   3.179  14.406  0.3949  0.0331 -0.1072
 5496TIP3    H137979   3.759   3.201  14.488  0.0398 -1.1694  0.0340
 5496TIP3    H237980   3.742   3.207  14.338  0.0775 -0.2395  0.0639
 5497TIP3   OH237981   2.941   3.541  12.331 -0.3760 -0.6406 -0.1312
 5497TIP3    H137982   2.976   3.530  12.242 -0.4709  1.2000 -0.4456
 5497TIP3    H237983   3.007   3.593  12.377 -0.2833 -1.6638  0.9286
 5498TIP3   OH237984   4.229   0.744  16.194 -0.5139  0.1302 -0.1046
 5498TIP3    H137985   4.228   0.661  16.147  2.1460 -0.4974  0.7812
 5498TIP3    H237986   4.195   0.724  16.281  0.6790 -0.2134  0.3030
 5499TIP3   OH237987   1.192   6.813  12.296 -0.6106  0.4663  0.0363
 5499TIP3    H137988   1.252   6.885  12.275  1.8009 -1.1526  0.9742
 5499TIP3    H237989   1.156   6.837  12.381  0.6154  0.3713  0.6142
 5500TIP3   OH237990   1.488   1.133  13.734 -0.8533  0.1759 -0.2359
 5500TIP3    H137991   1.416   1.193  13.720 -0.7976  0.4499  0.5972
 5500TIP3    H237992   1.554   1.158  13.670 -1.1305  0.5181 -0.3851
 5501TIP3   OH237993   2.977   2.971  11.053  0.2237  0.2509 -0.3760
 5501TIP3    H137994   2.982   3.050  10.999  0.7785 -0.8737 -2.0127
 5501TIP3    H237995   2.899   2.925  11.022 -0.4309  0.3798  0.9612
 5502TIP3   OH237996   1.438   0.586   6.341 -0.3020  0.2606 -0.0517
 5502TIP3    H137997   1.349   0.554   6.356 -0.6271  0.2324 -1.9007
 5502TIP3    H237998   1.429   0.681   6.336 -0.1316  0.2974  0.2624
 5503TIP3   OH237999   1.482   2.217  14.040 -0.1478  0.6772  0.1665
 5503TIP3    H138000   1.405   2.259  14.079 -0.1142  0.2007  0.7690
 5503TIP3    H238001   1.552   2.283  14.048 -0.5517  1.2044 -0.6143
 5504TIP3   OH238002   2.842   4.755  11.087  0.4107  0.6263  0.0598
 5504TIP3    H138003   2.893   4.814  11.142  1.0273  0.8053 -0.6867
 5504TIP3    H238004   2.839   4.798  11.002 -0.7910  0.5037  0.0216
 5505TIP3   OH238005   3.149   5.868  15.823  0.4302  0.2708  0.1663
 5505TIP3    H138006   3.186   5.831  15.904  0.0286  1.5200  0.9595
 5505TIP3    H238007   3.218   5.924  15.789  0.4673  0.0264 -0.1552
 5506TIP3   OH238008   1.866   0.727  10.888 -0.0518 -0.2747 -0.2967
 5506TIP3    H138009   1.846   0.704  10.797 -1.7602  0.1708 -0.0682
 5506TIP3    H238010   1.861   0.643  10.935  0.1686 -0.4016 -0.4956
 5507TIP3   OH238011   3.989   4.377   3.132  0.5975  0.2715 -0.2493
 5507TIP3    H138012   4.023   4.294   3.098 -1.0894 -0.5676  0.0189
 5507TIP3    H238013   4.014   4.442   3.065 -0.8084 -0.9915 -2.1153
 5508TIP3   OH238014   4.680   0.995  14.202 -0.7100 -0.1077 -0.2226
 5508TIP3    H138015   4.634   1.068  14.242 -0.9985  0.3811 -1.4086
 5508TIP3    H238016   4.614   0.925  14.194 -0.6735 -0.1750  0.0819
 5509TIP3   OH238017   1.542   6.669  17.164  0.0679 -0.4423 -0.2488
 5509TIP3    H138018   1.556   6.574  17.155 -1.7759 -0.5964 -2.4680
 5509TIP3    H238019   1.467   6.677  17.222 -0.1982 -0.3803 -0.5991
 5510TIP3   OH238020   4.653   0.280  17.108 -0.0608  0.8726  0.3823
 5510TIP3    H138021   4.561   0.270  17.084  0.3207 -3.0887 -0.0063
 5510TIP3    H238022   4.697   0.305  17.027 -0.4195 -0.0651 -0.1013
 5511TIP3   OH238023   2.199   3.743   4.469 -0.1086  0.5593  0.0878
 5511TIP3    H138024   2.249   3.817   4.505 -0.4504  0.9591 -0.2399
 5511TIP3    H238025   2.265   3.685   4.432  0.0720  1.6656 -1.4235
 5512TIP3   OH238026   5.070   6.510   2.789 -0.6507  0.5486 -0.0128
 5512TIP3    H138027   5.024   6.468   2.717  2.2014  0.1442 -1.7397
 5512TIP3    H238028   5.122   6.579   2.747 -0.4607  1.6786  1.9546
 5513TIP3   OH238029   2.731   5.435  14.493  0.0172  0.0889  0.1674
 5513TIP3    H138030   2.693   5.503  14.437  1.9328 -0.8176 -2.4399
 5513TIP3    H238031   2.723   5.470  14.582 -5.2810  0.6391 -0.2137
 5514TIP3   OH238032   2.201   2.386   3.582 -0.6323  0.2310  0.1295
 5514TIP3    H138033   2.281   2.407   3.629 -1.2045  3.2651 -0.0564
 5514TIP3    H238034   2.203   2.441   3.504 -3.3539  1.2693  0.6797
 5515TIP3   OH238035   5.356   2.858  14.757 -0.6068 -0.8327 -0.0677
 5515TIP3    H138036   5.269   2.864  14.795 -0.8172  0.2519 -0.6571
 5515TIP3    H238037   5.401   2.793  14.809 -1.7096 -1.2711  0.3690
 5516TIP3   OH238038   0.114   6.075   2.247  0.0448 -0.5052  0.3190
 5516TIP3    H138039   0.108   5.989   2.288 -2.1089 -1.4334 -1.6582
 5516TIP3    H238040   0.028   6.114   2.262  0.7862  1.0525  0.6404
 5517TIP3   OH238041   3.671   0.788  16.401 -0.1150  0.2233  0.0296
 5517TIP3    H138042   3.688   0.711  16.346  1.1224 -0.4200  1.2633
 5517TIP3    H238043   3.733   0.854  16.369  0.3955 -0.0511  0.4398
 5518TIP3   OH238044   2.115   0.359  11.279  0.3442  0.0820  0.1670
 5518TIP3    H138045   2.083   0.420  11.346  1.1974 -1.6777  2.2984
 5518TIP3    H238046   2.209   0.375  11.276  0.2346  0.5472 -1.0781
 5519TIP3   OH238047   1.829   6.585   1.309 -0.0528  0.3884 -0.1712
 5519TIP3    H138048   1.912   6.537   1.298 -0.6827 -0.4882 -1.3516
 5519TIP3    H238049   1.789   6.584   1.222 -1.0710  1.2565  0.2625
 5520TIP3   OH238050   1.548   4.500   4.877  0.5747  0.1860  0.5989
 5520TIP3    H138051   1.500   4.469   4.953 -0.0795 -3.2375 -1.0206
 5520TIP3    H238052   1.481   4.533   4.817  0.8210  0.5603  0.5271
 5521TIP3   OH238053   4.570   0.807   4.645 -0.2421 -0.0533  0.1674
 5521TIP3    H138054   4.487   0.760   4.661 -1.5465  1.5305 -1.5464
 5521TIP3    H238055   4.588   0.851   4.728 -1.4456  0.0487  0.4016
 5522TIP3   OH238056   3.102   2.369  14.645 -0.2078  0.0138 -0.7016
 5522TIP3    H138057   3.074   2.444  14.592 -0.3024 -0.0964 -0.8056
 5522TIP3    H238058   3.121   2.300  14.582 -1.6970 -0.5953 -0.5353
 5523TIP3   OH238059   6.112   3.037   3.901 -0.0012  0.5006 -0.2349
 5523TIP3    H138060   6.096   3.085   3.820 -0.4598  0.7616  0.0020
 5523TIP3    H238061   6.076   3.094   3.970  0.0391  0.1118  0.1115
 5524TIP3   OH238062   5.364   3.609  13.674 -0.4087  0.5578  0.7887
 5524TIP3    H138063   5.375   3.542  13.742 -1.2920  0.7251  1.1080
 5524TIP3    H238064   5.425   3.583  13.605 -0.9343 -0.7477  0.7809
 5525TIP3   OH238065   3.440   4.811  11.635  0.8226  0.7661 -0.6584
 5525TIP3    H138066   3.461   4.735  11.581 -2.2306 -1.1013  0.5171
 5525TIP3    H238067   3.438   4.777  11.724  2.0006  2.9157  0.2687
 5526TIP3   OH238068   3.080   3.293   4.157  0.2390  0.0799 -0.6867
 5526TIP3    H138069   2.993   3.332   4.152  0.0975  0.9125  3.8792
 5526TIP3    H238070   3.063   3.199   4.163 -0.4452  0.2509  0.4286
 5527TIP3   OH238071   3.150   6.325  14.753 -0.4729 -0.2962  0.1761
 5527TIP3    H138072   3.107   6.395  14.802  1.2864 -0.7951  2.6510
 5527TIP3    H238073   3.147   6.249  14.812  0.5798 -1.3262 -1.0402
 5528TIP3   OH238074   0.246   3.315  11.378 -0.5800 -0.1505 -0.1920
 5528TIP3    H138075   0.219   3.390  11.432  0.5381  0.3808 -0.3517
 5528TIP3    H238076   0.235   3.239  11.435 -2.0948  0.0693 -0.1501
 5529TIP3   OH238077   4.583   3.527   5.436 -0.4000 -0.0832 -0.0343
 5529TIP3    H138078   4.520   3.461   5.466  0.7287 -0.9583  0.4579
 5529TIP3    H238079   4.606   3.500   5.347  4.1209 -3.6906  1.8203
 5530TIP3   OH238080   0.051   6.832  14.448 -0.4167  0.3697 -0.4088
 5530TIP3    H138081   0.080   6.898  14.510  0.1877 -0.5008  0.2638
 5530TIP3    H238082   0.078   6.749  14.487  0.8032 -0.1643 -2.2301
 5531TIP3   OH238083   4.641   5.711   5.234 -0.1851  0.0520  0.3082
 5531TIP3    H138084   4.712   5.775   5.240 -1.0245  1.0735 -0.2606
 5531TIP3    H238085   4.660   5.647   5.301  0.1116  1.5028  1.6592
 5532TIP3   OH238086   3.812   3.644   0.031 -0.2242  0.0456 -0.5654
 5532TIP3    H138087   3.748   3.581   0.065 -0.2872  1.6539  2.5843
 5532TIP3    H238088   3.896   3.613   0.063 -0.3587  1.9564  1.9517
 5533TIP3   OH238089   6.301   0.642  16.265  0.0651 -0.2758 -0.1740
 5533TIP3    H138090   6.291   0.564  16.210  0.5993 -1.1053  0.8691
 5533TIP3    H238091   6.382   0.627  16.314 -0.0435  0.7488  0.3556
 5534TIP3   OH238092   6.394   6.069   1.959  0.0913 -0.0372  0.0308
 5534TIP3    H138093   6.415   6.158   1.928  0.8983  0.5277  2.0423
 5534TIP3    H238094   6.309   6.078   2.002  0.7589  0.0707  1.3631
 5535TIP3   OH238095   3.558   5.793  12.317  0.6217 -0.3329 -0.3595
 5535TIP3    H138096   3.496   5.726  12.287 -1.6490  2.4319 -2.4360
 5535TIP3    H238097   3.504   5.857  12.362  2.4285  0.9147  0.1234
 5536TIP3   OH238098   5.871   5.872  12.725  0.1172  0.0087 -0.5793
 5536TIP3    H138099   5.793   5.923  12.747  1.9464  2.8162 -0.0823
 5536TIP3    H238100   5.912   5.854  12.809 -0.0657 -1.6306 -0.8218
 5537TIP3   OH238101   3.939   1.362   1.668 -0.8279 -0.2443 -0.1414
 5537TIP3    H138102   3.891   1.285   1.697 -0.5181 -0.2431  0.3978
 5537TIP3    H238103   3.878   1.434   1.678 -1.4014 -0.5324 -1.4543
 5538TIP3   OH238104   0.011   4.265  11.361  0.6064  0.5044 -0.2554
 5538TIP3    H138105   0.098   4.301  11.350  0.6104  0.8278  0.6739
 5538TIP3    H238106  -0.013   4.288  11.451 -1.0166  1.6987 -0.9360
 5539TIP3   OH238107   2.156   2.139   3.437  0.1787  0.2337  0.2343
 5539TIP3    H138108   2.162   2.194   3.515 -1.1222 -0.0874  0.5824
 5539TIP3    H238109   2.175   2.199   3.364  1.9742  0.4066  0.7946
 5540TIP3   OH238110   1.584   6.579  10.859 -0.1507 -0.6434  0.2692
 5540TIP3    H138111   1.651   6.635  10.820 -1.8826  1.3797 -0.0094
 5540TIP3    H238112   1.549   6.630  10.932 -1.2662 -1.7175  0.5306
 5541TIP3   OH238113   5.968   3.524  11.345 -0.5288  0.1900  0.2078
 5541TIP3    H138114   5.971   3.570  11.261 -0.2309  0.1310  0.1864
 5541TIP3    H238115   5.903   3.455  11.332 -1.3693  0.9276  0.4040
 5542TIP3   OH238116   4.203   1.617   5.712 -0.5052  0.3431 -0.0344
 5542TIP3    H138117   4.290   1.656   5.709 -0.2201 -0.3147 -1.2086
 5542TIP3    H238118   4.199   1.572   5.796  0.7808 -0.6472 -0.4642
 5543TIP3   OH238119   5.486   2.351   1.259 -0.4574  0.3232  0.3917
 5543TIP3    H138120   5.532   2.403   1.325  1.4446  0.8037 -1.1909
 5543TIP3    H238121   5.545   2.277   1.242 -0.3314  0.8319 -1.5637
 5544TIP3   OH238122   1.328   6.370  11.325  0.5626 -0.2533  0.1699
 5544TIP3    H138123   1.325   6.462  11.351 -0.4980  0.0626 -0.9759
 5544TIP3    H238124   1.287   6.368  11.239 -2.2181 -2.1927  1.3799
 5545TIP3   OH238125   1.021   4.119   1.679 -0.0508 -0.3249  0.1459
 5545TIP3    H138126   1.081   4.150   1.747 -0.6666  0.5748  0.2912
 5545TIP3    H238127   0.950   4.183   1.678 -1.2458 -1.6041  0.2902
 5546TIP3   OH238128   2.383   0.226   5.422  0.1481  0.0044 -0.1883
 5546TIP3    H138129   2.361   0.319   5.425  1.5255  0.3299  0.2382
 5546TIP3    H238130   2.305   0.185   5.385 -1.0192  1.1495  0.8850
 5547TIP3   OH238131   5.436   4.314   2.266 -0.5090  0.6029  0.4042
 5547TIP3    H138132   5.477   4.244   2.214  0.6057  0.9483  0.7772
 5547TIP3    H238133   5.396   4.371   2.201  1.2495  1.2750 -0.1538
 5548TIP3   OH238134   4.505   0.143   1.936  0.5304 -0.3370 -0.0667
 5548TIP3    H138135   4.581   0.119   1.989  0.7010 -0.9789 -0.5790
 5548TIP3    H238136   4.434   0.091   1.972  0.6332 -0.7279 -0.4106
 5549TIP3   OH238137   6.392   5.684  15.505  0.6074 -0.1142  0.2326
 5549TIP3    H138138   6.308   5.678  15.460  0.3392  0.5672  0.6264
 5549TIP3    H238139   6.413   5.594  15.529 -1.3167 -0.0480  2.4913
 5550TIP3   OH238140   3.927   2.400  12.466 -0.3113  0.2934  0.3256
 5550TIP3    H138141   3.865   2.468  12.437 -0.8345 -0.7181 -1.0104
 5550TIP3    H238142   3.984   2.386  12.391  0.2703 -0.2162  0.8585
 5551TIP3   OH238143   1.782   3.930  13.747  0.1746  0.0308 -0.2792
 5551TIP3    H138144   1.796   3.939  13.653 -0.0764 -0.4853 -0.3708
 5551TIP3    H238145   1.854   3.980  13.787 -0.7794  1.8517 -0.7276
 5552TIP3   OH238146   5.171   6.446   0.238 -0.3439 -0.0411  0.4588
 5552TIP3    H138147   5.177   6.515   0.172  0.4087  0.7956  1.3699
 5552TIP3    H238148   5.165   6.365   0.187 -2.3223  0.7320 -0.6349
 5553TIP3   OH238149   4.047   5.789   2.293 -0.5714  0.6243  0.5913
 5553TIP3    H138150   3.986   5.741   2.349 -0.8578 -1.7446 -1.5774
 5553TIP3    H238151   4.114   5.821   2.353 -1.8294 -0.1766  2.5163
 5554TIP3   OH238152   4.909   3.161   5.388 -0.0406 -0.1457 -0.0152
 5554TIP3    H138153   4.862   3.168   5.305 -0.1080 -0.1987  0.0187
 5554TIP3    H238154   4.991   3.208   5.373  0.2163 -0.6807 -0.3030
 5555TIP3   OH238155   4.041   5.609  14.773  0.0274 -0.0340  0.3188
 5555TIP3    H138156   4.093   5.688  14.789  2.2542 -1.1132 -1.1218
 5555TIP3    H238157   4.089   5.540  14.819  1.0363 -1.3888 -2.5274
 5556TIP3   OH238158   3.273   4.865  14.041 -0.0484  0.2064  0.0101
 5556TIP3    H138159   3.356   4.820  14.058 -0.8337 -1.5534 -0.6473
 5556TIP3    H238160   3.289   4.913  13.960 -0.0994 -1.3039 -0.9172
 5557TIP3   OH238161   4.394   2.957  10.858  0.0265  0.4410  0.1288
 5557TIP3    H138162   4.473   2.971  10.911 -0.1260  0.7705  0.2744
 5557TIP3    H238163   4.404   3.017  10.784  0.1018  0.1899 -0.0662
 5558TIP3   OH238164   5.458   4.680   6.016  0.3007  0.3882 -0.0350
 5558TIP3    H138165   5.532   4.716   5.967  0.9681 -1.9111 -0.8244
 5558TIP3    H238166   5.497   4.640   6.093 -0.0335 -1.1910 -0.6525
 5559TIP3   OH238167   0.991   0.510   0.160  0.3997 -0.6074 -0.8979
 5559TIP3    H138168   0.908   0.504   0.206 -0.7173  0.3408 -2.6811
 5559TIP3    H238169   1.040   0.433   0.189 -1.2787 -1.4639 -0.1930
 5560TIP3   OH238170   4.753   2.499   6.171 -0.2123 -0.5587 -0.1874
 5560TIP3    H138171   4.709   2.440   6.110  0.1906 -1.4609  0.3767
 5560TIP3    H238172   4.844   2.471   6.171  0.4080  1.3129 -1.3681
 5561TIP3   OH238173   1.198   6.271   0.928 -0.1171 -0.2520 -0.5511
 5561TIP3    H138174   1.225   6.197   0.874  0.4890  0.1279 -0.7909
 5561TIP3    H238175   1.243   6.257   1.012 -0.9935 -0.7999 -0.1694
 5562TIP3   OH238176   3.166   6.782  14.563  0.4241  0.4200  0.2005
 5562TIP3    H138177   3.179   6.820  14.476  0.2579 -0.8845 -0.4198
 5562TIP3    H238178   3.102   6.712  14.549  1.0420 -0.3657  1.2126
 5563TIP3   OH238179   4.799   1.906  16.957 -0.2558  0.1536  0.5684
 5563TIP3    H138180   4.885   1.922  16.918 -0.0546 -0.5999  0.6819
 5563TIP3    H238181   4.737   1.943  16.894  0.1033 -0.3824 -0.1175
 5564TIP3   OH238182   6.101   5.290   6.942  0.1412 -0.1685 -0.2222
 5564TIP3    H138183   6.162   5.318   6.874 -0.5836  0.2868 -0.6994
 5564TIP3    H238184   6.083   5.370   6.992  1.5118 -0.6963  1.2259
 5565TIP3   OH238185   3.811   2.094   1.925  0.4357 -0.3022  0.5067
 5565TIP3    H138186   3.879   2.032   1.900 -1.3776 -1.8717 -0.7933
 5565TIP3    H238187   3.844   2.179   1.896  1.5930 -1.0998 -0.6008
 5566TIP3   OH238188   4.346   3.089   4.984 -0.4437 -0.8563 -0.1543
 5566TIP3    H138189   4.290   3.080   4.907 -0.7644 -0.4179  0.0228
 5566TIP3    H238190   4.339   3.005   5.029 -1.6726 -0.5173  0.3368
 5567TIP3   OH238191   5.848   6.479   0.442  0.1609  0.1394 -0.5737
 5567TIP3    H138192   5.927   6.511   0.400 -0.4930  1.4769 -0.8178
 5567TIP3    H238193   5.776   6.521   0.395 -0.6275  0.6450  0.9961
 5568TIP3   OH238194   1.527   4.515  12.247 -0.0163  0.1243  0.0238
 5568TIP3    H138195   1.461   4.558  12.192 -0.0527  0.4490  0.3229
 5568TIP3    H238196   1.482   4.495  12.328 -1.0848 -3.6871 -1.2859
 5569TIP3   OH238197   0.567   2.007   3.066 -0.1040 -0.9642 -0.2069
 5569TIP3    H138198   0.563   1.944   2.994  0.8165 -0.6503 -0.5439
 5569TIP3    H238199   0.610   2.084   3.029  2.1577 -1.4884  1.1390
 5570TIP3   OH238200   5.312   5.302   4.764 -0.1705 -0.4875 -0.3205
 5570TIP3    H138201   5.297   5.348   4.681  2.3329 -0.9636 -1.1311
 5570TIP3    H238202   5.278   5.362   4.831  2.9058  2.6832 -1.3040
 5571TIP3   OH238203   1.687   2.164   4.421  0.4429  0.0086 -0.0329
 5571TIP3    H138204   1.697   2.246   4.470  2.3064 -0.6972  0.8921
 5571TIP3    H238205   1.666   2.099   4.488 -0.1200 -0.4343 -0.6302
 5572TIP3   OH238206   6.198   3.457  15.012  0.1854 -0.2512  0.2019
 5572TIP3    H138207   6.134   3.510  15.059 -0.9437 -1.0350 -0.3913
 5572TIP3    H238208   6.271   3.517  14.995  0.6945  0.0451  2.9614
 5573TIP3   OH238209   5.399   2.081   4.330  0.9187 -0.1152  0.0396
 5573TIP3    H138210   5.415   1.995   4.368  0.7192 -0.6733 -1.1208
 5573TIP3    H238211   5.386   2.065   4.237  2.4999  1.3544 -0.4742
 5574TIP3   OH238212   5.992   2.402   2.854 -0.3871 -0.3623  0.1088
 5574TIP3    H138213   5.927   2.335   2.831 -0.0665 -1.1481  1.3671
 5574TIP3    H238214   6.072   2.352   2.870  0.0006  0.3806  0.5393
 5575TIP3   OH238215   0.742   4.389   3.274 -0.3176 -0.5377 -0.5267
 5575TIP3    H138216   0.731   4.483   3.277  1.4944 -0.2916 -0.0477
 5575TIP3    H238217   0.744   4.367   3.181  0.4890  0.1053 -0.6750
 5576TIP3   OH238218   4.391   1.860   5.437  0.5115  0.2414 -0.0671
 5576TIP3    H138219   4.318   1.919   5.452  0.2806  0.1777 -0.9038
 5576TIP3    H238220   4.355   1.772   5.449  0.1882  0.1631 -1.4530
 5577TIP3   OH238221   2.691   6.314   0.474  0.1501 -0.4047  0.1982
 5577TIP3    H138222   2.756   6.245   0.462 -0.0972 -0.5667 -0.2462
 5577TIP3    H238223   2.647   6.320   0.389  1.6444  1.8395 -0.5344
 5578TIP3   OH238224   0.285   1.950  10.352 -0.1596  0.2236  0.0683
 5578TIP3    H138225   0.380   1.952  10.346 -0.0613 -1.4764  0.4794
 5578TIP3    H238226   0.255   2.025  10.302  1.3975  0.7518 -0.0941
 5579TIP3   OH238227   6.109   2.997  15.485 -0.5277 -0.6589  0.0463
 5579TIP3    H138228   6.026   2.999  15.438 -0.2814 -0.2713 -0.3778
 5579TIP3    H238229   6.169   2.951  15.425 -0.2520 -0.2937  0.0376
 5580TIP3   OH238230   6.191   5.928   1.702  0.2449 -0.2543 -0.3031
 5580TIP3    H138231   6.130   5.861   1.732 -1.0214 -0.0469 -2.2837
 5580TIP3    H238232   6.171   6.004   1.758  0.9175 -1.1233  1.1854
 5581TIP3   OH238233   2.762   3.954   3.834  0.0133  0.6034 -0.4699
 5581TIP3    H138234   2.798   4.039   3.808 -0.3956  0.9965  0.2069
 5581TIP3    H238235   2.811   3.931   3.913 -1.3337  1.2651  0.6122
 5582TIP3   OH238236   2.397   0.040  12.078  0.5213  0.4051 -0.1460
 5582TIP3    H138237   2.460  -0.031  12.067  1.5606  1.1612  0.7394
 5582TIP3    H238238   2.389   0.078  11.990  1.1997  0.2201 -0.2939
 5583TIP3   OH238239   1.281   6.339  16.034  0.1216  0.1074  0.5920
 5583TIP3    H138240   1.366   6.357  16.073  1.5273 -2.0218 -1.2489
 5583TIP3    H238241   1.230   6.419  16.049  2.9119  2.0345  0.4917
 5584TIP3   OH238242   0.097   5.139   5.936 -0.4163 -0.5138  0.3671
 5584TIP3    H138243   0.102   5.200   6.010 -0.4638 -0.6505  0.4846
 5584TIP3    H238244   0.022   5.083   5.957 -2.1659  1.1587 -1.0825
 5585TIP3   OH238245   2.972   2.973  11.546 -0.0659 -0.3129 -0.4583
 5585TIP3    H138246   2.881   2.998  11.556  0.3586  0.6251  1.6838
 5585TIP3    H238247   3.019   3.055  11.531  0.5523 -0.6501 -0.4237
 5586TIP3   OH238248   3.127   1.938   0.064  0.2895  0.1713 -0.3889
 5586TIP3    H138249   3.107   1.931  -0.029 -1.2552 -0.6990 -0.0248
 5586TIP3    H238250   3.089   2.021   0.091 -0.8162 -0.3881 -0.1879
 5587TIP3   OH238251   4.041   2.955  15.837  0.9263 -0.1276 -0.6286
 5587TIP3    H138252   4.012   3.001  15.916  3.5528 -1.5933  1.3337
 5587TIP3    H238253   4.031   3.020  15.767 -1.1951  1.3423  0.9183
 5588TIP3   OH238254   5.692   0.110  16.174 -0.4082  0.3538 -0.0908
 5588TIP3    H138255   5.662   0.195  16.142 -0.5637  0.5162  0.4760
 5588TIP3    H238256   5.635   0.091  16.249 -1.4436 -1.0095 -1.1847
 5589TIP3   OH238257   1.293   2.774  12.454 -0.2377 -0.1095 -0.0497
 5589TIP3    H138258   1.272   2.726  12.373  1.0898 -0.5073 -0.1882
 5589TIP3    H238259   1.322   2.860  12.425 -0.5661  0.0364  0.0557
 5590TIP3   OH238260   3.187   0.598   5.111 -0.2062 -0.5633  0.5228
 5590TIP3    H138261   3.204   0.524   5.169  3.0026  1.0763  1.9520
 5590TIP3    H238262   3.265   0.653   5.118 -1.6162  2.0620 -1.8847
 5591TIP3   OH238263   3.002   4.348   4.362  0.1854 -0.0302  0.0924
 5591TIP3    H138264   2.954   4.286   4.306  2.6924 -0.6511 -1.5032
 5591TIP3    H238265   3.011   4.426   4.308 -0.5867  0.7760  1.0880
 5592TIP3   OH238266   4.576   6.694  12.419 -0.6329 -0.0904 -0.0440
 5592TIP3    H138267   4.549   6.785  12.433  0.3862  0.1611  0.3367
 5592TIP3    H238268   4.588   6.658  12.507  3.4362  0.7837 -0.0860
 5593TIP3   OH238269   2.473   3.926   4.455  0.0066  0.3206 -0.1899
 5593TIP3    H138270   2.440   3.927   4.365  1.0485 -2.7382 -0.7212
 5593TIP3    H238271   2.547   3.988   4.454 -1.2664  1.9192 -0.7950
 5594TIP3   OH238272   4.164   0.112  10.780  0.1755  0.2446  0.2734
 5594TIP3    H138273   4.097   0.049  10.751 -0.4273  0.0371  2.0112
 5594TIP3    H238274   4.142   0.192  10.733  0.4441 -0.5766 -1.3421
 5595TIP3   OH238275   4.078   3.163  16.840  0.1317 -0.2267 -0.6895
 5595TIP3    H138276   4.137   3.102  16.884 -0.7003 -1.7807 -1.6086
 5595TIP3    H238277   4.112   3.169  16.751 -1.6772 -2.1187 -1.5994
 5596TIP3   OH238278   0.496   4.784  16.125  0.2929 -0.3140  0.2350
 5596TIP3    H138279   0.481   4.871  16.163  0.4240 -0.3524  0.3776
 5596TIP3    H238280   0.568   4.748  16.177  1.7909  0.3993 -1.2500
 5597TIP3   OH238281   2.777   3.211   5.667  0.2574  0.2399  0.1564
 5597TIP3    H138282   2.848   3.268   5.695  0.6669  0.0443 -0.4609
 5597TIP3    H238283   2.699   3.266   5.669  0.5363  0.6330  0.1953
 5598TIP3   OH238284   1.783   0.461  13.605 -0.1136 -0.1462  0.1370
 5598TIP3    H138285   1.761   0.464  13.698 -0.4138  0.7057  0.0489
 5598TIP3    H238286   1.876   0.482  13.601 -0.1258 -0.0709  0.2424
 5599TIP3   OH238287   4.196   2.972  12.077 -0.4418 -0.3571  0.0435
 5599TIP3    H138288   4.267   3.033  12.095  0.3822 -0.8901 -1.2489
 5599TIP3    H238289   4.192   2.968  11.981 -2.5474  0.0350  0.0773
 5600TIP3   OH238290   3.203   0.937  13.929  0.5643 -0.2615 -0.4326
 5600TIP3    H138291   3.279   0.910  13.877  0.3903 -0.2322 -0.7048
 5600TIP3    H238292   3.178   0.858  13.977  2.0442  0.2388  1.3015
 5601TIP3   OH238293   1.711   1.989   6.253 -0.2643 -0.0128 -0.6060
 5601TIP3    H138294   1.642   2.055   6.263  0.5404  0.9164 -0.9715
 5601TIP3    H238295   1.732   1.964   6.343  0.7478  1.6975 -0.3092
 5602TIP3   OH238296   1.725   6.142  16.437  0.2990 -0.0473 -0.2377
 5602TIP3    H138297   1.806   6.165  16.483  0.8011  0.1627 -1.1874
 5602TIP3    H238298   1.754   6.089  16.362 -0.5470 -0.8904  0.0013
 5603TIP3   OH238299   4.851   1.314  11.784  0.0988 -0.5364  0.4492
 5603TIP3    H138300   4.935   1.293  11.742  0.8318  0.4214  1.3918
 5603TIP3    H238301   4.875   1.338  11.873 -1.2344 -0.6190  0.8426
 5604TIP3   OH238302   0.381   3.449   1.815  0.3873  0.1031 -0.7155
 5604TIP3    H138303   0.474   3.462   1.794  0.2067  1.6571 -0.6799
 5604TIP3    H238304   0.365   3.507   1.889 -1.2382  2.0387 -2.4570
 5605TIP3   OH238305   4.085   5.241  16.650  0.4258  1.1136 -0.5234
 5605TIP3    H138306   4.125   5.210  16.732  1.4302 -0.3372 -1.5037
 5605TIP3    H238307   4.138   5.316  16.624  1.9616 -0.1554 -1.2635
 5606TIP3   OH238308   5.673   4.888   4.755  0.3488 -0.2864 -0.7307
 5606TIP3    H138309   5.604   4.924   4.811 -0.2038  1.5776 -2.5002
 5606TIP3    H238310   5.627   4.830   4.695  0.4076  0.3204 -1.3795
 5607TIP3   OH238311   0.468   5.678   4.069 -0.7978  0.6318 -0.8130
 5607TIP3    H138312   0.462   5.604   4.008  1.1473 -1.3888  1.2632
 5607TIP3    H238313   0.502   5.750   4.016 -1.5889 -0.2834 -2.6424
 5608TIP3   OH238314   3.643   1.366   0.520  0.3358 -0.0215  0.3688
 5608TIP3    H138315   3.602   1.423   0.585 -1.5798  0.0366 -0.7921
 5608TIP3    H238316   3.666   1.425   0.447 -3.1420 -0.7154 -1.5516
 5609TIP3   OH238317   0.466   6.064   2.589  0.1325 -0.0780  0.0067
 5609TIP3    H138318   0.458   5.976   2.553  1.1494 -0.0582 -0.3079
 5609TIP3    H238319   0.385   6.109   2.564 -0.2326 -0.8116 -0.1378
 5610TIP3   OH238320   3.978   5.922  14.670  0.6973 -0.3979  0.0650
 5610TIP3    H138321   3.889   5.889  14.683  2.0367 -5.0428 -0.9045
 5610TIP3    H238322   4.019   5.916  14.756  0.5807  0.0768  0.1570
 5611TIP3   OH238323   1.187   2.715  13.813 -0.0197  0.2531  0.5843
 5611TIP3    H138324   1.117   2.778  13.792  1.0601  2.1707  2.3884
 5611TIP3    H238325   1.253   2.728  13.745  0.0796  0.8964  0.8019
 5612TIP3   OH238326   4.546   1.321   5.094 -0.4328  0.1043  0.0428
 5612TIP3    H138327   4.632   1.339   5.133  0.1643 -0.4389 -0.9834
 5612TIP3    H238328   4.540   1.225   5.094 -2.2709  0.1003  2.6628
 5613TIP3   OH238329   5.883   1.318   3.346  0.1747  0.0042  0.3986
 5613TIP3    H138330   5.967   1.339   3.388 -0.2820 -1.7973  2.4020
 5613TIP3    H238331   5.834   1.400   3.349  0.4316  0.1526  2.8835
 5614TIP3   OH238332   6.785   5.974  11.272  0.0349 -0.4028 -0.1620
 5614TIP3    H138333   6.758   5.979  11.181 -1.3881 -2.0894  0.1261
 5614TIP3    H238334   6.881   5.971  11.269  0.0429  0.5059 -1.5111
 5615TIP3   OH238335   1.392   5.379  15.607  0.3795 -0.1895 -0.4403
 5615TIP3    H138336   1.383   5.474  15.616  0.5314 -0.1898 -0.2899
 5615TIP3    H238337   1.302   5.346  15.604  0.2999  0.0862 -1.8564
 5616TIP3   OH238338   5.347   4.892   5.083  0.2428  0.3014 -0.0487
 5616TIP3    H138339   5.386   4.918   4.999  0.7909  0.0629  0.1273
 5616TIP3    H238340   5.413   4.835   5.123 -0.6151 -0.7662 -0.1002
 5617TIP3   OH238341   6.499   2.295   1.390  0.5887 -0.1689 -0.1092
 5617TIP3    H138342   6.415   2.253   1.412  0.9036  0.1503  1.9486
 5617TIP3    H238343   6.530   2.330   1.474  2.2192  0.7549 -1.0587
 5618TIP3   OH238344   0.075   1.236   1.317  0.3200  0.3038  0.2437
 5618TIP3    H138345   0.116   1.228   1.231 -0.3590  0.8185 -0.1395
 5618TIP3    H238346   0.043   1.148   1.337  1.5104 -0.0933  0.5166
 5619TIP3   OH238347   2.870   1.667  16.222 -0.3058  0.2000  0.5983
 5619TIP3    H138348   2.925   1.743  16.202  0.5994 -0.6916 -0.4115
 5619TIP3    H238349   2.797   1.674  16.161  0.6885 -0.6492 -0.7704
 5620TIP3   OH238350   6.029   3.579  15.184  0.1602  0.1952  0.0960
 5620TIP3    H138351   5.961   3.639  15.154  0.2850  0.3038  0.0297
 5620TIP3    H238352   6.013   3.570  15.278  0.4389  0.7125  0.1923
 5621TIP3   OH238353   2.439   4.725  13.946 -0.1610 -0.6216  0.2616
 5621TIP3    H138354   2.488   4.732  13.865  0.1711 -1.0827  0.4181
 5621TIP3    H238355   2.349   4.747  13.922 -0.0067 -0.4460 -0.1640
 5622TIP3   OH238356   6.651   2.841  16.936 -0.1153  0.3125  0.1147
 5622TIP3    H138357   6.630   2.914  16.877  0.4459  1.3673  1.1551
 5622TIP3    H238358   6.569   2.821  16.980  0.0058  1.2888  0.8241
 5623TIP3   OH238359   0.008   1.989   1.550 -0.2652 -0.2475 -0.5599
 5623TIP3    H138360   0.031   2.079   1.572  0.1840 -0.5684  0.3173
 5623TIP3    H238361  -0.047   1.997   1.472  1.1024  0.6710 -1.4771
 5624TIP3   OH238362   5.911   2.851   3.770 -0.4576 -0.1484  0.3166
 5624TIP3    H138363   5.913   2.895   3.684  0.4515 -0.8871 -0.0625
 5624TIP3    H238364   5.998   2.865   3.806 -0.7939  0.0426  1.0721
 5625TIP3   OH238365   1.341   0.539   0.928 -0.2063 -0.1718 -0.7154
 5625TIP3    H138366   1.325   0.448   0.902 -2.1003  0.0195 -0.3994
 5625TIP3    H238367   1.370   0.582   0.847  0.7238 -1.0512 -0.8644
 5626TIP3   OH238368   2.839   3.347  14.680 -0.3958 -0.6037  0.5129
 5626TIP3    H138369   2.796   3.322  14.762 -0.1402 -1.2223  0.4629
 5626TIP3    H238370   2.833   3.443  14.678  0.2369 -0.5207  1.6052
 5627TIP3   OH238371   4.172   2.053   2.242 -0.0160  0.0041 -0.6282
 5627TIP3    H138372   4.134   2.095   2.320 -1.9750 -0.7782 -1.1080
 5627TIP3    H238373   4.226   2.122   2.202 -0.3867  0.9700  0.4531
 5628TIP3   OH238374   6.471   2.224   2.149  0.6357  0.1040 -0.2857
 5628TIP3    H138375   6.465   2.293   2.084 -0.0449 -0.1385 -0.4871
 5628TIP3    H238376   6.380   2.202   2.171  0.8428 -0.4232  0.0918
 5629TIP3   OH238377   3.737   2.554   1.338 -0.4977 -0.4946 -0.3981
 5629TIP3    H138378   3.708   2.592   1.255  0.7084 -0.0490 -0.6332
 5629TIP3    H238379   3.689   2.471   1.344  0.4707 -1.2659 -2.2738
 5630TIP3   OH238380   0.999   5.101   4.295  0.2076 -0.1346  0.0973
 5630TIP3    H138381   1.077   5.047   4.282  0.4083  0.5008 -1.5472
 5630TIP3    H238382   1.026   5.168   4.358  0.5146 -0.8140  0.7056
 5631TIP3   OH238383   0.928   3.507   6.061  0.0757  0.2604 -0.0491
 5631TIP3    H138384   0.912   3.461   6.144  2.7925 -0.5777  0.1377
 5631TIP3    H238385   1.000   3.567   6.082  1.9654 -1.1520 -2.1257
 5632TIP3   OH238386   2.518   5.078   2.704 -0.0619 -0.4191 -0.2681
 5632TIP3    H138387   2.553   5.149   2.757  1.5149 -0.9883 -0.4896
 5632TIP3    H238388   2.451   5.119   2.650 -0.3786  0.5378  0.8091
 5633TIP3   OH238389   4.398   0.567   3.290  0.0797 -0.5248 -0.2011
 5633TIP3    H138390   4.328   0.592   3.230 -0.2003 -0.6971  0.0467
 5633TIP3    H238391   4.406   0.472   3.281  0.7718 -0.4233 -0.7472
 5634TIP3   OH238392   0.644   1.793   2.654 -0.6628 -0.6073 -0.1742
 5634TIP3    H138393   0.694   1.740   2.716  2.5146  0.9470 -1.1768
 5634TIP3    H238394   0.644   1.742   2.573  1.6870  0.4107 -0.9036
 5635TIP3   OH238395   1.092   0.075   0.670 -0.2922 -0.4296 -0.0288
 5635TIP3    H138396   1.015   0.099   0.618 -2.2536 -2.0122  1.9363
 5635TIP3    H238397   1.080  -0.017   0.690  1.3601 -0.3640  1.5846
 5636TIP3   OH238398   5.505   0.916   4.274  0.2617  0.4753  0.3993
 5636TIP3    H138399   5.462   0.879   4.197  0.2096 -0.3393  0.8178
 5636TIP3    H238400   5.484   0.856   4.345  0.1594  1.3197  1.0974
 5637TIP3   OH238401   6.416   5.029  11.002 -0.1929 -0.8866 -0.0068
 5637TIP3    H138402   6.501   4.995  11.029  0.2420 -1.1235 -1.6118
 5637TIP3    H238403   6.430   5.065  10.915 -0.8960  2.4164  1.0889
 5638TIP3   OH238404   1.926   1.897  14.195 -0.4885  0.4438 -0.3597
 5638TIP3    H138405   2.008   1.857  14.167 -0.4749  0.0347  0.2606
 5638TIP3    H238406   1.858   1.837  14.163 -0.6937  1.7368 -2.5824
 5639TIP3   OH238407   2.361   5.338   1.136  0.0443  0.3786  0.4800
 5639TIP3    H138408   2.432   5.402   1.145 -0.7889  1.3304  0.4509
 5639TIP3    H238409   2.405   5.253   1.136  1.4181  1.0224 -1.8341
 5640TIP3   OH238410   3.860   0.151  15.513  0.7145 -0.8442 -0.2534
 5640TIP3    H138411   3.903   0.066  15.518 -1.0468 -1.6958  1.6775
 5640TIP3    H238412   3.767   0.130  15.504  0.0674  0.8088  1.8945
 5641TIP3   OH238413   1.152   2.996  11.913  0.1895 -0.1950  0.9943
 5641TIP3    H138414   1.164   3.057  11.841  2.6327 -1.2986  0.3549
 5641TIP3    H238415   1.100   3.045  11.977 -0.0077  1.6556 -0.4786
 5642TIP3   OH238416   4.321   6.422  15.401  0.0673 -0.0216  0.6132
 5642TIP3    H138417   4.311   6.328  15.385  1.0143 -0.1618  0.7945
 5642TIP3    H238418   4.381   6.452  15.334  0.2038  0.3467  0.8963
 5643TIP3   OH238419   2.776   1.427   3.431  0.6195  0.2078  0.5059
 5643TIP3    H138420   2.740   1.453   3.346 -1.7023 -2.5142  0.5061
 5643TIP3    H238421   2.861   1.389   3.411  1.6428  2.6021 -0.0832
 5644TIP3   OH238422   4.429   2.876   3.091 -0.5298  0.2467  0.0565
 5644TIP3    H138423   4.469   2.962   3.082 -1.2626  0.5861  0.0228
 5644TIP3    H238424   4.363   2.887   3.159  1.4742 -1.0409  2.3957
 5645TIP3   OH238425   3.177   2.923  13.272 -0.2159 -0.7418  0.1253
 5645TIP3    H138426   3.237   2.874  13.328  0.8726  2.7476  2.3124
 5645TIP3    H238427   3.096   2.872  13.273  1.4635 -3.5855  0.3055
 5646TIP3   OH238428   5.265   4.792  15.776 -1.0217  0.0335 -0.1457
 5646TIP3    H138429   5.213   4.834  15.845 -0.3462 -1.4690  1.3188
 5646TIP3    H238430   5.199   4.751  15.719 -1.5129 -0.8320  1.0153
 5647TIP3   OH238431   1.594   2.172   5.089 -0.0996 -0.5907  0.0641
 5647TIP3    H138432   1.622   2.081   5.082 -1.4845 -1.0860  0.6851
 5647TIP3    H238433   1.574   2.198   4.999  1.0609 -0.6267 -0.2212
 5648TIP3   OH238434   6.240   2.575   4.692  0.1724  0.1577  0.3075
 5648TIP3    H138435   6.311   2.567   4.629 -0.9504  1.7719 -1.2619
 5648TIP3    H238436   6.252   2.661   4.731 -0.5472  0.1930  0.4707
 5649TIP3   OH238437   3.529   3.499   4.263  0.2449  0.4990  0.1587
 5649TIP3    H138438   3.441   3.482   4.229  0.1675  1.6506 -0.2252
 5649TIP3    H238439   3.587   3.460   4.198  0.0493 -2.2581  1.4659
 5650TIP3   OH238440   6.033   3.019  14.293 -0.0264 -0.4632 -0.2334
 5650TIP3    H138441   6.022   3.036  14.387  0.1109 -0.6213 -0.1887
 5650TIP3    H238442   5.971   3.079  14.251 -0.5736 -0.8625 -0.0115
 5651TIP3   OH238443   3.972   0.050  12.598  0.8030  0.5476  0.3080
 5651TIP3    H138444   4.058   0.013  12.619  2.3016  2.9306 -1.1450
 5651TIP3    H238445   3.974   0.063  12.503 -1.4498  0.1309  0.1447
 5652TIP3   OH238446   3.720   5.833  14.699 -0.1374 -0.0999 -0.1088
 5652TIP3    H138447   3.708   5.745  14.735 -1.5109  0.1240  0.0337
 5652TIP3    H238448   3.633   5.872  14.700  0.1239  0.6286 -1.8769
 5653TIP3   OH238449   1.151   4.432  15.713 -0.1147  0.5176 -0.8095
 5653TIP3    H138450   1.241   4.460  15.699  0.0163  0.1755 -0.6551
 5653TIP3    H238451   1.099   4.513  15.703  0.4453  1.2588  1.7165
 5654TIP3   OH238452   3.533   0.119   1.210  0.6170 -0.1766  0.3516
 5654TIP3    H138453   3.515   0.077   1.294 -1.0733  1.9520  1.1659
 5654TIP3    H238454   3.613   0.077   1.179  1.2562 -1.1256  2.9602
 5655TIP3   OH238455   0.090   5.030  12.239 -0.2881  0.1134  0.4372
 5655TIP3    H138456   0.067   5.091  12.168  0.8636 -1.2725 -1.2013
 5655TIP3    H238457   0.017   4.968  12.242  0.2675 -0.6066 -0.4800
 5656TIP3   OH238458   2.600   1.882  14.546 -0.1086  0.3253 -0.6445
 5656TIP3    H138459   2.521   1.828  14.543  1.4475 -2.0017 -2.0573
 5656TIP3    H238460   2.573   1.960  14.595 -2.2962 -1.9634  2.1547
 5657TIP3   OH238461   3.779   1.062  12.830 -0.3431  0.1768 -0.4708
 5657TIP3    H138462   3.847   1.126  12.812  1.5812 -1.4828  0.5271
 5657TIP3    H238463   3.764   1.019  12.746 -0.1144  0.5046 -0.6813
 5658TIP3   OH238464   1.935   2.369  13.136  0.1220  0.3022  0.0381
 5658TIP3    H138465   1.932   2.303  13.067 -0.5841 -0.6897  0.9751
 5658TIP3    H238466   2.002   2.431  13.108  0.9117 -0.8983 -0.8063
 5659TIP3   OH238467   4.100   5.819  14.018  0.8231 -0.2445 -0.2095
 5659TIP3    H138468   4.081   5.829  14.111 -2.3826 -1.8909 -0.5521
 5659TIP3    H238469   4.190   5.787  14.015  0.5932 -1.3813  2.4022
 5660TIP3   OH238470   2.381   3.862   2.022  0.0756 -0.2490 -0.1404
 5660TIP3    H138471   2.421   3.775   2.018  1.9592  0.5110  0.6281
 5660TIP3    H238472   2.301   3.850   2.073  0.3194 -1.5149 -0.0249
 5661TIP3   OH238473   2.877   0.420  15.335  0.2333 -0.2119  0.3086
 5661TIP3    H138474   2.879   0.508  15.297  1.2183  0.1050  1.0501
 5661TIP3    H238475   2.829   0.430  15.417  0.7126 -0.2718  0.6005
 5662TIP3   OH238476   3.543   2.106   3.247 -0.3290 -0.2017 -0.3128
 5662TIP3    H138477   3.512   2.016   3.246 -0.6184 -0.1341  1.1458
 5662TIP3    H238478   3.630   2.102   3.209 -1.0555 -0.7904 -2.0141
 5663TIP3   OH238479   0.876   3.182   2.624 -0.1195  0.1804  0.2452
 5663TIP3    H138480   0.825   3.252   2.665 -2.2219 -0.7322 -0.6683
 5663TIP3    H238481   0.935   3.227   2.564 -0.7820  1.2343  0.3542
 5664TIP3   OH238482   2.330   3.040  11.877  0.0867  0.1995  0.4392
 5664TIP3    H138483   2.281   2.962  11.901 -0.6640  0.6970  0.5570
 5664TIP3    H238484   2.403   3.007  11.824 -2.1753 -0.3249 -2.6060
 5665TIP3   OH238485   1.085   3.348   0.263  0.1305  0.0905 -0.2046
 5665TIP3    H138486   1.016   3.405   0.229 -0.9428  0.1446  1.8521
 5665TIP3    H238487   1.117   3.394   0.340 -0.1385 -1.6260  0.9925
 5666TIP3   OH238488   6.151   0.257   4.652 -0.3819  0.2019 -0.2134
 5666TIP3    H138489   6.226   0.282   4.598  0.7901 -0.9671  0.7958
 5666TIP3    H238490   6.184   0.259   4.742 -1.5372 -0.4462  0.2517
 5667TIP3   OH238491   5.970   5.660   0.480 -0.1965 -0.1871 -0.5554
 5667TIP3    H138492   6.000   5.719   0.549 -0.1297 -0.0651 -0.6877
 5667TIP3    H238493   5.929   5.587   0.527  2.1988 -1.4487 -0.2850
 5668TIP3   OH238494   4.004   1.266   4.373 -0.1563 -0.2199  0.2370
 5668TIP3    H138495   4.054   1.339   4.409 -2.4458  1.2375  0.6227
 5668TIP3    H238496   4.020   1.194   4.435 -0.5281  0.9555  1.7600
 5669TIP3   OH238497   1.054   3.671  15.265  0.0817  0.1270 -0.1484
 5669TIP3    H138498   1.098   3.716  15.193 -1.1763  0.8789 -0.4753
 5669TIP3    H238499   1.070   3.726  15.342 -2.7213  2.0750 -0.8245
 5670TIP3   OH238500   5.503   2.282  16.099  0.4340  0.4352 -0.6207
 5670TIP3    H138501   5.465   2.352  16.046 -0.0366  0.8359  0.2356
 5670TIP3    H238502   5.442   2.208  16.090 -0.3592  0.9378  0.4096
 5671TIP3   OH238503   6.663   6.404   0.795 -0.2633 -0.5910 -0.7918
 5671TIP3    H138504   6.592   6.368   0.848 -0.7215 -0.3614 -1.2403
 5671TIP3    H238505   6.631   6.489   0.766 -0.4073 -1.0958 -2.1957
 5672TIP3   OH238506   5.540   4.875   0.736  0.1615 -0.7509  0.5104
 5672TIP3    H138507   5.534   4.839   0.647 -0.3438  2.6846 -1.0281
 5672TIP3    H238508   5.626   4.917   0.738  0.1073 -0.6782  1.6274
 5673TIP3   OH238509   3.639   2.853  10.851 -0.3632 -0.4737  0.1817
 5673TIP3    H138510   3.676   2.766  10.843 -1.2321 -0.7579 -0.9034
 5673TIP3    H238511   3.702   2.911  10.808 -0.4774 -0.7540 -0.3597
 5674TIP3   OH238512   0.822   6.598  13.936 -0.2847 -0.2214  0.3019
 5674TIP3    H138513   0.791   6.625  13.849  2.5322  0.0867 -0.7044
 5674TIP3    H238514   0.849   6.507  13.925  1.8043  0.3525  0.2864
 5675TIP3   OH238515   4.875   1.720  16.592 -0.1905 -0.1345  0.4007
 5675TIP3    H138516   4.915   1.790  16.540 -1.7408  0.2708 -0.3172
 5675TIP3    H238517   4.949   1.670  16.626  0.9110  0.6492 -0.7456
 5676TIP3   OH238518   4.378   0.621   3.915  0.6485 -0.3705 -0.0259
 5676TIP3    H138519   4.352   0.579   3.833  0.5268  0.9161 -0.6633
 5676TIP3    H238520   4.372   0.715   3.897 -0.0597 -0.0582  1.6791
 5677TIP3   OH238521   1.499   2.504  15.489 -0.1971 -0.3193  0.8473
 5677TIP3    H138522   1.592   2.520  15.471 -0.6706  1.1469 -0.5395
 5677TIP3    H238523   1.481   2.418  15.451  0.3731 -0.1889  0.2708
 5678TIP3   OH238524   1.896   3.891   4.890 -0.3799  0.5699  0.3583
 5678TIP3    H138525   1.978   3.842   4.884 -0.4856  0.5278 -0.9486
 5678TIP3    H238526   1.922   3.983   4.883 -0.5999  0.4994 -2.8576
 5679TIP3   OH238527   5.698   2.315   2.271 -0.3770 -0.0845  0.2780
 5679TIP3    H138528   5.629   2.249   2.269 -1.0857  0.5839  1.6855
 5679TIP3    H238529   5.772   2.272   2.314 -0.5664 -0.2176  0.4717
 5680TIP3   OH238530   6.801   3.195  16.729 -0.2663  0.1245  0.7330
 5680TIP3    H138531   6.746   3.119  16.747 -1.4110  0.5091 -0.9598
 5680TIP3    H238532   6.865   3.164  16.666  0.6150  0.0460  1.6428
 5681TIP3   OH238533   6.774   4.211   4.080 -0.4124 -0.5715  0.2914
 5681TIP3    H138534   6.788   4.247   4.167  1.1159  0.6741 -0.4165
 5681TIP3    H238535   6.750   4.119   4.096 -0.7360 -0.2233  2.0145
 5682TIP3   OH238536   2.000   5.287   1.751 -0.0480 -0.0322  0.0608
 5682TIP3    H138537   1.939   5.306   1.679  1.9263  2.3672 -1.1425
 5682TIP3    H238538   2.015   5.193   1.745 -1.2148 -0.1671 -1.6243
 5683TIP3   OH238539   4.819   3.641   5.864  0.1744 -0.6228 -0.2588
 5683TIP3    H138540   4.753   3.700   5.829 -0.6818 -1.6454 -0.4160
 5683TIP3    H238541   4.820   3.658   5.958 -0.0338 -0.3325 -0.3095
 5684TIP3   OH238542   0.940   1.425   2.635  0.0358 -0.3670 -0.1149
 5684TIP3    H138543   0.894   1.344   2.655 -1.3101  0.5945  0.9521
 5684TIP3    H238544   0.965   1.459   2.721 -0.3036  0.8156 -0.4669
 5685TIP3   OH238545   3.496   0.599   2.767  0.2263 -0.2326  0.0979
 5685TIP3    H138546   3.467   0.566   2.852 -0.0573  2.6133  1.2048
 5685TIP3    H238547   3.415   0.619   2.721  0.1968  3.6537  1.5175
 5686TIP3   OH238548   4.501   1.900   1.140  0.4843  0.4256  0.0176
 5686TIP3    H138549   4.557   1.957   1.192 -0.3561 -0.1905  1.6782
 5686TIP3    H238550   4.510   1.814   1.180  1.1990 -0.4956 -2.0184
 5687TIP3   OH238551   3.036   1.065  13.783 -0.2509  0.0654 -0.2828
 5687TIP3    H138552   3.097   1.016  13.837 -1.2790 -1.0242 -0.0684
 5687TIP3    H238553   2.956   1.070  13.835 -1.0171 -0.3686 -1.3710
 5688TIP3   OH238554   3.457   0.915   0.649  0.2570  0.2492 -0.8823
 5688TIP3    H138555   3.538   0.864   0.648  0.4908  0.5987 -0.2565
 5688TIP3    H238556   3.471   0.985   0.585  0.5551  0.4642 -0.5840
 5689TIP3   OH238557   5.334   1.257   6.107 -0.1624  0.2324  0.1389
 5689TIP3    H138558   5.262   1.194   6.109 -0.6888  0.8066 -0.3545
 5689TIP3    H238559   5.331   1.300   6.193  0.7852 -1.0401  0.8386
 5690TIP3   OH238560   0.442   2.800   3.814  0.0895 -0.2754  0.2789
 5690TIP3    H138561   0.488   2.734   3.866  0.6865  1.8907  2.7180
 5690TIP3    H238562   0.356   2.806   3.855 -0.6390 -0.8323 -1.1334
 5691TIP3   OH238563   3.257   0.934  13.440  0.4699 -0.7960 -0.9078
 5691TIP3    H138564   3.311   0.974  13.372 -0.6386 -0.0354 -1.3663
 5691TIP3    H238565   3.172   0.978  13.433 -0.5016 -2.5635 -0.8027
 5692TIP3   OH238566   5.667   2.532  16.585 -0.3585 -0.4062  0.0773
 5692TIP3    H138567   5.592   2.517  16.528  0.1969  0.4294 -0.9051
 5692TIP3    H238568   5.677   2.451  16.634 -1.8877 -0.5352  0.2200
 5693TIP3   OH238569   1.774   6.793   5.483  0.4220 -0.2948  0.1051
 5693TIP3    H138570   1.735   6.823   5.566 -0.9798 -2.7547  0.4222
 5693TIP3    H238571   1.854   6.747   5.510 -0.3246 -1.5845  0.1989
 5694TIP3   OH238572   3.062   2.332  13.939 -0.2120  0.0655 -0.9704
 5694TIP3    H138573   3.021   2.403  13.889  0.8142  0.8283 -0.7626
 5694TIP3    H238574   3.122   2.291  13.877 -0.8315 -0.6784 -1.1023
 5695TIP3   OH238575   1.025   4.353  15.435 -0.2420  0.0776 -0.5220
 5695TIP3    H138576   1.049   4.440  15.405 -1.0852 -0.0861 -1.7272
 5695TIP3    H238577   0.970   4.368  15.512 -0.2155  0.6046 -0.6071
 5696TIP3   OH238578   3.564   2.891  13.657 -0.6952  0.0944 -0.3249
 5696TIP3    H138579   3.641   2.836  13.671  1.1919  2.8020  0.7323
 5696TIP3    H238580   3.551   2.890  13.562  0.8061 -0.2372 -0.5445
 5697TIP3   OH238581   5.406   3.192  14.461  0.2572 -0.1170  0.2860
 5697TIP3    H138582   5.339   3.248  14.499 -0.7303 -0.1170 -1.3662
 5697TIP3    H238583   5.379   3.103  14.486 -1.9768 -0.3852 -2.5106
 5698TIP3   OH238584   3.565   5.649  16.925  0.6347 -0.1541 -0.7201
 5698TIP3    H138585   3.645   5.615  16.965 -0.1225 -1.2765 -0.1268
 5698TIP3    H238586   3.512   5.572  16.908 -0.4798  0.6127 -0.7773
 5699TIP3   OH238587   6.369   4.179   2.316  0.4146  0.8205 -0.0829
 5699TIP3    H138588   6.284   4.174   2.273  0.9801 -1.9601 -1.0226
 5699TIP3    H238589   6.419   4.241   2.263  0.2268 -0.5179 -1.8762
 5700TIP3   OH238590   3.947   2.013  11.865 -0.1351  0.2377  0.0993
 5700TIP3    H138591   3.990   1.944  11.814 -1.2819 -0.8809  0.5543
 5700TIP3    H238592   3.977   2.095  11.827 -0.3660 -0.5497 -1.8842
 5701TIP3   OH238593   4.586   4.749  11.161  0.5495  0.0815  0.3977
 5701TIP3    H138594   4.630   4.806  11.224  0.2471 -0.9055  1.5280
 5701TIP3    H238595   4.493   4.755  11.184  0.4328 -0.2877  0.0333
 5702TIP3   OH238596   2.032   4.454  10.536 -0.1448 -0.5070 -0.4138
 5702TIP3    H138597   1.990   4.504  10.466 -1.8712 -1.9630 -0.5062
 5702TIP3    H238598   2.050   4.518  10.604  0.2676  0.6894 -1.6032
 5703TIP3   OH238599   2.355   1.821  11.680 -0.1966 -0.0066 -0.6806
 5703TIP3    H138600   2.400   1.888  11.629  4.1897  0.1324  2.7793
 5703TIP3    H238601   2.339   1.861  11.765 -2.8806 -1.6598 -0.2609
 5704TIP3   OH238602   5.137   3.443  14.019 -0.0904  0.1364 -0.7635
 5704TIP3    H138603   5.230   3.445  13.996 -0.0574  1.3760 -0.5938
 5704TIP3    H238604   5.120   3.528  14.058 -0.9866 -0.6003  0.5155
 5705TIP3   OH238605   5.756   6.454   5.274  0.3416  0.1002  0.0980
 5705TIP3    H138606   5.817   6.444   5.347  2.6887 -1.1528 -1.8748
 5705TIP3    H238607   5.680   6.498   5.312  2.1603  1.1383  2.8615
 5706TIP3   OH238608   2.524   6.412  14.201 -0.1003  0.4439  0.1071
 5706TIP3    H138609   2.613   6.386  14.227 -0.3778 -0.7830 -0.1027
 5706TIP3    H238610   2.508   6.366  14.119 -1.6797 -1.0564  1.1825
 5707TIP3   OH238611   2.586   4.726  16.626 -0.8939  0.0870 -0.1952
 5707TIP3    H138612   2.574   4.662  16.696  0.0126  0.3146  0.1834
 5707TIP3    H238613   2.604   4.809  16.671 -0.6460  0.3103 -0.6875
 5708TIP3   OH238614   0.594   2.844  17.188 -0.3922  0.0802 -0.1964
 5708TIP3    H138615   0.565   2.754  17.206 -2.7065  0.5363 -1.3254
 5708TIP3    H238616   0.534   2.876  17.121 -0.2270  2.8065  0.8183
 5709TIP3   OH238617   3.153   1.621   3.325  0.2078 -0.6342  0.0669
 5709TIP3    H138618   3.139   1.577   3.409 -0.2480  1.1202  0.9654
 5709TIP3    H238619   3.246   1.644   3.325  0.6958 -2.3894 -0.8616
 5710TIP3   OH238620   2.499   2.307   0.568  0.3579 -0.0736  0.4558
 5710TIP3    H138621   2.528   2.398   0.577 -1.7357  0.6601  0.3687
 5710TIP3    H238622   2.494   2.293   0.473 -0.2002  0.0423  0.4639
 5711TIP3   OH238623   6.364   5.967  12.985  0.2485 -0.2317 -0.3724
 5711TIP3    H138624   6.360   5.919  13.067 -0.6570  0.3035 -0.0867
 5711TIP3    H238625   6.367   5.899  12.917  3.4378 -0.7488  0.0984
 5712TIP3   OH238626   2.624   3.946  15.927 -0.1424  1.0619  0.5546
 5712TIP3    H138627   2.552   3.963  15.866 -0.7576 -0.2533  0.8685
 5712TIP3    H238628   2.682   3.887  15.879  0.3520  1.5275  0.5755
 5713TIP3   OH238629   6.135   4.116   1.538  0.3103  0.1283 -0.1055
 5713TIP3    H138630   6.192   4.186   1.507  0.7430 -0.8651 -1.6861
 5713TIP3    H238631   6.125   4.132   1.632  1.5603  1.4650 -0.1729
 5714TIP3   OH238632   1.229   4.590   5.271  0.5361 -0.0562  0.0016
 5714TIP3    H138633   1.205   4.531   5.199  0.0084 -1.0217  0.9467
 5714TIP3    H238634   1.228   4.677   5.231 -1.1250 -0.4136 -0.8540
 5715TIP3   OH238635   4.765   2.243   4.255  0.2936  0.0821 -0.2756
 5715TIP3    H138636   4.677   2.214   4.279  0.5052 -1.2440 -0.9646
 5715TIP3    H238637   4.821   2.167   4.273  1.2881  0.8681  0.0674
 5716TIP3   OH238638   0.852   6.305  12.878 -0.1569  0.2956  0.7534
 5716TIP3    H138639   0.820   6.278  12.964 -0.1698 -2.7429 -0.1005
 5716TIP3    H238640   0.932   6.254  12.864 -0.5788  0.0931 -1.3333
 5717TIP3   OH238641   1.656   1.596  15.246 -0.5082  0.2831  0.3083
 5717TIP3    H138642   1.749   1.599  15.267 -0.5180  0.8937  0.2697
 5717TIP3    H238643   1.650   1.541  15.168 -0.1611  0.3996  0.2000
 5718TIP3   OH238644   1.318   6.011  14.613  0.6039  0.3745 -0.1322
 5718TIP3    H138645   1.407   6.002  14.579 -0.2666  0.3343 -2.5935
 5718TIP3    H238646   1.272   5.933  14.582 -0.2880  0.3124  1.2467
 5719TIP3   OH238647   2.780   6.626   3.479  0.1949 -0.2390 -0.3155
 5719TIP3    H138648   2.869   6.660   3.483 -0.6605  2.3150 -0.8924
 5719TIP3    H238649   2.776   6.577   3.398  0.9256  0.1176 -0.5758
 5720TIP3   OH238650   2.635   0.351   0.889 -0.1800 -0.8684  0.2045
 5720TIP3    H138651   2.628   0.419   0.957 -0.6879 -0.1767 -0.5282
 5720TIP3    H238652   2.593   0.389   0.813 -0.2738 -1.9370 -0.2881
 5721TIP3   OH238653   1.745   2.564  15.406  0.5861 -0.0932  0.2641
 5721TIP3    H138654   1.811   2.498  15.429 -0.1889 -1.2653 -0.7058
 5721TIP3    H238655   1.705   2.530  15.325 -2.7856 -0.6726  1.9896
 5722TIP3   OH238656   0.879   6.435   0.297 -0.1396 -0.0172 -0.5234
 5722TIP3    H138657   0.841   6.475   0.376 -1.7937  0.4808 -1.5353
 5722TIP3    H238658   0.963   6.399   0.327 -1.1160 -0.6290  1.6810
 5723TIP3   OH238659   2.855   1.904  12.022 -0.1610  0.0197 -0.1554
 5723TIP3    H138660   2.852   1.982  11.966 -0.1880  0.4323  0.4071
 5723TIP3    H238661   2.942   1.908  12.064  0.1777 -0.7211 -0.7752
 5724TIP3   OH238662   3.834   5.172   3.782  0.1619  0.4743 -0.2155
 5724TIP3    H138663   3.771   5.183   3.853 -0.4401  1.6060 -0.9065
 5724TIP3    H238664   3.802   5.096   3.733  1.5395 -1.4650  1.6586
 5725TIP3   OH238665   5.478   2.353   4.133 -0.4718  0.5421  0.5111
 5725TIP3    H138666   5.462   2.309   4.049  0.2328  0.8699  0.1989
 5725TIP3    H238667   5.551   2.412   4.115  1.4430 -1.2198  1.9505
 5726TIP3   OH238668   1.557   3.719  12.023  0.6490 -0.1854 -0.2950
 5726TIP3    H138669   1.559   3.786  11.955  0.8948 -0.2526 -0.3521
 5726TIP3    H238670   1.464   3.697  12.032  0.7037 -0.9523 -1.3703
 5727TIP3   OH238671   5.800   5.708  13.934 -0.2791 -0.7103 -0.6904
 5727TIP3    H138672   5.811   5.710  13.839  0.5991  1.2792 -0.5984
 5727TIP3    H238673   5.805   5.800  13.960  0.5948 -1.3064  1.3878
 5728TIP3   OH238674   2.418   2.783   4.178 -0.4024 -0.2683  0.3429
 5728TIP3    H138675   2.399   2.865   4.224 -1.1306 -0.1480 -0.1317
 5728TIP3    H238676   2.455   2.725   4.244 -0.6643  0.1670  0.8788
 5729TIP3   OH238677   3.382   0.920   2.630 -0.2666 -0.2231 -0.1573
 5729TIP3    H138678   3.456   0.980   2.644 -1.0719  0.5449  1.0247
 5729TIP3    H238679   3.400   0.880   2.545  2.2029 -1.0955  0.6677
 5730TIP3   OH238680   6.350   1.464   0.898 -0.0965 -0.5780 -0.3760
 5730TIP3    H138681   6.287   1.393   0.911 -1.3984  0.7729  1.0706
 5730TIP3    H238682   6.334   1.495   0.809 -0.5804 -1.0852 -0.4682
 5731TIP3   OH238683   0.866   4.087  15.667 -0.0825  0.0796  0.0351
 5731TIP3    H138684   0.812   4.165  15.654 -0.0797 -0.0292 -0.6751
 5731TIP3    H238685   0.822   4.018  15.616 -1.1406 -0.9040  2.1613
 5732TIP3   OH238686   1.913   2.618   0.374  0.5057  0.2606  0.0611
 5732TIP3    H138687   1.994   2.574   0.401 -0.3491 -0.9011  0.8497
 5732TIP3    H238688   1.850   2.547   0.364 -0.5343  1.1873 -0.1330
 5733TIP3   OH238689   5.421   5.843   4.614  0.2809  0.1990  0.3797
 5733TIP3    H138690   5.404   5.749   4.616 -1.9710  0.5596  2.0613
 5733TIP3    H238691   5.432   5.864   4.521 -0.0399 -1.5872 -0.0859
 5734TIP3   OH238692   5.684   2.238  15.713  0.0303  0.1643  0.4529
 5734TIP3    H138693   5.666   2.145  15.704  2.7311 -0.5726  1.5821
 5734TIP3    H238694   5.749   2.243  15.783  3.1640  2.4228 -2.2881
 5735TIP3   OH238695   2.512   1.330   3.374 -0.3699 -0.0004  0.6305
 5735TIP3    H138696   2.432   1.353   3.422  0.4246  1.2581  1.4172
 5735TIP3    H238697   2.583   1.360   3.430  0.6742 -1.0358 -0.0883
 5736TIP3   OH238698   2.921   5.235  11.816  0.4903 -0.5709  0.1646
 5736TIP3    H138699   2.926   5.182  11.895 -1.4200 -1.4975 -0.2907
 5736TIP3    H238700   2.948   5.176  11.745  0.1483 -0.3953 -0.1187
 5737TIP3   OH238701   1.432   0.887   4.711 -0.4879  0.1154 -0.1280
 5737TIP3    H138702   1.386   0.883   4.794  0.7780  0.0263  0.5958
 5737TIP3    H238703   1.493   0.961   4.721  1.3927 -1.3541 -0.0169
 5738TIP3   OH238704   1.786   6.601  16.425 -0.3961 -0.3048  0.1729
 5738TIP3    H138705   1.868   6.633  16.389 -0.9776  2.6393  1.1855
 5738TIP3    H238706   1.811   6.551  16.503  0.5130 -1.8819 -1.0674
 5739TIP3   OH238707   3.202   1.574  11.885  0.1973  0.0862 -0.5893
 5739TIP3    H138708   3.156   1.515  11.824 -1.2066  3.2880 -2.8864
 5739TIP3    H238709   3.294   1.551  11.875 -0.3055 -1.8945 -1.1599
 5740TIP3   OH238710   1.910   5.167  11.981  0.4148 -0.6054 -0.6094
 5740TIP3    H138711   1.866   5.083  11.994 -0.3438 -0.0176  0.9153
 5740TIP3    H238712   1.865   5.205  11.906 -1.7634 -0.0537  0.8665
 5741TIP3   OH238713   5.945   2.487   1.464 -0.4379 -0.3519  0.0249
 5741TIP3    H138714   5.925   2.440   1.384  0.7528 -1.0847  0.1332
 5741TIP3    H238715   6.040   2.483   1.471  0.0057  3.6460 -0.9431
 5742TIP3   OH238716   2.319   4.937  15.924  0.0725  0.5912 -0.2626
 5742TIP3    H138717   2.407   4.975  15.916  0.3691 -0.2695 -1.5253
 5742TIP3    H238718   2.277   4.957  15.840  0.1008 -1.4551 -0.8128
 5743TIP3   OH238719   0.362   4.255   1.349 -0.2664  0.2133 -0.0827
 5743TIP3    H138720   0.269   4.276   1.345 -0.5375 -0.9987 -0.4635
 5743TIP3    H238721   0.404   4.325   1.298 -1.1075 -0.0194 -1.1343
 5744TIP3   OH238722   4.373   3.691   3.034 -0.8499 -0.2604 -0.3482
 5744TIP3    H138723   4.413   3.656   3.114  0.6251  0.3101 -0.8077
 5744TIP3    H238724   4.389   3.785   3.038 -0.5300 -0.2495 -1.4213
 5745TIP3   OH238725   3.690   1.668  11.745 -0.6665  0.0740 -0.4557
 5745TIP3    H138726   3.693   1.749  11.797 -1.9373 -0.8096  1.0812
 5745TIP3    H238727   3.755   1.682  11.676  0.4156  1.6937  0.7960
 5746TIP3   OH238728   5.613   3.719  14.279  0.8362 -0.2453 -0.4358
 5746TIP3    H138729   5.694   3.676  14.307  0.2016 -1.3463 -0.2435
 5746TIP3    H238730   5.558   3.720  14.357 -0.4260 -2.1068 -1.2424
 5747TIP3   OH238731   1.552   5.512  13.217 -0.0103  0.4999  0.0594
 5747TIP3    H138732   1.509   5.426  13.219  0.2048  0.4002  0.4181
 5747TIP3    H238733   1.606   5.514  13.296  2.8817 -0.5157 -1.7419
 5748TIP3   OH238734   1.329   3.279  11.960 -0.2816  0.5666 -0.1633
 5748TIP3    H138735   1.347   3.291  12.053  0.2273  0.8793 -0.2982
 5748TIP3    H238736   1.247   3.326  11.946 -0.0292  1.0633 -0.0014
 5749TIP3   OH238737   2.300   0.509  15.313  0.0113 -0.1985  0.0639
 5749TIP3    H138738   2.242   0.524  15.387  0.9429 -1.1712  1.0236
 5749TIP3    H238739   2.267   0.568  15.244 -1.0023  0.5543  1.1586
 5750TIP3   OH238740   6.579   2.384   3.799 -0.1489  0.3727  0.3240
 5750TIP3    H138741   6.611   2.448   3.864  0.9944  0.9107 -0.7391
 5750TIP3    H238742   6.550   2.310   3.852  0.4642  0.9225  1.4847
 5751TIP3   OH238743   1.605   4.607   3.647  0.1991  0.1208 -0.0381
 5751TIP3    H138744   1.689   4.576   3.614 -0.4541  0.1388 -1.8753
 5751TIP3    H238745   1.543   4.537   3.626 -0.6459  1.0985 -0.9309
 5752TIP3   OH238746   5.891   5.758  10.817  0.3171  0.4893 -0.0239
 5752TIP3    H138747   5.798   5.743  10.804  0.3086 -0.8884  1.3540
 5752TIP3    H238748   5.934   5.689  10.767  0.4688 -0.6745  1.6222
 5753TIP3   OH238749   5.350   3.401  17.106  0.1748 -0.1588  0.4202
 5753TIP3    H138750   5.427   3.458  17.111 -0.4752  0.6847  0.9920
 5753TIP3    H238751   5.294   3.441  17.040 -0.1335 -0.3242  0.5771
 5754TIP3   OH238752   0.282   5.738   1.144 -0.0526 -0.4069  0.5702
 5754TIP3    H138753   0.232   5.784   1.077 -1.3496  0.5136  2.1059
 5754TIP3    H238754   0.370   5.729   1.107 -1.1417 -1.5142 -1.9639
 5755TIP3   OH238755   0.195   6.038   1.016  0.0633  0.0006  0.5188
 5755TIP3    H138756   0.264   6.074   0.961 -1.9291  1.3435 -1.2729
 5755TIP3    H238757   0.121   6.026   0.957 -1.8427  0.4163  2.6684
 5756TIP3   OH238758   6.801   0.171   0.699  0.0491 -0.3457  0.6663
 5756TIP3    H138759   6.886   0.157   0.658 -0.3800  0.3254 -0.5053
 5756TIP3    H238760   6.745   0.101   0.666  0.3985 -1.4436  2.2895
 5757TIP3   OH238761   2.248   4.983  15.639 -0.1060  0.1318  0.2330
 5757TIP3    H138762   2.294   5.059  15.602  1.8264 -1.8680 -1.8058
 5757TIP3    H238763   2.174   4.968  15.581 -0.9023  0.8010  1.0385
 5758TIP3   OH238764   0.176   3.088   0.505  0.1828 -0.1580  0.0788
 5758TIP3    H138765   0.169   3.051   0.417 -2.0530  1.3167 -0.4526
 5758TIP3    H238766   0.263   3.129   0.507  0.0741  0.2418 -1.6492
 5759TIP3   OH238767   2.827   6.440   5.891 -0.5152 -0.0885  0.5666
 5759TIP3    H138768   2.825   6.422   5.985 -1.5242 -0.1190  0.5501
 5759TIP3    H238769   2.895   6.382   5.857  0.5044  0.5813  1.4005
 5760TIP3   OH238770   4.986   5.650  13.189  0.0886  0.0329 -0.4794
 5760TIP3    H138771   4.944   5.627  13.106  1.0593  1.6102 -1.4488
 5760TIP3    H238772   4.927   5.713  13.230  0.2036  0.2002 -0.5688
 5761TIP3   OH238773   2.065   0.537  13.662 -0.0641  0.7471 -0.3163
 5761TIP3    H138774   2.116   0.463  13.628 -0.6996  0.1483 -0.0051
 5761TIP3    H238775   2.089   0.611  13.606  1.1931  0.5054 -0.1288
 5762TIP3   OH238776   1.337   2.165   0.610  0.2375 -0.0072  0.0883
 5762TIP3    H138777   1.392   2.240   0.632  0.4196  0.3386 -1.4671
 5762TIP3    H238778   1.395   2.089   0.619 -0.1708 -0.1099  2.5097
 5763TIP3   OH238779   6.505   2.415   0.501 -0.5041 -0.1394 -0.2965
 5763TIP3    H138780   6.420   2.451   0.476 -0.2158  0.2603 -0.7027
 5763TIP3    H238781   6.488   2.321   0.510 -1.0272 -0.0437 -0.2158
 5764TIP3   OH238782   0.417   3.818  12.588 -0.0892 -0.4596 -0.1657
 5764TIP3    H138783   0.439   3.901  12.630 -0.0111 -0.6100  0.0908
 5764TIP3    H238784   0.496   3.793  12.541  0.4810 -1.2432  1.1462
 5765TIP3   OH238785   4.319   1.081   1.064 -0.1110 -0.0906 -0.6976
 5765TIP3    H138786   4.386   1.033   1.111  2.8433  3.0821 -1.2429
 5765TIP3    H238787   4.265   1.120   1.133 -0.2859 -1.1653 -0.2033
 5766TIP3   OH238788   3.026   1.323  14.994  0.3015  0.5791  0.6006
 5766TIP3    H138789   2.940   1.327  15.035  0.4849 -1.5732  1.3120
 5766TIP3    H238790   3.011   1.273  14.913  0.9321 -0.0820  0.8879
 5767TIP3   OH238791   2.184   2.064   0.407 -0.1437 -0.1244 -0.1853
 5767TIP3    H138792   2.191   2.082   0.314  0.6859 -2.7736 -0.7173
 5767TIP3    H238793   2.272   2.034   0.433 -1.1835 -2.9792  0.5081
 5768TIP3   OH238794   2.264   4.128  15.952  0.2700 -0.6362 -0.3375
 5768TIP3    H138795   2.325   4.133  16.025 -0.7855 -1.4190  0.6253
 5768TIP3    H238796   2.197   4.193  15.972 -0.0040 -0.8256 -0.6355
 5769TIP3   OH238797   3.074   1.495   0.967 -0.6345 -0.1775  0.6596
 5769TIP3    H138798   3.116   1.409   0.971  0.3884  0.2998  0.4949
 5769TIP3    H238799   3.143   1.554   0.937 -0.5694  1.1855  3.2371
 5770TIP3   OH238800   0.625   4.164  12.449 -0.5452  0.3604  0.3775
 5770TIP3    H138801   0.545   4.212  12.430 -0.5670  0.3850  0.5303
 5770TIP3    H238802   0.682   4.228  12.492  0.2652  0.8614 -1.3705
 5771TIP3   OH238803   1.715   2.496  10.259  0.5665  0.0885  0.2075
 5771TIP3    H138804   1.709   2.543  10.342 -0.2155 -0.0304  0.2349
 5771TIP3    H238805   1.800   2.519  10.223  1.7369 -1.3089  1.9125
 5772TIP3   OH238806   6.731   4.921  14.473  0.1432 -0.0174  0.2174
 5772TIP3    H138807   6.678   4.863  14.529 -0.6384  0.8818  0.4354
 5772TIP3    H238808   6.787   4.968  14.534  0.5150 -0.2758  0.0750
 5773TIP3   OH238809   6.093   4.474   1.701 -0.1984  0.2951 -0.3142
 5773TIP3    H138810   6.006   4.456   1.665 -0.4105  2.3944 -0.9752
 5773TIP3    H238811   6.085   4.454   1.795 -1.0268 -0.6685 -0.5793
 5774TIP3   OH238812   3.433   5.741   2.112  0.6931 -0.0145  0.3836
 5774TIP3    H138813   3.448   5.823   2.064 -0.3237  0.1537  0.3343
 5774TIP3    H238814   3.353   5.705   2.073 -1.9206  1.5395  3.7232
 5775TIP3   OH238815   4.917   2.712   0.930  0.1585  0.8142 -0.8413
 5775TIP3    H138816   4.900   2.626   0.967  0.2603  0.5142 -1.4682
 5775TIP3    H238817   4.927   2.770   1.005 -1.3447  0.5644 -0.4109
 5776TIP3   OH238818   3.608   0.557  14.635  0.2464 -0.0306  0.1656
 5776TIP3    H138819   3.685   0.613  14.649  0.0599 -0.0049  1.1646
 5776TIP3    H238820   3.549   0.580  14.707  0.1334 -1.4444  0.5402
 5777TIP3   OH238821   6.016   5.455   0.107 -0.0931 -0.3447 -0.3527
 5777TIP3    H138822   5.940   5.509   0.125 -0.3945 -1.0361  0.5142
 5777TIP3    H238823   6.089   5.517   0.101 -0.2907  0.1059  1.4531
 5778TIP3   OH238824   1.596   4.934   4.932 -0.5550  0.0428 -0.4817
 5778TIP3    H138825   1.651   4.984   4.992  0.8029 -1.5848 -0.2876
 5778TIP3    H238826   1.547   4.875   4.989 -2.5206  1.4332 -0.6610
 5779TIP3   OH238827   1.609   5.147  14.580 -0.4401  1.1199 -0.0300
 5779TIP3    H138828   1.574   5.145  14.669  0.3172 -1.1431  0.2778
 5779TIP3    H238829   1.687   5.201  14.585  1.7827 -1.9628  1.6512
 5780TIP3   OH238830   3.789   2.001  11.200  0.4967 -0.0977 -0.5489
 5780TIP3    H138831   3.756   2.069  11.141  0.2700 -0.7806 -1.2142
 5780TIP3    H238832   3.853   1.953  11.149 -0.0213 -0.9761 -0.3895
 5781TIP3   OH238833   6.301   4.126  12.445  0.4763  0.4099 -0.0261
 5781TIP3    H138834   6.372   4.077  12.404 -0.3206  0.9756 -2.2453
 5781TIP3    H238835   6.344   4.187  12.505  1.9920  1.4972 -2.1144
 5782TIP3   OH238836   2.118   3.749  12.053  0.0623 -0.0641  0.4384
 5782TIP3    H138837   2.165   3.832  12.055  0.2367 -0.1705  1.0069
 5782TIP3    H238838   2.027   3.772  12.074  0.3715 -0.1721  2.0447
 5783TIP3   OH238839   5.636   1.446  14.205  0.1438 -0.2578 -0.2470
 5783TIP3    H138840   5.635   1.462  14.300 -1.3111 -2.0976  0.0974
 5783TIP3    H238841   5.644   1.534  14.167  0.1865  0.5808  1.5582
 5784TIP3   OH238842   3.165   6.257  11.045 -0.0426 -0.5053  0.1564
 5784TIP3    H138843   3.094   6.317  11.067 -0.6583 -0.8076 -0.9361
 5784TIP3    H238844   3.202   6.291  10.964 -0.6599 -1.7867 -0.7023
 5785TIP3   OH238845   2.069   5.484  13.456  1.3564  0.6754  0.2911
 5785TIP3    H138846   2.032   5.495  13.544  1.0198  1.6046  0.0379
 5785TIP3    H238847   1.998   5.510  13.397  2.1108  1.6266 -0.2176
 5786TIP3   OH238848   2.460   2.653  13.267 -0.4465  0.5621  0.0075
 5786TIP3    H138849   2.414   2.698  13.338 -1.5001  0.8990 -0.8684
 5786TIP3    H238850   2.403   2.581  13.243 -0.0220  0.3549 -0.3940
 5787TIP3   OH238851   3.318   5.495   4.205  0.1854  0.1324 -0.2603
 5787TIP3    H138852   3.253   5.484   4.274 -0.9206  0.5073 -1.1988
 5787TIP3    H238853   3.308   5.416   4.151  1.8118 -0.6984  0.5896
 5788TIP3   OH238854   3.890   3.701   5.131 -0.2394  0.4766  0.7550
 5788TIP3    H138855   3.857   3.618   5.096  0.6420  0.2238  0.4950
 5788TIP3    H238856   3.823   3.729   5.194 -0.1547 -0.8555  1.4788
 5789TIP3   OH238857   4.944   2.911   1.982 -0.1684  0.0478 -0.3511
 5789TIP3    H138858   4.950   2.885   2.074  0.1081 -0.1522 -0.4237
 5789TIP3    H238859   5.035   2.915   1.953 -0.2625 -0.0790 -0.6657
 5790TIP3   OH238860   5.545   6.159   0.520  0.0743  0.7744  0.6397
 5790TIP3    H138861   5.621   6.114   0.483 -0.8835  0.4793 -1.0195
 5790TIP3    H238862   5.470   6.109   0.490 -0.8163  1.1861  2.0928
 5791TIP3   OH238863   2.763   2.416   1.495  0.2917 -0.0925 -0.4884
 5791TIP3    H138864   2.737   2.419   1.587 -1.3459 -1.9921 -0.8260
 5791TIP3    H238865   2.720   2.492   1.455 -0.5682 -0.3279 -0.0266
 5792TIP3   OH238866   3.793   1.497   3.893  0.2289  0.0373  0.2632
 5792TIP3    H138867   3.726   1.523   3.956 -1.3810 -2.3981 -0.2971
 5792TIP3    H238868   3.834   1.579   3.866 -0.8265  1.3725  2.4828
 5793TIP3   OH238869   4.515   6.506  15.205  0.0864 -0.5535 -0.1011
 5793TIP3    H138870   4.573   6.455  15.149 -1.7697 -0.4111 -2.3053
 5793TIP3    H238871   4.519   6.595  15.171  0.1138 -0.1050  1.0318
 5794TIP3   OH238872   3.465   4.709   5.451 -0.5350  0.3936  0.0465
 5794TIP3    H138873   3.553   4.684   5.479 -0.4273  1.3405  0.6087
 5794TIP3    H238874   3.407   4.676   5.519 -0.4089  1.4861  0.7030
 5795TIP3   OH238875   2.135   1.794  15.561 -0.4667  0.3747 -0.0383
 5795TIP3    H138876   2.169   1.840  15.637 -0.3509  0.0684  0.0994
 5795TIP3    H238877   2.211   1.745  15.527  0.1464  2.3897 -1.8025
 5796TIP3   OH238878   4.179   3.763  14.158 -0.1110 -0.5373  0.0731
 5796TIP3    H138879   4.146   3.757  14.068  0.5829  0.0018 -0.2181
 5796TIP3    H238880   4.268   3.797  14.150  0.0971 -0.8353  0.9415
 5797TIP3   OH238881   0.808   1.842   1.238  0.7457 -0.2354  0.5006
 5797TIP3    H138882   0.794   1.822   1.145  1.2461  1.0607  0.1286
 5797TIP3    H238883   0.722   1.866   1.271 -0.1842 -3.9664  1.2909
 5798TIP3   OH238884   6.355   5.969  15.212 -0.3834 -0.0897  0.5834
 5798TIP3    H138885   6.400   5.934  15.135 -0.3251 -0.6832  0.8843
 5798TIP3    H238886   6.423   5.976  15.279 -0.2039  1.4357  0.2760
 5799TIP3   OH238887   5.725   4.932  11.912 -0.1106 -0.6417 -0.5143
 5799TIP3    H138888   5.792   5.000  11.915 -1.7513  1.0283  0.8310
 5799TIP3    H238889   5.772   4.850  11.927  1.8146  0.2555 -1.3134
 5800TIP3   OH238890   5.871   3.043  13.737 -0.3737  0.6611 -0.4605
 5800TIP3    H138891   5.788   3.044  13.786  0.5083 -1.8323  1.2837
 5800TIP3    H238892   5.914   2.962  13.764  3.9148  3.0548  0.8068
 5801TIP3   OH238893   3.207   4.237  13.822 -0.1982 -0.5548 -0.2928
 5801TIP3    H138894   3.291   4.211  13.784 -0.4415 -1.5636 -0.1874
 5801TIP3    H238895   3.162   4.284  13.752  0.5350  0.1960 -0.2778
 5802TIP3   OH238896   6.471   5.000  12.518  0.8056  0.8939  0.2696
 5802TIP3    H138897   6.411   5.009  12.592  1.0071 -0.8836  0.6806
 5802TIP3    H238898   6.521   5.082  12.518 -1.3906  2.3131  0.0686
 5803TIP3   OH238899   3.127   5.088   3.161  0.1319  0.0361 -0.2340
 5803TIP3    H138900   3.154   5.017   3.219 -0.8688  0.5045  0.8316
 5803TIP3    H238901   3.097   5.044   3.081 -0.2169 -0.7218  0.3088
 5804TIP3   OH238902   0.093   2.143  13.887  1.0200 -0.3249  0.4332
 5804TIP3    H138903   0.060   2.092  13.814 -0.5241  1.6304 -0.3245
 5804TIP3    H238904   0.146   2.213  13.847 -0.9373  1.5790  0.9676
 5805TIP3   OH238905   5.192   4.731  11.897 -0.0654 -0.0732 -0.1394
 5805TIP3    H138906   5.102   4.761  11.883 -0.1259  0.6768  1.5679
 5805TIP3    H238907   5.202   4.657  11.837 -1.1842  0.9899 -1.7020
 5806TIP3   OH238908   2.632   5.512   5.451 -0.6605 -0.1549 -0.0715
 5806TIP3    H138909   2.673   5.431   5.421  0.4537  0.9321 -1.6387
 5806TIP3    H238910   2.680   5.535   5.530 -1.5367 -1.4098  0.8758
 5807TIP3   OH238911   5.916   6.168  17.195  0.1428 -0.1311 -0.0386
 5807TIP3    H138912   5.874   6.245  17.231  0.8646 -0.0002  0.5436
 5807TIP3    H238913   5.880   6.160  17.106 -0.3674  0.5268  0.1062
 5808TIP3   OH238914   4.013   2.346   5.073 -0.1910  0.5784  0.0738
 5808TIP3    H138915   4.087   2.405   5.062 -0.3081  1.5178  3.2061
 5808TIP3    H238916   4.042   2.285   5.142 -0.6956 -2.0714 -1.8818
 5809TIP3   OH238917   1.558   3.393   2.615 -0.3164 -0.2151  0.4954
 5809TIP3    H138918   1.506   3.314   2.631 -1.2971  0.2084 -0.4643
 5809TIP3    H238919   1.494   3.457   2.583  0.9916 -0.1956 -2.4040
 5810TIP3   OH238920   0.730   2.950   2.673 -0.3777 -0.4844 -0.6598
 5810TIP3    H138921   0.785   3.024   2.648 -0.3024 -0.8935 -1.8056
 5810TIP3    H238922   0.658   2.988   2.722 -0.1019  0.2971 -0.8523
 5811TIP3   OH238923   0.426   6.731  13.313  0.0103 -0.2280  0.3318
 5811TIP3    H138924   0.448   6.733  13.406 -0.4600 -2.4951  0.5450
 5811TIP3    H238925   0.347   6.785  13.305 -1.9057 -2.5834  1.8998
 5812TIP3   OH238926   0.016   1.627  16.713  0.5512  0.0395  0.0572
 5812TIP3    H138927   0.035   1.712  16.672 -1.3298  0.1267 -0.7335
 5812TIP3    H238928   0.070   1.565  16.664 -1.7798  0.1135 -2.8716
 5813TIP3   OH238929   6.053   5.487  16.469 -0.2913  0.3754 -0.3920
 5813TIP3    H138930   6.018   5.462  16.555  0.7099 -2.8498 -0.7793
 5813TIP3    H238931   6.133   5.536  16.489 -1.8155  2.7116  0.4350
 5814TIP3   OH238932   5.281   2.817  15.406 -0.3133 -0.2578  0.3823
 5814TIP3    H138933   5.283   2.830  15.501 -2.3986  0.7887  0.3501
 5814TIP3    H238934   5.215   2.749  15.392  0.2235 -0.6524 -0.3165
 5815TIP3   OH238935   0.611   1.998   0.207 -0.6519 -0.0869  0.4736
 5815TIP3    H138936   0.624   2.076   0.260  0.8904 -0.6950  1.0650
 5815TIP3    H238937   0.688   1.944   0.226  0.0815 -0.2577 -2.5163
 5816TIP3   OH238938   5.139   2.594   6.075 -0.1590 -0.1962 -0.2045
 5816TIP3    H138939   5.131   2.555   6.162 -0.5959 -2.2837 -1.1246
 5816TIP3    H238940   5.225   2.568   6.044  0.6213  1.8006  0.1253
 5817TIP3   OH238941   6.284   2.767  16.163  0.0596 -0.4524  0.3796
 5817TIP3    H138942   6.346   2.797  16.096 -0.8736 -1.5570 -1.0229
 5817TIP3    H238943   6.206   2.820  16.148  1.0272  2.0357  3.1122
 5818TIP3   OH238944   1.794   3.646   1.933  0.7366 -0.1680 -0.3182
 5818TIP3    H138945   1.763   3.557   1.946  0.1580  0.1163  0.3221
 5818TIP3    H238946   1.718   3.692   1.897  0.1422  0.7071  1.9103
 5819TIP3   OH238947   6.219   6.139  17.007 -0.0234  0.3222  0.1222
 5819TIP3    H138948   6.149   6.107  16.951  1.0362 -0.2504 -0.9125
 5819TIP3    H238949   6.299   6.125  16.956  1.2191 -2.0325  2.4973
 5820TIP3   OH238950   1.086   2.570   3.793  0.0181  0.0736  0.1502
 5820TIP3    H138951   0.996   2.575   3.762  0.1602  0.2272 -0.2402
 5820TIP3    H238952   1.126   2.501   3.741 -0.3209 -1.1553  1.4678
 5821TIP3   OH238953   1.015   2.434  11.078  0.0231  0.2991 -0.0830
 5821TIP3    H138954   0.990   2.522  11.050  0.6836  0.4035 -0.3770
 5821TIP3    H238955   0.939   2.401  11.126  0.0166  1.2918  0.6259
 5822TIP3   OH238956   5.486   5.833   5.904  0.0415  0.9834  0.5454
 5822TIP3    H138957   5.567   5.865   5.864  1.0045  0.0172  1.6644
 5822TIP3    H238958   5.445   5.911   5.941 -0.2382  1.6965 -1.1425
 5823TIP3   OH238959   0.093   5.520   1.587  0.5060  0.1887  0.0745
 5823TIP3    H138960   0.095   5.436   1.633 -1.5687  1.1933  2.2305
 5823TIP3    H238961   0.166   5.570   1.625  1.6337 -0.5097 -1.0875
 5824TIP3   OH238962   6.553   4.917  14.877 -0.0969  0.4967 -0.0900
 5824TIP3    H138963   6.504   4.991  14.913 -1.1545 -0.6078  0.8700
 5824TIP3    H238964   6.638   4.922  14.920 -0.0587  1.2970 -0.2423
 5825TIP3   OH238965   4.285   1.127   3.427  0.5986 -0.0160 -0.0218
 5825TIP3    H138966   4.196   1.148   3.401  1.1382  0.0617 -1.9753
 5825TIP3    H238967   4.311   1.200   3.484 -0.1782  0.6021 -0.4373
 5826TIP3   OH238968   4.709   4.675   3.524  0.0721 -0.1705 -0.6272
 5826TIP3    H138969   4.760   4.745   3.483  1.2015 -0.5850 -0.0040
 5826TIP3    H238970   4.653   4.719   3.587 -1.3699  0.4319 -2.2690
 5827TIP3   OH238971   2.796   5.241   3.141  0.7163 -0.1549  0.0088
 5827TIP3    H138972   2.803   5.200   3.227 -0.1412 -2.4713 -0.9558
 5827TIP3    H238973   2.874   5.297   3.135  0.5157  0.5131  2.4661
 5828TIP3   OH238974   4.227   1.704  13.287  0.0689  0.3621 -0.5944
 5828TIP3    H138975   4.142   1.720  13.246 -1.5798  2.5492  3.0876
 5828TIP3    H238976   4.250   1.615  13.261 -2.9986 -0.0820 -2.3182
 5829TIP3   OH238977   1.214   4.762   1.635  0.3302  0.8908  0.1212
 5829TIP3    H138978   1.288   4.714   1.672  0.3023  0.7692  0.0205
 5829TIP3    H238979   1.200   4.835   1.696  1.1896  1.5092 -0.4082
 5830TIP3   OH238980   4.218   6.632  13.675  0.4019  0.2409 -0.1648
 5830TIP3    H138981   4.135   6.672  13.701  0.1383  1.0398 -2.0237
 5830TIP3    H238982   4.203   6.604  13.584  1.6468 -1.1461  0.0095
 5831TIP3   OH238983   2.676   3.375  14.330  0.1132 -0.2947 -0.0204
 5831TIP3    H138984   2.658   3.339  14.243 -1.9959  1.5499 -0.4518
 5831TIP3    H238985   2.616   3.328  14.389  0.8015 -0.8241  0.2646
 5832TIP3   OH238986   2.371   6.452  15.546  0.5855 -0.4708  0.3478
 5832TIP3    H138987   2.454   6.421  15.510  1.4806  1.2701  0.7793
 5832TIP3    H238988   2.396   6.516  15.612 -1.1071  0.7769 -0.1361
 5833TIP3   OH238989   2.752   0.231   4.607  0.0178 -0.5084  0.7022
 5833TIP3    H138990   2.820   0.244   4.541 -0.7285 -0.9937 -0.1994
 5833TIP3    H238991   2.793   0.256   4.690  1.7619 -2.1778  0.4091
 5834TIP3   OH238992   5.237   1.872  17.134  0.2018  0.8310 -0.4835
 5834TIP3    H138993   5.255   1.896  17.043  1.6938 -2.1355 -1.0969
 5834TIP3    H238994   5.167   1.807  17.129 -0.7267  1.7012  0.6607
 5835TIP3   OH238995   5.895   1.523  15.696  0.2815 -0.0113 -0.1585
 5835TIP3    H138996   5.879   1.428  15.692 -1.0252  0.2201 -1.2165
 5835TIP3    H238997   5.891   1.544  15.789  1.9568 -1.1819  0.2400
 5836TIP3   OH238998   4.261   4.062   3.884  0.2143  0.4579 -0.5448
 5836TIP3    H138999   4.311   4.135   3.921  0.4670  0.0578 -0.0883
 5836TIP3    H239000   4.191   4.047   3.948  1.6067 -1.3093  0.6697
 5837TIP3   OH239001   6.685   5.381   0.995  0.0738  0.1556  0.1113
 5837TIP3    H139002   6.750   5.311   1.004 -0.9499 -0.7380  0.7905
 5837TIP3    H239003   6.661   5.403   1.085  0.6335  1.6640 -0.0704
 5838TIP3   OH239004   1.613   2.782  12.421  0.6959 -0.0388 -0.1532
 5838TIP3    H139005   1.584   2.864  12.462  1.4432  0.9903 -1.5655
 5838TIP3    H239006   1.705   2.774  12.448  0.7694 -0.1337 -0.4321
 5839TIP3   OH239007   0.110   6.695   0.091  0.1486  0.0392  0.4847
 5839TIP3    H139008   0.066   6.641   0.024 -1.1379  1.1310  0.3897
 5839TIP3    H239009   0.040   6.719   0.151  1.3890 -1.3615  2.5897
 5840TIP3   OH239010   1.149   1.430  16.785  0.6024  0.3084  0.0471
 5840TIP3    H139011   1.209   1.446  16.858  0.4276 -0.1103  0.2835
 5840TIP3    H239012   1.063   1.455  16.820  0.6145  0.7701 -0.2433
 5841TIP3   OH239013   3.273   1.519   4.413  0.4999 -0.3558  0.1378
 5841TIP3    H139014   3.215   1.494   4.485 -1.1402 -2.3133 -1.7299
 5841TIP3    H239015   3.302   1.435   4.376  0.0329  0.5383 -2.4159
 5842TIP3   OH239016   0.390   1.741   1.258  0.4566 -0.0438 -0.0155
 5842TIP3    H139017   0.403   1.731   1.352 -1.5256 -1.1017  0.1918
 5842TIP3    H239018   0.437   1.822   1.236  1.1515  0.0919  1.8191
 5843TIP3   OH239019   0.069   5.683  13.375 -0.1455  0.7516  0.0906
 5843TIP3    H139020   0.149   5.639  13.405  0.5844  1.6153 -0.5284
 5843TIP3    H239021   0.000   5.617  13.385  0.6292  0.0054  0.6854
 5844TIP3   OH239022   1.877   6.238   4.755  0.2738 -0.0884 -0.0681
 5844TIP3    H139023   1.895   6.146   4.771  0.9382  0.1942  0.9108
 5844TIP3    H239024   1.930   6.261   4.679 -0.9570 -0.8349 -1.1865
 5845TIP3   OH239025   4.324   1.365  10.325 -0.1414  0.0394  0.2103
 5845TIP3    H139026   4.313   1.276  10.360  1.3457 -1.9522 -3.7863
 5845TIP3    H239027   4.418   1.375  10.312 -0.3395  1.9629 -0.0298
 5846TIP3   OH239028   1.292   6.156  11.500 -0.0943  0.1088  0.5925
 5846TIP3    H139029   1.300   6.195  11.587  2.0998  3.3402 -0.8399
 5846TIP3    H239030   1.302   6.230  11.440 -0.9633 -2.0461 -2.4377
 5847TIP3   OH239031   1.360   0.197   4.020  0.2521  0.2633 -0.2798
 5847TIP3    H139032   1.397   0.276   4.060  0.5912 -0.2003  0.3400
 5847TIP3    H239033   1.387   0.126   4.079  0.1526 -0.3427 -0.9609
 5848TIP3   OH239034   1.305   1.612  14.738 -0.3506  0.4103 -0.2512
 5848TIP3    H139035   1.269   1.527  14.713 -0.6271  0.4982 -0.1659
 5848TIP3    H239036   1.395   1.611  14.707 -0.2306 -0.0673  0.0933
 5849TIP3   OH239037   0.601   2.185   0.944  0.5569 -0.0144 -0.1151
 5849TIP3    H139038   0.663   2.209   1.012  0.5361 -0.0270 -0.0918
 5849TIP3    H239039   0.525   2.241   0.961  1.5718  2.0032 -1.7578
 5850TIP3   OH239040   2.761   5.917   1.905  0.0171 -0.7147 -0.7791
 5850TIP3    H139041   2.667   5.932   1.896  0.1501 -0.5369 -2.1719
 5850TIP3    H239042   2.770   5.823   1.918 -0.3031 -0.9323 -2.0022
 5851TIP3   OH239043   1.238   3.864   3.138 -0.3927  0.0447  0.3876
 5851TIP3    H139044   1.247   3.821   3.223 -2.1052 -0.1720  0.4802
 5851TIP3    H239045   1.150   3.842   3.108  0.0992  0.2850 -1.3656
 5852TIP3   OH239046   6.789   1.901  15.610 -0.0748  0.2061 -0.2263
 5852TIP3    H139047   6.730   1.832  15.639 -0.5713  0.6995 -0.0479
 5852TIP3    H239048   6.735   1.958  15.556 -0.1948  1.5274  1.2062
 5853TIP3   OH239049   0.062   2.888  11.514 -0.0954 -0.4018  0.6281
 5853TIP3    H139050   0.131   2.842  11.465  1.1934  0.3641  1.6534
 5853TIP3    H239051   0.056   2.973  11.471 -0.3899 -0.4597  0.5563
 5854TIP3   OH239052   3.521   6.500   1.695  0.0774  0.0525  0.0987
 5854TIP3    H139053   3.451   6.552   1.655 -2.2290 -1.4013  1.9280
 5854TIP3    H239054   3.524   6.420   1.643  0.2362  0.0296  0.1430
 5855TIP3   OH239055   3.754   5.793   4.205  0.2288 -0.3855 -0.2683
 5855TIP3    H139056   3.668   5.752   4.196  0.4958 -1.1099  0.3513
 5855TIP3    H239057   3.816   5.722   4.192  0.7198 -0.0484  0.1894
 5856TIP3   OH239058   2.585   5.788   1.285 -0.0640 -0.0303  0.6020
 5856TIP3    H139059   2.585   5.759   1.194 -0.1308  0.2985  0.4979
 5856TIP3    H239060   2.605   5.708   1.335 -0.2635 -0.2609  0.3180
 5857TIP3   OH239061   5.628   5.176   3.783 -0.3076  0.2361  0.1933
 5857TIP3    H139062   5.715   5.153   3.749 -0.5550  0.7231 -0.8098
 5857TIP3    H239063   5.647   5.235   3.856  0.2190  2.5064 -1.6509
 5858TIP3   OH239064   0.689   3.577  16.014  0.4970 -0.3678 -0.1895
 5858TIP3    H139065   0.612   3.523  15.997  0.7005 -0.6883 -0.0971
 5858TIP3    H239066   0.746   3.564  15.938 -0.3701  1.3654 -1.1862
 5859TIP3   OH239067   0.906   6.584  12.297  0.3840  0.1430 -0.1023
 5859TIP3    H139068   0.849   6.616  12.366 -0.8200 -0.4381 -0.8048
 5859TIP3    H239069   0.896   6.648  12.226  0.3096 -0.1633 -0.3698
 5860TIP3   OH239070   0.988   5.831   1.748  0.3235  0.1763  0.0020
 5860TIP3    H139071   1.048   5.876   1.808  0.7229  0.5621 -0.6705
 5860TIP3    H239072   0.911   5.810   1.802  1.2176 -0.7082  0.9874
 5861TIP3   OH239073   2.755   3.574   1.774  0.6582  0.1806 -0.0458
 5861TIP3    H139074   2.836   3.560   1.726 -0.8341 -0.7120 -2.4859
 5861TIP3    H239075   2.725   3.486   1.798 -0.3609  0.3605 -0.5924
 5862TIP3   OH239076   5.663   3.057  17.055  0.2042  0.0865 -0.0111
 5862TIP3    H139077   5.672   2.987  16.991  0.8485 -0.4077  0.5963
 5862TIP3    H239078   5.597   3.025  17.117  1.6392 -0.7178  1.1638
 5863TIP3   OH239079   6.528   2.897  15.681  0.0578 -0.4647  0.5862
 5863TIP3    H139080   6.608   2.872  15.635 -1.3153 -1.6848 -1.3048
 5863TIP3    H239081   6.465   2.828  15.660 -2.2939  1.7697 -0.3133
 5864TIP3   OH239082   3.416   3.722   6.027 -0.3566  0.1323  0.3680
 5864TIP3    H139083   3.370   3.799   5.993 -0.6441  0.0487  0.5577
 5864TIP3    H239084   3.346   3.659   6.047 -0.0066 -1.0811 -1.9209
 5865TIP3   OH239085   4.404   3.231  17.208 -0.1748 -0.1766 -0.2722
 5865TIP3    H139086   4.367   3.275  17.284 -0.6220  0.0002 -0.5903
 5865TIP3    H239087   4.433   3.301  17.150 -1.6821 -0.2542 -1.1745
 5866TIP3   OH239088   5.035   2.723  12.150  0.0497 -0.2538  0.0821
 5866TIP3    H139089   4.955   2.766  12.120 -0.1945 -0.5109  0.3643
 5866TIP3    H239090   5.106   2.779  12.116 -0.1761 -0.9925 -1.7302
 5867TIP3   OH239091   3.220   5.474  14.040 -0.1186  0.4266 -0.0564
 5867TIP3    H139092   3.259   5.552  14.080  1.6337 -0.6830  0.5537
 5867TIP3    H239093   3.271   5.401  14.075 -1.2246 -0.9515 -1.1571
 5868TIP3   OH239094   3.160   0.034   5.459 -0.2726  0.0500  0.3472
 5868TIP3    H139095   3.153  -0.055   5.425  3.2384 -1.5879  3.2131
 5868TIP3    H239096   3.216   0.080   5.397 -1.6265  0.1455 -0.8424
 5869TIP3   OH239097   4.961   1.621  11.710 -0.0279 -0.0147  0.0619
 5869TIP3    H139098   4.894   1.617  11.779 -1.2444  1.0807 -1.0051
 5869TIP3    H239099   5.023   1.686  11.742 -0.0501 -0.2414  0.5756
 5870TIP3   OH239100   3.656   1.941   5.296 -0.4126 -0.1368 -0.3999
 5870TIP3    H139101   3.673   2.035   5.286 -1.2739  0.0335 -0.3598
 5870TIP3    H239102   3.637   1.930   5.389 -0.7725 -0.2677 -0.4864
 5871TIP3   OH239103   0.098   0.686   3.008 -0.2937 -0.9819  0.4403
 5871TIP3    H139104   0.051   0.607   3.034 -2.1070  0.0774  0.6116
 5871TIP3    H239105   0.119   0.730   3.090 -1.4397 -0.1521  0.3184
 5872TIP3   OH239106   3.646   1.422  15.691 -0.0021 -0.0946  0.0142
 5872TIP3    H139107   3.615   1.483  15.624  0.6687 -0.5238 -0.7120
 5872TIP3    H239108   3.567   1.376  15.721 -0.3819  0.4824 -0.0881
 5873TIP3   OH239109   3.995   0.797   1.860  0.2764  1.3024  0.1539
 5873TIP3    H139110   3.931   0.828   1.796 -0.1382 -1.4940 -0.9137
 5873TIP3    H239111   4.030   0.716   1.823  4.5476  2.6757  0.6841
 5874TIP3   OH239112   4.628   2.678   6.341 -0.3334 -0.1414 -0.1751
 5874TIP3    H139113   4.679   2.618   6.288 -1.0854 -0.8388 -0.1325
 5874TIP3    H239114   4.652   2.765   6.310 -0.9771 -0.5339 -1.8790
 5875TIP3   OH239115   0.786   5.391   3.392  0.1063 -0.6139 -0.0276
 5875TIP3    H139116   0.739   5.317   3.431  0.5824 -0.2969  1.2146
 5875TIP3    H239117   0.723   5.463   3.395 -0.6134 -1.1051 -1.9122
 5876TIP3   OH239118   0.792   0.189   0.280 -0.0417  0.3814 -0.3926
 5876TIP3    H139119   0.826   0.099   0.273  0.4507  0.4614  0.8156
 5876TIP3    H239120   0.705   0.184   0.242  0.0973 -0.5418 -0.6229
 5877TIP3   OH239121   5.838   1.227   3.599 -0.1779 -0.9700 -0.4573
 5877TIP3    H139122   5.922   1.262   3.627 -0.9526  0.0602  0.6903
 5877TIP3    H239123   5.835   1.241   3.505  0.4440  0.0547 -0.3292
 5878TIP3   OH239124   5.611   2.651   0.628 -0.6577  0.2270  0.0993
 5878TIP3    H139125   5.523   2.616   0.637  0.3063 -1.9693  2.1331
 5878TIP3    H239126   5.666   2.590   0.678  1.8924  1.9805 -0.3868
 5879TIP3   OH239127   2.052   0.700   1.808 -0.3799  0.3218 -0.3998
 5879TIP3    H139128   2.068   0.636   1.738 -0.2203 -0.7788  0.6085
 5879TIP3    H239129   1.962   0.730   1.793 -0.3307  0.1249 -1.0983
 5880TIP3   OH239130   5.454   1.225  15.653 -0.5376  0.1649  0.5965
 5880TIP3    H139131   5.533   1.235  15.599 -0.0374 -0.4240  1.1945
 5880TIP3    H239132   5.481   1.253  15.740 -0.7067 -0.9357  1.0214
 5881TIP3   OH239133   1.870   3.280   2.670 -0.5126  0.0391  0.1408
 5881TIP3    H139134   1.793   3.251   2.719 -0.8795  0.6461 -0.0688
 5881TIP3    H239135   1.839   3.290   2.580 -0.2139  0.3769  0.0752
 5882TIP3   OH239136   1.298   1.979  13.559 -0.3832 -0.1738 -0.2281
 5882TIP3    H139137   1.348   1.994  13.639 -2.2137 -0.1188  0.9526
 5882TIP3    H239138   1.299   1.884  13.547 -1.0434 -0.2877  0.5218
 5883TIP3   OH239139   6.557   1.631  13.102 -0.4560  0.6562  0.4673
 5883TIP3    H139140   6.474   1.662  13.066  0.7188  4.1208  0.3366
 5883TIP3    H239141   6.591   1.705  13.151  2.8947 -0.3485 -0.0719
 5884TIP3   OH239142   2.863   5.500   3.419  0.6817  0.1311  0.2806
 5884TIP3    H139143   2.777   5.466   3.444  0.4104  0.1840 -0.5568
 5884TIP3    H239144   2.896   5.437   3.355  0.7902  0.6842 -0.2162
 5885TIP3   OH239145   5.973   6.398  16.081  0.2904  0.1500  0.0407
 5885TIP3    H139146   5.917   6.425  16.008  0.2352  0.0715  0.0525
 5885TIP3    H239147   5.973   6.473  16.140 -1.0087 -0.3900  0.7606
 5886TIP3   OH239148   3.325   3.036   3.446  0.7702  0.1001 -0.5308
 5886TIP3    H139149   3.289   2.967   3.389  2.8941 -0.6406 -1.0604
 5886TIP3    H239150   3.289   3.016   3.532  1.0645 -1.4970 -0.7443
 5887TIP3   OH239151   1.425   2.469  14.778  0.0823  0.3762 -0.2895
 5887TIP3    H139152   1.472   2.389  14.750  1.6234  0.6867  1.2158
 5887TIP3    H239153   1.417   2.520  14.698  0.0168 -0.8265 -1.0893
 5888TIP3   OH239154   4.605   2.189   5.372 -0.3579 -0.4005  0.3021
 5888TIP3    H139155   4.569   2.190   5.283 -1.1722 -1.5705  0.5964
 5888TIP3    H239156   4.576   2.272   5.411 -0.7960 -0.3071 -0.2151
 5889TIP3   OH239157   0.619   0.339   2.554  0.0621  0.3090  0.2373
 5889TIP3    H139158   0.594   0.423   2.591  0.5745  0.4691  0.2277
 5889TIP3    H239159   0.558   0.276   2.592 -0.1157  0.6363  0.4929
 5890TIP3   OH239160   6.587   6.778  12.418 -0.0935  1.1599  0.2941
 5890TIP3    H139161   6.495   6.752  12.422  0.5234 -1.2872  0.7313
 5890TIP3    H239162   6.623   6.749  12.502  1.4743  0.2151 -0.6675
 5891TIP3   OH239163   6.615   0.177  14.255 -0.0689 -0.3482 -0.5708
 5891TIP3    H139164   6.677   0.250  14.249  0.9835 -1.2979 -2.1544
 5891TIP3    H239165   6.560   0.187  14.178 -0.0202 -1.1171 -0.7150
 5892TIP3   OH239166   5.195   5.661   0.509 -0.1043 -0.2057 -0.6293
 5892TIP3    H139167   5.290   5.671   0.522  0.0965  0.3909 -2.3665
 5892TIP3    H239168   5.181   5.567   0.509  0.2403 -0.3011  1.0485
 5893TIP3   OH239169   2.042   3.542   5.608 -0.2952  0.3909  0.6410
 5893TIP3    H139170   2.086   3.590   5.677 -0.3198 -0.0168  0.9456
 5893TIP3    H239171   2.056   3.450   5.630  3.0985  0.0882 -1.9787
 5894TIP3   OH239172   5.934   6.054   5.363 -0.3350 -0.0883 -0.1769
 5894TIP3    H139173   5.968   6.144   5.360  0.3922 -0.3516 -0.0899
 5894TIP3    H239174   5.935   6.031   5.456 -0.7159 -0.1129 -0.1799
 5895TIP3   OH239175   5.817   0.207  15.250  0.0751 -0.0279  0.4830
 5895TIP3    H139176   5.759   0.188  15.176 -0.7766  0.9476  0.8749
 5895TIP3    H239177   5.816   0.303  15.257  0.4169 -0.0894  1.5469
 5896TIP3   OH239178   2.682   4.950   3.158 -0.1421 -0.1611  0.4691
 5896TIP3    H139179   2.677   4.904   3.074 -1.8372  0.3434  0.2532
 5896TIP3    H239180   2.691   5.042   3.134 -0.0147 -0.0707  0.8606
 5897TIP3   OH239181   1.880   4.712   4.964 -0.1373 -0.2740 -0.0167
 5897TIP3    H139182   1.916   4.784   4.913 -1.1366 -0.1297 -0.5496
 5897TIP3    H239183   1.848   4.650   4.898 -0.6913 -0.4780  0.4351
 5898TIP3   OH239184   2.763   3.218   1.649  0.3256  0.4347  0.7654
 5898TIP3    H139185   2.735   3.302   1.614 -0.7107 -0.4497 -0.6288
 5898TIP3    H239186   2.808   3.176   1.576  0.8359 -0.2267  1.4450
 5899TIP3   OH239187   1.961   1.320   6.512 -0.2736  0.1283 -0.1896
 5899TIP3    H139188   2.027   1.375   6.554 -0.9822  1.2441 -0.4962
 5899TIP3    H239189   1.890   1.314   6.576 -0.4369  0.0543 -0.3734
 5900TIP3   OH239190   6.542   2.096   4.627 -0.0642  0.0394 -0.5505
 5900TIP3    H139191   6.464   2.126   4.580  0.5910  0.6524 -1.2840
 5900TIP3    H239192   6.534   2.134   4.714  0.5347  2.1122 -1.3232
 5901TIP3   OH239193   6.649   6.260   5.650  0.1298  0.0264  0.3626
 5901TIP3    H139194   6.709   6.262   5.575  0.0123 -1.3486  0.2032
 5901TIP3    H239195   6.631   6.352   5.669  0.9444  0.4194 -0.6668
 5902TIP3   OH239196   3.262   6.105  15.779  0.0487  0.0660  0.0371
 5902TIP3    H139197   3.262   6.160  15.857  0.5024  2.6831 -1.6524
 5902TIP3    H239198   3.323   6.148  15.719 -0.6938 -1.4778 -1.9828
 5903TIP3   OH239199   3.745   2.919   0.262 -0.0813 -0.4442 -0.1374
 5903TIP3    H139200   3.807   2.979   0.221 -1.0145  0.2353 -0.5939
 5903TIP3    H239201   3.667   2.924   0.207 -0.5328 -1.2978  0.4083
 5904TIP3   OH239202   4.708   0.404   0.492 -0.6364  0.1071  0.5052
 5904TIP3    H139203   4.678   0.449   0.571 -1.8402 -0.9484  0.6859
 5904TIP3    H239204   4.787   0.451   0.465 -2.5365  3.2084 -0.1131
 5905TIP3   OH239205   2.737   3.679   0.765 -0.6839 -0.2784  0.0201
 5905TIP3    H139206   2.672   3.647   0.702 -1.3081  0.4294  0.2795
 5905TIP3    H239207   2.700   3.658   0.850  0.4051 -1.7011  0.1716
 5906TIP3   OH239208   4.795   3.454   0.262  0.5332  0.6529 -0.2503
 5906TIP3    H139209   4.825   3.545   0.254  0.0289  0.8021 -0.5451
 5906TIP3    H239210   4.752   3.436   0.178 -0.4747  0.5731  0.2589
 5907TIP3   OH239211   4.743   0.848  14.860  0.1436 -0.0971  0.0281
 5907TIP3    H139212   4.657   0.811  14.838  0.2484 -0.6960  0.6058
 5907TIP3    H239213   4.797   0.831  14.782 -0.0406 -0.4335 -0.0298
 5908TIP3   OH239214   3.971   4.647  12.023  0.1480  0.2764  0.8671
 5908TIP3    H139215   3.980   4.713  11.954  1.1070  0.2007  0.9016
 5908TIP3    H239216   3.906   4.684  12.083 -2.8189 -0.8515 -1.4216
 5909TIP3   OH239217   5.377   2.342   5.061 -0.5556 -0.4325  0.3105
 5909TIP3    H139218   5.377   2.320   5.154 -0.5313  1.4578  0.8153
 5909TIP3    H239219   5.407   2.433   5.059 -0.5136 -0.4578 -1.5574
 5910TIP3   OH239220   5.664   6.170   6.062 -0.3247  0.3127  0.8463
 5910TIP3    H139221   5.577   6.131   6.066 -1.0471  2.0008  2.7097
 5910TIP3    H239222   5.690   6.181   6.153  1.0317  1.6186  0.3390
 5911TIP3   OH239223   5.180   3.035  11.775  0.4043  0.2074  0.4632
 5911TIP3    H139224   5.150   2.944  11.772 -0.4118  0.4879 -0.3789
 5911TIP3    H239225   5.118   3.082  11.720  1.2957  1.1457  0.2404
 5912TIP3   OH239226   6.257   2.462  12.899  0.2971 -0.4128 -0.0954
 5912TIP3    H139227   6.294   2.511  12.825 -0.4681  1.2090  0.5538
 5912TIP3    H239228   6.279   2.370  12.880  2.7116  0.2484 -0.8314
 5913TIP3   OH239229   1.503   4.948  14.174  0.0775 -0.1677 -0.4747
 5913TIP3    H139230   1.447   4.971  14.248 -0.7539 -0.4122 -1.0082
 5913TIP3    H239231   1.591   4.970  14.203 -0.4317  1.5898 -0.1406
 5914TIP3   OH239232   3.088   3.395  11.147  0.1680  0.0797 -0.4475
 5914TIP3    H139233   3.071   3.306  11.116  1.0744 -0.0884 -0.4893
 5914TIP3    H239234   3.183   3.404  11.142  0.1305  0.8539  0.1077
 5915TIP3   OH239235   6.156   0.210   0.402 -0.5243  0.2066 -0.2760
 5915TIP3    H139236   6.126   0.267   0.473  1.0414  0.8267 -0.0688
 5915TIP3    H239237   6.076   0.179   0.361 -1.4472  1.9360  0.1098
 5916TIP3   OH239238   0.370   3.789   2.098  0.1872 -0.3361  0.1864
 5916TIP3    H139239   0.416   3.803   2.180  1.1614  1.6802 -0.6257
 5916TIP3    H239240   0.385   3.697   2.077  1.9176 -0.3052  1.0955
 5917TIP3   OH239241   1.559   1.893   3.574 -0.1837  0.0907  0.0477
 5917TIP3    H139242   1.563   1.798   3.557  1.7044  0.0450  0.5074
 5917TIP3    H239243   1.577   1.901   3.667  0.5297  0.9415 -0.1574
 5918TIP3   OH239244   6.371   3.939  13.040 -0.3004 -0.1079  0.6232
 5918TIP3    H139245   6.318   4.015  13.014  0.6232  0.7572  1.1647
 5918TIP3    H239246   6.462   3.970  13.033  0.1675 -1.6171 -0.4884
 5919TIP3   OH239247   6.044   3.471   5.971  0.1048 -0.4977 -0.2544
 5919TIP3    H139248   5.999   3.501   6.049 -0.3936  0.4430 -0.8885
 5919TIP3    H239249   6.132   3.507   5.979 -0.2366  0.4243 -0.5955
 5920TIP3   OH239250   2.881   6.092  13.524 -0.0083  0.2505  0.6140
 5920TIP3    H139251   2.832   6.171  13.499 -0.3934  0.2025  1.1892
 5920TIP3    H239252   2.814   6.024  13.531  0.4730 -0.4805 -1.1931
 5921TIP3   OH239253   1.175   6.059   5.811  0.3258  0.6288 -0.1220
 5921TIP3    H139254   1.265   6.041   5.838  1.0874 -0.3451 -3.0061
 5921TIP3    H239255   1.133   5.973   5.805  0.0402  0.8295 -1.3737
 5922TIP3   OH239256   2.288   5.898   4.827 -0.2692 -0.6720  0.0897
 5922TIP3    H139257   2.313   5.990   4.826  0.9303 -0.9818  0.3297
 5922TIP3    H239258   2.243   5.886   4.911  2.0682 -0.9098  1.3888
 5923TIP3   OH239259   4.940   2.040   2.491 -0.4818  0.2360  0.2918
 5923TIP3    H139260   4.917   2.109   2.428  0.2710 -1.8896 -2.5197
 5923TIP3    H239261   4.914   2.076   2.576  0.2771  4.1306 -0.9074
 5924TIP3   OH239262   2.660   3.680  15.532  0.4993 -0.2174  0.5163
 5924TIP3    H139263   2.706   3.635  15.462 -1.1124  0.7160 -1.2389
 5924TIP3    H239264   2.727   3.732  15.576  1.2132  0.9229 -1.7974
 5925TIP3   OH239265   6.469   6.019  14.557 -0.1521 -0.2863 -0.5556
 5925TIP3    H139266   6.558   6.032  14.590 -0.2130  1.2757 -0.9040
 5925TIP3    H239267   6.417   5.997  14.634  0.2787  0.1803 -0.1282
 5926TIP3   OH239268   4.644   1.917   3.135 -0.5681  0.3679 -0.1287
 5926TIP3    H139269   4.621   1.932   3.227 -0.6750  0.8018 -0.2223
 5926TIP3    H239270   4.678   2.001   3.105 -1.1034  0.4110 -0.6546
 5927TIP3   OH239271   3.312   2.419   5.560 -0.0758  0.4419 -1.0100
 5927TIP3    H139272   3.330   2.512   5.542 -0.5397  0.9786  0.9713
 5927TIP3    H239273   3.220   2.417   5.585 -0.0572 -0.5400 -1.0095
 5928TIP3   OH239274   1.692   4.921  16.738  0.8368 -0.4942  0.3243
 5928TIP3    H139275   1.774   4.971  16.734 -0.0745  1.1474  0.9749
 5928TIP3    H239276   1.661   4.934  16.827 -0.5075 -0.4561 -0.1276
 5929TIP3   OH239277   1.934   3.866   0.285  0.3211  0.1108 -0.4535
 5929TIP3    H139278   2.025   3.841   0.301 -0.1553 -0.8617  0.9013
 5929TIP3    H239279   1.927   3.954   0.322  0.5712 -0.0512 -0.0097
 5930TIP3   OH239280   4.253   3.421  11.975 -0.3462  0.3839  0.1339
 5930TIP3    H139281   4.273   3.512  11.994  2.1706 -0.1017  0.1790
 5930TIP3    H239282   4.195   3.424  11.900  1.1975  2.0105 -1.0626
 5931TIP3   OH239283   2.230   6.265  14.334  0.9516 -0.1909  0.0455
 5931TIP3    H139284   2.290   6.198  14.365  0.4993 -0.5281  0.2045
 5931TIP3    H239285   2.228   6.330  14.405 -0.6715 -1.3338  1.1235
 5932TIP3   OH239286   0.722   0.601  12.750 -0.6516  0.1656 -0.1280
 5932TIP3    H139287   0.652   0.666  12.745  0.0551  0.9212 -0.4664
 5932TIP3    H239288   0.747   0.586  12.659  0.3630  0.7494  0.0291
 5933TIP3   OH239289   0.302   5.343   6.532 -0.2062  0.0307  0.0158
 5933TIP3    H139290   0.365   5.296   6.478  0.4817  0.3497  0.5326
 5933TIP3    H239291   0.258   5.403   6.471  0.1548 -0.0246 -0.3003
 5934TIP3   OH239292   0.321   5.577  12.949 -0.0384 -0.1934  0.0515
 5934TIP3    H139293   0.275   5.624  12.879  1.8943  1.8886  0.0718
 5934TIP3    H239294   0.262   5.584  13.024 -0.2160  1.5304 -0.1913
 5935TIP3   OH239295   5.800   4.063   0.821 -0.4798 -0.1169 -0.2053
 5935TIP3    H139296   5.839   4.002   0.884 -1.6282 -0.3611  0.2857
 5935TIP3    H239297   5.792   4.145   0.870 -0.9476 -0.1771 -0.1827
 5936TIP3   OH239298   3.279   3.284   0.515  0.0608  0.0107 -0.1091
 5936TIP3    H139299   3.319   3.364   0.549 -0.0657 -0.0123  0.0964
 5936TIP3    H239300   3.186   3.292   0.539  0.2732 -0.8031  1.0531
 5937TIP3   OH239301   4.166   3.941  11.465  0.3603 -0.3195 -0.3285
 5937TIP3    H139302   4.145   3.855  11.502  1.1601 -0.6314 -0.5769
 5937TIP3    H239303   4.172   3.999  11.540 -2.6279  0.1012 -0.2881
 5938TIP3   OH239304   6.037   2.847   6.152  0.6516 -0.6706 -0.4809
 5938TIP3    H139305   5.978   2.905   6.199  1.0663 -0.7994  0.2115
 5938TIP3    H239306   5.996   2.834   6.067  0.8645  1.1372 -0.8901
 5939TIP3   OH239307   1.568   6.617  16.252  0.1892 -0.6411 -0.0024
 5939TIP3    H139308   1.561   6.706  16.218  0.5065 -0.8026 -0.5123
 5939TIP3    H239309   1.659   6.610  16.282 -0.3422 -0.1836  1.8229
 5940TIP3   OH239310   4.218   4.733   3.060 -0.0337  0.4987 -0.2453
 5940TIP3    H139311   4.277   4.719   2.985 -1.0388 -1.0199 -0.8014
 5940TIP3    H239312   4.138   4.768   3.021  0.4531  2.5550  0.5039
 5941TIP3   OH239313   3.889   4.689  13.386  0.2082 -0.5287 -0.6290
 5941TIP3    H139314   3.831   4.616  13.405 -2.2412  1.2580 -0.7707
 5941TIP3    H239315   3.932   4.708  13.470 -1.1535 -0.4889  0.0767
 5942TIP3   OH239316   0.427   5.555   6.034  0.2612  0.8878  0.0078
 5942TIP3    H139317   0.446   5.463   6.051  2.2969  1.0348 -1.1960
 5942TIP3    H239318   0.367   5.555   5.960 -0.1465  0.5405  0.3322
 5943TIP3   OH239319   6.740   2.654  11.083 -0.3336 -0.2794 -0.1399
 5943TIP3    H139320   6.792   2.716  11.033  0.4426 -0.9670 -0.2082
 5943TIP3    H239321   6.714   2.587  11.020 -0.0555 -0.7099  0.1961
 5944TIP3   OH239322   6.555   3.381  16.785  1.1783  0.3093  0.0363
 5944TIP3    H139323   6.576   3.474  16.786 -0.9913  0.8502 -0.3774
 5944TIP3    H239324   6.623   3.342  16.729  2.0304  1.6494  0.0916
 5945TIP3   OH239325   4.110   1.059  15.292 -0.1829 -0.1496 -0.1630
 5945TIP3    H139326   4.138   0.981  15.339  0.3647  1.4076  2.2594
 5945TIP3    H239327   4.184   1.081  15.235  0.6896 -0.0193  0.9965
 5946TIP3   OH239328   3.406   5.435  16.427 -0.5765 -0.5364 -0.0133
 5946TIP3    H139329   3.346   5.437  16.353 -0.8231 -0.3104  0.1893
 5946TIP3    H239330   3.352   5.462  16.502 -0.1957 -0.2223  0.1513
 5947TIP3   OH239331   2.267   5.125  11.474 -0.0767 -0.3638  0.0974
 5947TIP3    H139332   2.295   5.090  11.390  0.5289 -1.2695  0.6565
 5947TIP3    H239333   2.236   5.214  11.455  1.5513  0.0370 -0.8318
 5948TIP3   OH239334   5.046   0.679  17.017 -1.0098 -0.9107 -0.1576
 5948TIP3    H139335   5.085   0.637  16.941 -0.7831 -1.4390  0.2385
 5948TIP3    H239336   5.063   0.618  17.089  0.5194  0.4518  0.7168
 5949TIP3   OH239337   1.468   5.760   1.722 -0.1949  0.4355 -0.0260
 5949TIP3    H139338   1.394   5.723   1.674  0.3175 -0.4879 -0.1337
 5949TIP3    H239339   1.444   5.748   1.814 -0.3673  0.5280 -0.0579
 5950TIP3   OH239340   1.988   6.754   3.058  0.1907  0.2854 -0.3206
 5950TIP3    H139341   1.964   6.668   3.092  1.1569 -0.8671 -2.3283
 5950TIP3    H239342   2.036   6.796   3.129  1.4898 -1.6937  0.0763
 5951TIP3   OH239343   1.121   2.204   4.232 -0.1034 -0.6136  0.5098
 5951TIP3    H139344   1.084   2.252   4.158  0.8546  0.6227  0.8079
 5951TIP3    H239345   1.079   2.118   4.227 -3.2699  0.7455  1.0091
 5952TIP3   OH239346   4.029   4.883   1.555 -0.5390 -0.2196  0.0361
 5952TIP3    H139347   4.032   4.808   1.496  0.3610  0.4226 -0.7692
 5952TIP3    H239348   4.047   4.847   1.641 -2.3866 -1.2569  0.0415
 5953TIP3   OH239349   2.835   6.591   2.225 -0.2815 -0.2332  0.3698
 5953TIP3    H139350   2.901   6.548   2.170  0.7059 -1.4867  2.4117
 5953TIP3    H239351   2.885   6.654   2.277 -1.1763  0.8400 -0.0332
 5954TIP3   OH239352   3.469   3.801   0.795  0.0735  0.0404  0.6647
 5954TIP3    H139353   3.533   3.732   0.775 -0.0398  0.6872 -2.4022
 5954TIP3    H239354   3.517   3.865   0.845  1.9101  0.4506 -1.4646
 5955TIP3   OH239355   1.871   3.203   4.999 -0.5451 -0.4026 -0.3336
 5955TIP3    H139356   1.905   3.290   4.978 -0.8840 -0.1772  0.0314
 5955TIP3    H239357   1.884   3.195   5.094 -0.8347 -0.6042 -0.3088
 5956TIP3   OH239358   2.184   0.489  12.537 -0.7634  0.0835  0.1875
 5956TIP3    H139359   2.165   0.548  12.464 -2.1376  0.8997  1.1504
 5956TIP3    H239360   2.277   0.470  12.529 -0.9431 -0.1360 -1.9694
 5957TIP3   OH239361   1.654   3.600  11.676 -0.3113 -0.1143  0.0379
 5957TIP3    H139362   1.605   3.611  11.595  2.8076 -1.0921 -2.1128
 5957TIP3    H239363   1.610   3.528  11.721 -2.9876  1.3960  0.0660
 5958TIP3   OH239364   5.394   2.569  15.967  0.1102  0.1167 -0.1556
 5958TIP3    H139365   5.400   2.663  15.956  1.6359  0.1436  0.6512
 5958TIP3    H239366   5.414   2.554  16.059 -2.4756 -0.8450  0.3399
 5959TIP3   OH239367   5.042   4.422   0.897  0.1410  0.3764 -0.0617
 5959TIP3    H139368   5.058   4.351   0.959  1.8457  0.2528 -0.5768
 5959TIP3    H239369   4.997   4.381   0.823  2.3276 -0.5506 -0.9748
 5960TIP3   OH239370   3.676   5.731   1.550  0.8326 -0.4347 -0.4010
 5960TIP3    H139371   3.724   5.780   1.617  1.2147 -2.7468  1.1504
 5960TIP3    H239372   3.701   5.772   1.468  2.4904  0.8196  0.6594
 5961TIP3   OH239373   2.013   0.924   6.000 -0.2925 -0.3579  0.1023
 5961TIP3    H139374   1.983   0.902   6.088  0.4604  0.1090  0.4922
 5961TIP3    H239375   2.048   1.013   6.008 -0.6290 -0.1428 -0.7737
 5962TIP3   OH239376   3.379   4.997  10.719 -0.8665  0.1952  0.0899
 5962TIP3    H139377   3.310   4.948  10.674 -1.4014  0.3081  0.7822
 5962TIP3    H239378   3.363   5.088  10.694 -1.4076  0.3048  0.8235
 5963TIP3   OH239379   1.091   2.638   1.304  0.4035 -0.2643  0.0565
 5963TIP3    H139380   1.039   2.714   1.278  0.5972  0.4032  1.5265
 5963TIP3    H239381   1.180   2.659   1.276  0.0123 -1.2655 -2.1653
 5964TIP3   OH239382   3.593   3.233  13.434  0.0252  0.6780  0.3928
 5964TIP3    H139383   3.642   3.223  13.353 -0.9277  1.9783 -0.3787
 5964TIP3    H239384   3.502   3.222  13.409 -0.1653 -2.0870  1.8701
 5965TIP3   OH239385   6.435   6.344   0.922 -0.1833 -0.2140 -0.3277
 5965TIP3    H139386   6.376   6.415   0.946 -0.3073 -0.3756 -0.1579
 5965TIP3    H239387   6.389   6.264   0.948  0.4817 -0.3043  0.6374
 5966TIP3   OH239388   2.288   4.668  12.812 -0.2819 -0.1420 -0.3403
 5966TIP3    H139389   2.259   4.641  12.899  0.3012 -2.5642 -0.8281
 5966TIP3    H239390   2.212   4.656  12.756 -0.9063  2.1931 -0.1041
 5967TIP3   OH239391   5.316   3.651  16.537  0.1271  0.0968  0.5391
 5967TIP3    H139392   5.318   3.626  16.630 -0.0281 -0.2252  0.4561
 5967TIP3    H239393   5.224   3.643  16.512  0.3385 -0.9780  0.0483
 5968TIP3   OH239394   6.518   6.105  13.883  0.3852 -0.3337 -0.8439
 5968TIP3    H139395   6.437   6.056  13.899  0.1313  0.0084 -1.0778
 5968TIP3    H239396   6.547   6.132  13.970 -0.4987  0.7331 -0.8531
 5969TIP3   OH239397   6.691   3.420   3.767  0.3298 -0.4759 -0.1917
 5969TIP3    H139398   6.614   3.370   3.794  0.4795 -0.0435  1.1645
 5969TIP3    H239399   6.759   3.395   3.830  0.0506  2.3290  1.4279
 5970TIP3   OH239400   0.660   6.221  12.673  0.1349  0.1692  0.0506
 5970TIP3    H139401   0.695   6.136  12.644  1.8859  1.0646 -0.6094
 5970TIP3    H239402   0.716   6.246  12.747 -1.2551  0.1436  1.1507
 5971TIP3   OH239403   2.018   2.915   4.269  0.5617  0.0557 -0.1459
 5971TIP3    H139404   1.928   2.921   4.303  0.2839  0.7779 -0.9575
 5971TIP3    H239405   2.070   2.886   4.343 -0.4021 -0.7215  0.2499
 5972TIP3   OH239406   4.534   4.517  16.144  0.3289  0.3581 -0.3474
 5972TIP3    H139407   4.531   4.492  16.236  0.0981  0.3688 -0.3533
 5972TIP3    H239408   4.479   4.596  16.138  0.7555  0.6563 -0.4006
 5973TIP3   OH239409   3.192   1.432   4.872 -0.2878 -0.0786 -0.8592
 5973TIP3    H139410   3.141   1.463   4.796 -0.6435  0.3420 -0.4596
 5973TIP3    H239411   3.160   1.343   4.887 -2.0544  0.6963  0.3235
 5974TIP3   OH239412   2.109   3.804  15.474  0.0744  0.4487  0.5704
 5974TIP3    H139413   2.174   3.789  15.543  1.7944  1.0583 -0.8285
 5974TIP3    H239414   2.153   3.864  15.413 -1.3329 -0.1632 -1.1162
 5975TIP3   OH239415   2.582   5.857   4.278 -0.0093 -0.3469  0.0524
 5975TIP3    H139416   2.521   5.793   4.240 -3.3414  1.7601  1.4399
 5975TIP3    H239417   2.630   5.892   4.203 -2.4554 -0.2053 -1.5550
 5976TIP3   OH239418   5.664   2.207  10.924  0.3987  0.6628  0.0268
 5976TIP3    H139419   5.754   2.173  10.934 -0.2166 -1.9697 -2.0696
 5976TIP3    H239420   5.609   2.129  10.928 -1.5637  1.8942 -1.3467
 5977TIP3   OH239421   1.598   0.086   1.518  0.0812  0.1709  0.1967
 5977TIP3    H139422   1.518   0.139   1.519  0.2328  0.3952  0.6924
 5977TIP3    H239423   1.610   0.058   1.609 -0.2057 -1.0370 -0.1249
 5978TIP3   OH239424   5.638   3.239   5.446 -0.3888  0.0559 -0.1615
 5978TIP3    H139425   5.584   3.203   5.515 -0.5826  0.2977 -0.1841
 5978TIP3    H239426   5.711   3.178   5.437 -0.3651  0.0220  0.2512
 5979TIP3   OH239427   5.982   3.691  14.396 -0.4107 -0.1010 -0.2782
 5979TIP3    H139428   5.961   3.624  14.331  0.7839 -0.4348 -0.3405
 5979TIP3    H239429   5.919   3.675  14.467 -1.4066 -0.0381 -1.1290
 5980TIP3   OH239430   3.527   2.566  14.735 -0.6591 -0.3977  0.2377
 5980TIP3    H139431   3.466   2.614  14.679 -1.1254  1.7917  2.4791
 5980TIP3    H239432   3.614   2.590  14.702 -0.9108 -0.9960 -0.9453
 5981TIP3   OH239433   5.398   3.850   4.412 -0.5939  0.2311  0.0950
 5981TIP3    H139434   5.472   3.911   4.411  0.5508 -1.0794  0.1267
 5981TIP3    H239435   5.439   3.764   4.400 -2.0983 -0.5665  0.4449
 5982TIP3   OH239436   1.864   2.901  11.813  0.4885  0.3653 -0.1881
 5982TIP3    H139437   1.832   2.894  11.903 -0.8871 -0.7482 -0.7143
 5982TIP3    H239438   1.826   2.983  11.781 -0.7107 -0.2411 -0.3608
 5983TIP3   OH239439   1.849   3.573   3.871 -0.1179 -0.1932  0.1863
 5983TIP3    H139440   1.939   3.591   3.843  0.0353 -1.3210 -0.1063
 5983TIP3    H239441   1.838   3.479   3.857  0.0084 -0.9619  4.0438
 5984TIP3   OH239442   1.572   1.456  12.697  0.4981  0.1012 -0.2473
 5984TIP3    H139443   1.625   1.482  12.771  1.3345  0.1245 -0.8419
 5984TIP3    H239444   1.627   1.395  12.648  0.3592  0.8535 -1.3813
 5985TIP3   OH239445   5.136   3.290  16.859  0.8154  0.0875  0.1156
 5985TIP3    H139446   5.226   3.310  16.832  0.6714 -2.2309 -2.6549
 5985TIP3    H239447   5.083   3.314  16.783 -0.4115 -1.8028  0.3138
 5986TIP3   OH239448   3.244   0.783  11.020  0.8737 -0.6051 -0.9790
 5986TIP3    H139449   3.158   0.767  11.057  2.2822 -2.4701  1.8466
 5986TIP3    H239450   3.251   0.720  10.948 -0.4044  0.1963 -1.8392
 5987TIP3   OH239451   0.871   2.023   2.262  0.3716  0.3825 -0.0844
 5987TIP3    H139452   0.782   2.001   2.291  0.4859 -0.1758 -0.1481
 5987TIP3    H239453   0.904   2.081   2.331 -0.2709  1.1172 -0.3870
 5988TIP3   OH239454   0.806   5.002   0.325  0.2772  0.0043  0.7712
 5988TIP3    H139455   0.734   5.060   0.302 -0.3596 -0.9025  0.4024
 5988TIP3    H239456   0.851   4.985   0.243  1.1694  0.8737  1.0601
 5989TIP3   OH239457   6.393   5.669   2.853  0.2344  0.0911  0.7272
 5989TIP3    H139458   6.430   5.588   2.888  0.4502 -0.0856  0.1017
 5989TIP3    H239459   6.455   5.737   2.880 -0.5239  0.2340  2.2358
 5990TIP3   OH239460   2.415   4.247   4.026 -0.2460 -0.6639  0.1245
 5990TIP3    H139461   2.449   4.287   3.946 -1.0752 -0.6409 -0.2225
 5990TIP3    H239462   2.421   4.153   4.010 -0.2279 -0.6612  0.1148
 5991TIP3   OH239463   3.157   5.851   4.813  0.1015  0.1921 -0.1400
 5991TIP3    H139464   3.215   5.926   4.805 -0.1093  0.2693 -1.1035
 5991TIP3    H239465   3.212   5.775   4.795 -0.0060  0.2381 -0.6856
 5992TIP3   OH239466   4.363   4.479  15.131 -0.5426  0.4669 -0.2703
 5992TIP3    H139467   4.320   4.485  15.216 -2.3747 -1.2978 -0.9749
 5992TIP3    H239468   4.293   4.452  15.071  0.9731  0.3412 -2.0810
 5993TIP3   OH239469   1.527   2.867  11.705  0.3538 -0.1197 -0.2341
 5993TIP3    H139470   1.493   2.915  11.781 -0.0915 -0.6991 -0.0586
 5993TIP3    H239471   1.578   2.795  11.742  0.8809  0.1122 -0.4958
 5994TIP3   OH239472   0.561   2.158   3.659  0.5560  0.1708 -0.7272
 5994TIP3    H139473   0.567   2.211   3.579 -0.5223  1.0141 -0.2821
 5994TIP3    H239474   0.472   2.174   3.691  1.3853  0.8849  1.3563
 5995TIP3   OH239475   2.138   0.644  12.934  0.2654  0.0512 -0.1297
 5995TIP3    H139476   2.231   0.642  12.909  0.8513  0.9796  1.7789
 5995TIP3    H239477   2.116   0.737  12.932 -0.2287 -0.0402  0.7465
 5996TIP3   OH239478   5.592   2.548  12.297  0.2873  0.3239 -0.2545
 5996TIP3    H139479   5.543   2.627  12.275 -1.2927 -0.1044  1.5376
 5996TIP3    H239480   5.599   2.501  12.214 -2.6676  0.2527 -0.5729
 5997TIP3   OH239481   4.914   6.746  11.437 -0.0183 -0.2635 -0.5518
 5997TIP3    H139482   4.859   6.761  11.360  0.1817  1.5717 -0.3841
 5997TIP3    H239483   4.935   6.834  11.469 -0.5261 -0.9546  1.9212
 5998TIP3   OH239484   1.184   5.799   1.146 -0.2491  0.1409 -0.0962
 5998TIP3    H139485   1.210   5.775   1.235  0.0730  1.5918  0.2375
 5998TIP3    H239486   1.252   5.861   1.118  0.3191 -1.1785 -1.8218
 5999TIP3   OH239487   4.409   0.031  16.953  0.5937 -0.1146 -0.0983
 5999TIP3    H139488   4.421   0.124  16.971  2.9226 -0.4707  0.4231
 5999TIP3    H239489   4.329   0.008  17.002 -0.5163  1.7433 -0.9286
 6000TIP3   OH239490   3.670   3.844  14.087  0.1923 -0.1580 -0.2063
 6000TIP3    H139491   3.685   3.751  14.074  1.0370 -0.2278  1.0161
 6000TIP3    H239492   3.630   3.850  14.174 -1.7788  0.4917 -1.1098
 6001TIP3   OH239493   3.936   6.733  13.461  0.0283  0.8648 -0.4548
 6001TIP3    H139494   4.013   6.676  13.453  0.9967  2.1743 -0.9826
 6001TIP3    H239495   3.944   6.770  13.549 -0.0004  0.9860 -0.5033
 6002TIP3   OH239496   0.591   5.563   1.550 -0.4967  0.0091  0.0122
 6002TIP3    H139497   0.543   5.612   1.483 -1.3416 -1.6348 -0.6501
 6002TIP3    H239498   0.653   5.626   1.587  0.9306  0.6909 -3.2001
 6003TIP3   OH239499   3.424   4.636  10.390  0.4056 -0.8631 -0.3074
 6003TIP3    H139500   3.332   4.656  10.408  0.5283 -0.9924  0.4913
 6003TIP3    H239501   3.461   4.720  10.363  0.4898 -0.3686  1.2505
 6004TIP3   OH239502   5.741   1.696   4.664 -0.0790  0.0558  0.7847
 6004TIP3    H139503   5.739   1.634   4.591 -1.1383  0.9074  0.0611
 6004TIP3    H239504   5.699   1.649   4.736 -0.7028 -0.1404  0.3023
 6005TIP3   OH239505   0.761   0.770  13.134 -0.2277  0.4426  0.2715
 6005TIP3    H139506   0.820   0.843  13.151 -2.0574  1.9743  0.3370
 6005TIP3    H239507   0.695   0.775  13.203 -0.6638 -0.9966 -0.0041
 6006TIP3   OH239508   1.037   4.977   1.284 -0.1658 -0.1031  0.6019
 6006TIP3    H139509   1.019   5.055   1.336  2.4729  0.2215  1.1771
 6006TIP3    H239510   1.099   5.007   1.218  0.1974 -1.5372  0.2609
 6007TIP3   OH239511   0.291   5.640  11.417  0.1757  0.2151  0.3138
 6007TIP3    H139512   0.375   5.644  11.372  0.8051 -0.8329  1.3563
 6007TIP3    H239513   0.236   5.585  11.362  0.6363 -0.2838  0.3548
 6008TIP3   OH239514   5.983   2.556   0.735  0.3275 -0.1362  0.2589
 6008TIP3    H139515   6.035   2.635   0.744  2.7732 -1.8044  2.8458
 6008TIP3    H239516   5.910   2.568   0.796  0.1120  0.4700 -0.1069
 6009TIP3   OH239517   0.682   6.642   1.806 -0.4220  0.3351  0.2409
 6009TIP3    H139518   0.665   6.710   1.740  0.4751  0.1006 -0.2588
 6009TIP3    H239519   0.778   6.640   1.813 -0.4774 -0.2353  0.9356
 6010TIP3   OH239520   3.839   4.443   1.792 -0.2272 -0.6405  0.1522
 6010TIP3    H139521   3.885   4.504   1.735 -1.6034  0.3059 -0.0182
 6010TIP3    H239522   3.746   4.466   1.781 -0.7036 -2.0736  0.8999
 6011TIP3   OH239523   2.245   5.226  14.287 -1.0814  0.5625  0.0804
 6011TIP3    H139524   2.222   5.135  14.309  1.0504  0.2969  1.5588
 6011TIP3    H239525   2.289   5.259  14.365  1.1667  1.7654 -1.5538
 6012TIP3   OH239526   3.377   1.578   0.631  0.3857  0.0084  0.1250
 6012TIP3    H139527   3.321   1.614   0.700  0.0350 -0.2944  0.0072
 6012TIP3    H239528   3.466   1.586   0.665  0.6488  3.6879 -1.0889
 6013TIP3   OH239529   0.615   0.504   2.180 -0.4366 -0.4888  0.3017
 6013TIP3    H139530   0.680   0.519   2.249 -1.8239 -0.1340  1.5874
 6013TIP3    H239531   0.666   0.494   2.100  1.0916  2.1766  0.8418
 6014TIP3   OH239532   6.659   2.705  16.284  0.5877  0.4603 -0.2000
 6014TIP3    H139533   6.752   2.731  16.287  0.5932  0.5863 -1.2390
 6014TIP3    H239534   6.649   2.662  16.199  0.0573 -0.9984  0.5628
 6015TIP3   OH239535   6.292   5.118   6.007  0.4596  0.1403  0.1356
 6015TIP3    H139536   6.280   5.199   5.958  0.5846 -0.1538 -0.3952
 6015TIP3    H239537   6.367   5.135   6.063  1.3383 -0.0356 -0.9391
 6016TIP3   OH239538   3.660   4.954  14.209 -0.6992  0.0414 -0.3975
 6016TIP3    H139539   3.601   5.019  14.248 -1.5554 -0.9314 -0.0476
 6016TIP3    H239540   3.744   4.970  14.252 -0.7130  1.3440 -0.7967
 6017TIP3   OH239541   6.504   6.689  16.698  0.4305 -0.4447  0.4506
 6017TIP3    H139542   6.564   6.616  16.683 -1.6674 -2.7919  2.4381
 6017TIP3    H239543   6.510   6.707  16.792 -0.8761  0.2470  0.4234
 6018TIP3   OH239544   0.041   0.613  14.969  0.5411  0.6405  0.3794
 6018TIP3    H139545   0.010   0.684  14.914 -1.1961 -0.4219 -0.0977
 6018TIP3    H239546   0.046   0.537  14.911 -1.2101 -0.4801  1.5959
 6019TIP3   OH239547   2.044   2.254  15.468 -0.1585 -0.2691  0.0982
 6019TIP3    H139548   1.997   2.241  15.386  2.0942  3.0744 -1.9726
 6019TIP3    H239549   2.130   2.215  15.453 -0.0746 -0.6491  1.3858
 6020TIP3   OH239550   5.744   4.464  10.993  0.3120 -0.3549  0.5390
 6020TIP3    H139551   5.803   4.419  10.933 -0.1697 -0.1405 -0.1077
 6020TIP3    H239552   5.681   4.397  11.019  0.9491 -0.6433  1.4053
 6021TIP3   OH239553   4.986   1.136   2.411 -0.4102 -0.1706 -0.0309
 6021TIP3    H139554   5.006   1.227   2.388  1.3272 -0.4890  0.1049
 6021TIP3    H239555   5.056   1.111   2.472 -1.4944 -1.2616  0.8035
 6022TIP3   OH239556   6.390   4.114   1.941 -0.1269 -0.0286  0.2635
 6022TIP3    H139557   6.465   4.071   1.982  1.7200  2.6261 -0.0518
 6022TIP3    H239558   6.404   4.207   1.958 -1.2514  0.9239 -3.1731
 6023TIP3   OH239559   6.062   4.938   2.165  0.0954  0.1592  0.2334
 6023TIP3    H139560   5.977   4.896   2.173 -0.5211  1.3381  0.0256
 6023TIP3    H239561   6.095   4.911   2.080 -0.5638  0.5684 -0.1562
 6024TIP3   OH239562   1.229   2.571   4.271  0.4504 -0.4454 -0.1250
 6024TIP3    H139563   1.322   2.580   4.249  0.0375 -0.0794 -1.8537
 6024TIP3    H239564   1.184   2.627   4.208 -0.8571  0.7420  1.7590
 6025TIP3   OH239565   1.913   2.623  13.975  0.6548 -0.2267 -0.0753
 6025TIP3    H139566   1.934   2.634  14.068  1.2239 -3.7309  0.3674
 6025TIP3    H239567   1.865   2.702  13.952  2.0938  1.6366  2.6726
 6026TIP3   OH239568   1.603   3.777  16.740 -0.5375 -0.0513 -0.2864
 6026TIP3    H139569   1.666   3.705  16.739  1.5634  1.6662 -1.1689
 6026TIP3    H239570   1.627   3.829  16.817 -0.5249  0.8709 -0.8891
 6027TIP3   OH239571   0.233   0.493   0.928 -0.5046  0.9065  0.9038
 6027TIP3    H139572   0.323   0.504   0.959 -0.0907  0.8016 -0.2137
 6027TIP3    H239573   0.197   0.582   0.930 -0.1049  1.0840  0.5975
 6028TIP3   OH239574   3.935   2.417   4.304  0.0405  0.2665  0.5054
 6028TIP3    H139575   3.851   2.462   4.292 -0.0092  0.1928  0.5795
 6028TIP3    H239576   3.931   2.342   4.244  0.3778  0.7116 -0.0881
 6029TIP3   OH239577   1.732   4.021  14.654  0.0705 -0.0529 -0.2224
 6029TIP3    H139578   1.771   4.009  14.740 -0.6580 -1.0460 -0.0132
 6029TIP3    H239579   1.642   4.050  14.672 -0.2070 -0.6350 -0.6261
 6030TIP3   OH239580   4.797   6.765  13.600  0.4462  1.0598  0.3481
 6030TIP3    H139581   4.711   6.746  13.563  0.9381 -1.6570  0.4045
 6030TIP3    H239582   4.782   6.766  13.695  0.9793 -3.6597  0.7193
 6031TIP3   OH239583   0.859   5.399  11.501  0.4343 -0.4232 -0.0597
 6031TIP3    H139584   0.782   5.343  11.493 -0.0167  0.3935 -1.7344
 6031TIP3    H239585   0.858   5.454  11.423  1.9900  0.5286  0.5364
 6032TIP3   OH239586   4.770   4.248   1.490 -0.0259  0.6621  0.1682
 6032TIP3    H139587   4.703   4.292   1.543 -1.7030  0.5479 -1.7334
 6032TIP3    H239588   4.789   4.168   1.538 -2.9615 -0.4182 -0.2712
 6033TIP3   OH239589   2.734   4.874   2.003 -0.5733  0.0972  0.4041
 6033TIP3    H139590   2.698   4.790   2.033  1.5469 -0.7112  0.8733
 6033TIP3    H239591   2.729   4.931   2.079 -1.1581  0.1106  0.3590
 6034TIP3   OH239592   6.201   1.147  13.375 -0.4880  0.1596  0.6645
 6034TIP3    H139593   6.276   1.090  13.356  0.2703  1.4491 -0.4326
 6034TIP3    H239594   6.179   1.128  13.466  1.4320  0.0062  1.1503
 6035TIP3   OH239595   3.845   1.471   5.719 -0.2061 -0.4506 -0.0967
 6035TIP3    H139596   3.861   1.421   5.640 -3.5576  0.4000 -1.4767
 6035TIP3    H239597   3.831   1.405   5.787  0.2646 -1.2276 -0.7428
 6036TIP3   OH239598   6.532   4.245   4.381  0.4204 -0.0666 -0.6298
 6036TIP3    H139599   6.485   4.302   4.442  1.4628 -0.0443  0.2007
 6036TIP3    H239600   6.477   4.241   4.304 -1.6447 -1.2151  0.8162
 6037TIP3   OH239601   6.446   5.846   0.722  0.0454 -0.0925 -0.0802
 6037TIP3    H139602   6.362   5.873   0.759  1.5400  2.6047  1.7100
 6037TIP3    H239603   6.474   5.772   0.776 -1.1210 -1.0318 -0.7107
 6038TIP3   OH239604   3.742   2.148   4.241 -0.0483  0.2161  0.2167
 6038TIP3    H139605   3.765   2.236   4.212  2.8423  0.0764  1.6876
 6038TIP3    H239606   3.784   2.090   4.177 -0.1567 -0.0889  0.4179
 6039TIP3   OH239607   3.913   3.936  10.510  0.6705 -0.0087  0.9449
 6039TIP3    H139608   3.938   3.984  10.589  2.2122  0.5617  0.1487
 6039TIP3    H239609   3.986   3.876  10.495 -0.5843 -1.6494  1.1254
 6040TIP3   OH239610   3.528   6.198  12.974 -0.5083  0.6107 -0.4484
 6040TIP3    H139611   3.552   6.175  13.064  0.5369 -0.7673 -1.0402
 6040TIP3    H239612   3.472   6.275  12.983  1.7833  2.2331  1.2351
 6041TIP3   OH239613   6.323   1.964   3.410  0.0996  0.1555 -0.1637
 6041TIP3    H139614   6.415   1.939   3.423 -0.1847  0.0757  2.0105
 6041TIP3    H239615   6.279   1.935   3.490 -1.8050  0.3314 -1.1107
 6042TIP3   OH239616   2.269   1.156   3.703 -0.7806 -0.7385 -0.2409
 6042TIP3    H139617   2.238   1.086   3.646  0.7687  0.0469 -2.1476
 6042TIP3    H239618   2.293   1.227   3.644  0.4068  0.3300  1.4308
 6043TIP3   OH239619   4.537   6.636  12.048 -0.7159  0.0339  0.0382
 6043TIP3    H139620   4.602   6.612  12.114  0.7987 -2.7948 -2.2575
 6043TIP3    H239621   4.569   6.718  12.012 -0.0287  0.1641  0.9119
 6044TIP3   OH239622   0.991   3.914   5.788 -0.3272  0.5629 -0.4135
 6044TIP3    H139623   0.896   3.920   5.799 -0.2772 -0.1321  0.4797
 6044TIP3    H239624   1.013   3.826   5.817  0.7551  1.1347  0.5751
 6045TIP3   OH239625   4.790   2.850  16.068  0.1477 -0.1278  0.1151
 6045TIP3    H139626   4.795   2.816  15.979 -1.3286  0.8811 -0.3856
 6045TIP3    H239627   4.724   2.919  16.064  2.6783  2.5508  1.1522
 6046TIP3   OH239628   2.765   1.905  11.445  0.3750  0.4008  0.3799
 6046TIP3    H139629   2.806   1.933  11.527 -1.7442 -0.4606  1.7844
 6046TIP3    H239630   2.778   1.811  11.442  0.3953  0.4192 -0.2759
 6047TIP3   OH239631   0.815   0.630  15.596  0.1593 -0.0383 -0.3168
 6047TIP3    H139632   0.810   0.540  15.561  0.2863  0.0997 -0.7013
 6047TIP3    H239633   0.894   0.630  15.649  1.2078  0.3386 -1.8091
 6048TIP3   OH239634   6.455   4.561  15.011 -0.3824  0.2710 -0.2736
 6048TIP3    H139635   6.531   4.571  14.953  0.0778 -0.8188  0.1143
 6048TIP3    H239636   6.470   4.477  15.055 -1.8825 -0.0199 -0.2860
 6049TIP3   OH239637   0.880   6.350   3.817 -0.1946  0.1774 -0.3696
 6049TIP3    H139638   0.788   6.325   3.807 -0.0833 -0.5275  0.3443
 6049TIP3    H239639   0.907   6.313   3.901  0.8010  0.2099 -0.6616
 6050TIP3   OH239640   1.594   1.434   4.057 -0.5113  0.6656 -0.0370
 6050TIP3    H139641   1.614   1.410   4.147 -0.8641  0.0057 -0.1287
 6050TIP3    H239642   1.564   1.353   4.016 -1.4292  1.1851 -0.4398
 6051TIP3   OH239643   5.588   3.650  12.327 -1.2042  0.3859  0.0554
 6051TIP3    H139644   5.623   3.583  12.384 -0.5809  0.4568 -0.2389
 6051TIP3    H239645   5.665   3.695  12.292 -1.6171  1.6769  0.7545
 6052TIP3   OH239646   6.518   3.998   2.504  0.0243  0.0044  0.0358
 6052TIP3    H139647   6.469   4.016   2.424 -1.8882  0.4715  1.2461
 6052TIP3    H239648   6.451   3.989   2.572  1.6711  2.3311  2.1245
 6053TIP3   OH239649   4.455   0.515   5.577 -0.0051 -0.4247 -0.2973
 6053TIP3    H139650   4.388   0.572   5.615  0.5637 -0.5427  0.9099
 6053TIP3    H239651   4.449   0.434   5.627  1.3396 -0.2713  0.1430
 6054TIP3   OH239652   4.605   2.553   0.407 -1.0812 -0.2278  0.0334
 6054TIP3    H139653   4.604   2.649   0.414 -1.3810 -0.3505  2.6267
 6054TIP3    H239654   4.691   2.527   0.438 -1.6953 -0.8380  1.3449
 6055TIP3   OH239655   3.158   1.556  13.367  0.1300 -0.0720 -0.1045
 6055TIP3    H139656   3.097   1.485  13.346 -0.2374 -0.0362  0.8084
 6055TIP3    H239657   3.102   1.628  13.396  0.5636  0.2443 -0.0504
 6056TIP3   OH239658   1.135   4.126  11.127 -0.1439  0.2844  0.3911
 6056TIP3    H139659   1.128   4.160  11.038 -0.7127 -0.1342  0.2745
 6056TIP3    H239660   1.214   4.168  11.162 -0.0058  0.5744 -0.2517
 6057TIP3   OH239661   0.355   5.804   3.051 -0.7401  0.0398 -0.0061
 6057TIP3    H139662   0.268   5.793   3.090 -1.5554  3.3935 -0.5455
 6057TIP3    H239663   0.345   5.773   2.961 -0.6146 -1.8425  0.5785
 6058TIP3   OH239664   2.187   2.111  14.498 -0.4645 -0.5474  0.0857
 6058TIP3    H139665   2.155   2.025  14.526 -0.6459 -1.0118 -1.4668
 6058TIP3    H239666   2.108   2.158  14.474 -0.2860 -0.2689  0.0476
 6059TIP3   OH239667   6.710   6.395   1.110 -0.4302 -0.2257 -0.3242
 6059TIP3    H139668   6.805   6.388   1.106 -0.2642  1.9530 -1.2782
 6059TIP3    H239669   6.678   6.307   1.086  1.2788 -1.7454  2.4466
 6060TIP3   OH239670   2.579   4.711  15.921  0.1155  0.2878 -0.6496
 6060TIP3    H139671   2.566   4.663  15.839 -1.9580  0.2002 -0.3244
 6060TIP3    H239672   2.670   4.739  15.918  0.4922 -0.9614 -2.3085
 6061TIP3   OH239673   4.449   6.567  11.274  0.7571  0.3673  1.0093
 6061TIP3    H139674   4.542   6.547  11.262  0.9068  0.4895  1.9132
 6061TIP3    H239675   4.409   6.482  11.295  0.6218  0.2828  0.4418
 6062TIP3   OH239676   4.897   0.745  12.952  0.0219 -0.0477 -0.3727
 6062TIP3    H139677   4.918   0.780  12.865 -0.2838  0.2081 -0.3448
 6062TIP3    H239678   4.801   0.746  12.955 -0.0013  2.4190  0.9518
 6063TIP3   OH239679   1.882   0.673  10.633 -0.3433 -0.0270  0.5329
 6063TIP3    H139680   1.817   0.672  10.562 -0.4176  0.8221  0.5739
 6063TIP3    H239681   1.963   0.643  10.592 -0.1483  1.3816 -0.1761
 6064TIP3   OH239682   5.823   5.646   0.178  0.1383 -0.4981 -0.0422
 6064TIP3    H139683   5.901   5.673   0.225  0.8905 -1.7052 -0.5485
 6064TIP3    H239684   5.756   5.708   0.205  0.3340 -1.5226  3.1611
 6065TIP3   OH239685   3.330   1.800  16.267 -0.1786  0.4210 -0.1728
 6065TIP3    H139686   3.422   1.826  16.277  0.4388 -0.9657 -1.8438
 6065TIP3    H239687   3.328   1.707  16.290 -0.5283 -0.3373 -2.9577
 6066TIP3   OH239688   3.476   2.888  12.693  0.1696 -0.1843  0.2381
 6066TIP3    H139689   3.444   2.919  12.608  0.1919 -1.0189 -0.0834
 6066TIP3    H239690   3.402   2.898  12.752  1.1804  3.9943  1.1140
 6067TIP3   OH239691   5.781   3.580   0.340 -0.1499 -0.3699 -0.2147
 6067TIP3    H139692   5.746   3.667   0.361  1.8957  0.2028  1.1112
 6067TIP3    H239693   5.845   3.597   0.271 -0.1288 -0.9150 -0.3308
 6068TIP3   OH239694   6.684   1.631  16.327  0.2365  0.3392  0.3505
 6068TIP3    H139695   6.679   1.608  16.420  0.7727 -1.9915 -0.1286
 6068TIP3    H239696   6.618   1.576  16.285  0.1265  1.2276 -0.6693
 6069TIP3   OH239697   3.285   1.839  14.829  0.6686 -0.4653  0.2593
 6069TIP3    H139698   3.277   1.934  14.820 -1.1875 -0.6544 -0.5892
 6069TIP3    H239699   3.267   1.822  14.922  2.6794  0.1101  0.8005
 6070TIP3   OH239700   2.199   4.624  16.230 -0.0142 -0.0366  0.0330
 6070TIP3    H139701   2.190   4.529  16.220  0.3723  0.0464 -1.2275
 6070TIP3    H239702   2.282   4.635  16.276 -0.5311 -0.3254  1.0869
 6071TIP3   OH239703   1.560   1.084   2.647  0.3304  0.4603  0.3053
 6071TIP3    H139704   1.523   1.002   2.678 -1.4128  0.8226 -0.7204
 6071TIP3    H239705   1.559   1.142   2.724  0.5929 -0.1342  0.7642
 6072TIP3   OH239706   3.497   1.930   0.625 -0.2410 -0.7005 -1.1050
 6072TIP3    H139707   3.403   1.930   0.606 -0.3686  1.7014 -0.8001
 6072TIP3    H239708   3.539   1.950   0.541 -0.2255  0.7739 -0.7893
 6073TIP3   OH239709   6.329   1.031  14.833 -0.9487 -0.2859 -0.0964
 6073TIP3    H139710   6.253   1.070  14.876  1.1520  2.3915  1.4451
 6073TIP3    H239711   6.354   0.959  14.891 -1.8764 -0.7846 -0.2861
 6074TIP3   OH239712   0.659   4.530   4.518 -0.1082 -0.8939 -0.2303
 6074TIP3    H139713   0.653   4.570   4.605 -1.5144 -0.7713 -0.3701
 6074TIP3    H239714   0.753   4.520   4.503  0.2086  0.6788  0.5725
 6075TIP3   OH239715   2.855   4.249   1.856 -0.1693 -1.1689  0.3625
 6075TIP3    H139716   2.858   4.235   1.951 -1.1452 -0.2214  0.5570
 6075TIP3    H239717   2.779   4.197   1.827 -2.4580  1.6860  0.7682
 6076TIP3   OH239718   1.837   6.564   5.722  0.0100  0.3519  0.1546
 6076TIP3    H139719   1.744   6.578   5.738 -0.3040 -0.4989 -0.7716
 6076TIP3    H239720   1.882   6.620   5.785 -1.1262  0.2268  1.0979
 6077TIP3   OH239721   6.548   5.148  11.875 -0.1239  0.3444  0.7331
 6077TIP3    H139722   6.513   5.234  11.851 -0.4910 -0.1578 -0.6461
 6077TIP3    H239723   6.606   5.125  11.802 -2.8177 -2.1389 -0.8260
 6078TIP3   OH239724   1.484   2.432   3.721  0.1160  0.6188  0.5517
 6078TIP3    H139725   1.392   2.456   3.710 -0.4294 -0.7728  1.7301
 6078TIP3    H239726   1.524   2.506   3.767  0.0729  2.0452 -1.5563
 6079TIP3   OH239727   3.232   2.648   0.427 -0.4250  0.0199 -0.4403
 6079TIP3    H139728   3.241   2.590   0.352  0.3090  1.8766 -1.8905
 6079TIP3    H239729   3.198   2.729   0.390 -2.4429  0.2223  1.6551
 6080TIP3   OH239730   3.012   1.041  16.557  0.0622 -0.4492  0.0598
 6080TIP3    H139731   3.058   0.979  16.613 -0.4660  0.4068  1.5085
 6080TIP3    H239732   2.938   0.991  16.521  0.1030 -0.8808  0.5614
 6081TIP3   OH239733   5.009   3.026  10.769  0.5957  0.6685  0.1183
 6081TIP3    H139734   5.074   3.043  10.700  0.6300  1.2196  0.2786
 6081TIP3    H239735   5.047   3.063  10.848  1.2961 -1.4372  0.8112
 6082TIP3   OH239736   1.349   1.334   5.796 -0.2315 -0.3301 -0.5209
 6082TIP3    H139737   1.403   1.281   5.855  0.7213  0.5387 -0.5877
 6082TIP3    H239738   1.359   1.293   5.710  1.6628  0.7425 -0.8648
 6083TIP3   OH239739   4.821   6.817  12.244  0.2123 -0.4742 -0.4204
 6083TIP3    H139740   4.879   6.779  12.310 -1.6732 -0.4459  1.3584
 6083TIP3    H239741   4.876   6.881  12.199  1.7392 -0.8998  0.7312
 6084TIP3   OH239742   6.822   0.134   1.153 -0.0469 -0.0381  0.1002
 6084TIP3    H139743   6.871   0.072   1.100  0.1003 -0.2386  0.4667
 6084TIP3    H239744   6.887   0.201   1.177 -0.2924  0.4655 -0.6094
 6085TIP3   OH239745   6.010   2.092   0.478  0.5029  0.6840 -0.1158
 6085TIP3    H139746   5.952   2.168   0.485 -0.0642  0.1073  2.3886
 6085TIP3    H239747   5.952   2.020   0.451  0.9642  0.9929 -2.0801
 6086TIP3   OH239748   0.851   4.055  17.167 -0.5143  0.4963 -0.8210
 6086TIP3    H139749   0.900   4.122  17.215  1.0534 -0.8850 -0.3758
 6086TIP3    H239750   0.909   4.031  17.094  0.9690 -3.1993  1.3046
 6087TIP3   OH239751   0.165   2.381   6.492  0.4366 -0.5378  0.0256
 6087TIP3    H139752   0.255   2.383   6.526  0.5313  2.0429 -0.1807
 6087TIP3    H239753   0.163   2.449   6.425 -1.6333 -0.6769 -0.1169
 6088TIP3   OH239754   1.243   6.239   5.167  0.0264 -0.6771 -0.3575
 6088TIP3    H139755   1.207   6.172   5.109  0.0786 -1.0509  0.0311
 6088TIP3    H239756   1.183   6.242   5.241 -0.1817 -0.0161 -0.5514
 6089TIP3   OH239757   2.082   5.622  14.085 -0.1395 -0.1154 -0.8822
 6089TIP3    H139758   2.142   5.687  14.050  1.0872  0.5001  2.0844
 6089TIP3    H239759   2.025   5.672  14.144 -0.7465 -1.3779 -0.3744
 6090TIP3   OH239760   2.929   2.671   1.856 -0.4246 -0.1894 -0.0599
 6090TIP3    H139761   2.928   2.714   1.941 -0.6143 -0.4791  0.0835
 6090TIP3    H239762   2.916   2.578   1.875 -1.4709 -0.1400 -0.4774
 6091TIP3   OH239763   1.574   5.742  12.218  0.4903  0.2149 -0.4709
 6091TIP3    H139764   1.601   5.747  12.127  2.2573 -0.6256 -0.0332
 6091TIP3    H239765   1.533   5.655  12.227  0.6737  0.1363 -0.3826
 6092TIP3   OH239766   3.491   5.620   5.944  0.5479 -0.4562 -0.1304
 6092TIP3    H139767   3.459   5.533   5.966 -2.6829 -0.0670 -2.5799
 6092TIP3    H239768   3.568   5.604   5.888 -0.5247 -1.8064 -1.2892
 6093TIP3   OH239769   5.069   4.832   6.012 -0.2175  0.0361  0.3311
 6093TIP3    H139770   5.080   4.870   5.925  1.4984 -1.0433  0.0205
 6093TIP3    H239771   5.013   4.756   5.999 -0.4361  0.2104  0.2651
 6094TIP3   OH239772   3.968   1.876  12.124  0.2466 -0.3816  0.0040
 6094TIP3    H139773   3.937   1.901  12.038  0.2500  0.1947  0.1653
 6094TIP3    H239774   4.021   1.950  12.153 -0.3781 -0.2372  0.8203
 6095TIP3   OH239775   2.706   5.845  13.585  0.2146  0.3511  0.0372
 6095TIP3    H139776   2.744   5.768  13.628  0.9552 -1.5956 -3.6202
 6095TIP3    H239777   2.615   5.820  13.569 -0.1517  1.1969  0.7604
 6096TIP3   OH239778   1.986   2.656   2.642 -0.0643 -0.1946 -0.0938
 6096TIP3    H139779   2.020   2.745   2.640  3.3554 -1.3645  0.4010
 6096TIP3    H239780   1.998   2.627   2.732  0.5888 -1.7292 -0.6384
 6097TIP3   OH239781   2.052   3.584   2.227  0.0478  0.6429 -0.6881
 6097TIP3    H139782   2.108   3.551   2.157  0.1382  4.0629 -2.4528
 6097TIP3    H239783   2.088   3.545   2.307  0.6580 -2.5270 -2.3398
 6098TIP3   OH239784   5.899   5.586   2.348  0.2143  0.3270  0.0839
 6098TIP3    H139785   5.924   5.563   2.438  0.7567  2.4558  0.5405
 6098TIP3    H239786   5.963   5.540   2.293  0.2127 -0.5690  0.8034
 6099TIP3   OH239787   1.205   0.985  11.101  0.2760  0.2451  0.0693
 6099TIP3    H139788   1.157   0.974  11.019  0.3261  2.6777 -0.3499
 6099TIP3    H239789   1.152   1.045  11.152  0.5498 -0.7660  1.6259
 6100TIP3   OH239790   1.948   2.375   2.405  0.1987 -0.6845 -0.0744
 6100TIP3    H139791   1.866   2.409   2.442  0.7545 -1.0644  1.6170
 6100TIP3    H239792   1.922   2.334   2.323 -1.0982  0.3231 -0.2096
 6101TIP3   OH239793   3.926   2.995   0.888 -0.2139  0.0288 -0.7769
 6101TIP3    H139794   3.909   3.047   0.967  0.8171 -0.1133 -0.4536
 6101TIP3    H239795   3.922   2.904   0.918 -0.7156 -0.0528 -1.0794
 6102TIP3   OH239796   6.164   6.040  13.424 -0.9466 -0.1543  0.4360
 6102TIP3    H139797   6.140   6.099  13.495 -2.2017 -0.1866  0.0635
 6102TIP3    H239798   6.109   5.963  13.437  1.8036 -2.0524  1.8885
 6103TIP3   OH239799   0.631   5.071  10.742 -0.1375  0.0609 -0.1203
 6103TIP3    H139800   0.608   5.030  10.659  0.2179 -0.0847 -0.1446
 6103TIP3    H239801   0.690   5.009  10.784 -0.9704 -0.2604  0.6158
 6104TIP3   OH239802   5.438   5.346  13.894  0.1872  0.0813  1.2575
 6104TIP3    H139803   5.464   5.424  13.942  0.3206  2.5282 -2.4219
 6104TIP3    H239804   5.363   5.373  13.842  1.1543 -1.7623 -1.2866
 6105TIP3   OH239805   2.853   3.837  16.272  0.0851 -0.4632  0.7169
 6105TIP3    H139806   2.900   3.861  16.353 -1.4670 -0.0602  1.5436
 6105TIP3    H239807   2.829   3.745  16.284  1.5391 -0.9829 -0.1713
 6106TIP3   OH239808   6.190   3.714  16.669  0.0773  0.1678  0.8592
 6106TIP3    H139809   6.224   3.791  16.623  1.2945  0.3136  1.9350
 6106TIP3    H239810   6.268   3.672  16.706 -0.4828 -1.9847 -0.2566
 6107TIP3   OH239811   4.594   5.472  11.729 -0.5637 -0.4117 -0.3000
 6107TIP3    H139812   4.522   5.430  11.776 -0.6373 -0.8441 -0.7966
 6107TIP3    H239813   4.657   5.401  11.713 -1.2012 -0.6027 -2.1619
 6108TIP3   OH239814   2.502   4.238  11.135 -0.2929  0.1469 -0.0963
 6108TIP3    H139815   2.502   4.235  11.231  1.6343  1.1398 -0.0013
 6108TIP3    H239816   2.593   4.219  11.111 -1.1869 -2.3468 -1.8859
 6109TIP3   OH239817   0.668   1.254   1.858  0.5364 -0.0694 -0.0594
 6109TIP3    H139818   0.759   1.226   1.850  0.3829 -0.1530 -2.3350
 6109TIP3    H239819   0.662   1.333   1.803  0.1313  2.5359  3.3779
 6110TIP3   OH239820   2.495   5.884   5.703 -0.3016  0.5368 -0.4028
 6110TIP3    H139821   2.420   5.899   5.646  0.4611 -0.5755 -1.7433
 6110TIP3    H239822   2.498   5.789   5.715 -0.0685  0.6975  1.0038
 6111TIP3   OH239823   0.470   3.623  10.655 -0.2092  0.1769 -0.2548
 6111TIP3    H139824   0.537   3.690  10.666  1.9262 -2.0001  0.9774
 6111TIP3    H239825   0.518   3.540  10.661 -2.5744 -1.5092 -2.5404
 6112TIP3   OH239826   0.571   4.140   5.123 -0.0853  0.2148 -0.9681
 6112TIP3    H139827   0.610   4.189   5.196  0.6410  0.1077 -1.2679
 6112TIP3    H239828   0.505   4.084   5.163  3.3122 -3.2706  0.3871
 6113TIP3   OH239829   4.141   6.550  13.429  0.1372  0.4198 -0.3742
 6113TIP3    H139830   4.122   6.456  13.425  1.1639  0.2126 -0.6963
 6113TIP3    H239831   4.214   6.562  13.368  0.1251  1.4018 -0.2058
 6114TIP3   OH239832   5.289   5.960   5.637 -0.4092  0.2291 -0.0161
 6114TIP3    H139833   5.317   6.025   5.573 -2.1010 -0.8025 -1.9119
 6114TIP3    H239834   5.355   5.890   5.631  0.9977  1.3297  1.4974
 6115TIP3   OH239835   0.417   2.742  12.056  0.1276 -0.3959  0.0766
 6115TIP3    H139836   0.401   2.813  11.995  1.3166 -0.9746 -0.9397
 6115TIP3    H239837   0.404   2.781  12.143 -2.4611  0.2056 -0.5153
 6116TIP3   OH239838   5.092   1.967   2.082 -0.6088 -0.1651  0.1365
 6116TIP3    H139839   5.120   2.020   2.156 -0.9895 -2.3873  2.0153
 6116TIP3    H239840   5.008   1.930   2.110 -0.1816 -2.0299 -0.8615
 6117TIP3   OH239841   2.560   4.817  14.465 -0.5435 -0.2044  0.2247
 6117TIP3    H139842   2.492   4.801  14.530  0.1571 -0.9497  0.7949
 6117TIP3    H239843   2.514   4.856  14.390 -1.4760 -0.0632  0.8597
 6118TIP3   OH239844   2.021   4.186  17.088 -0.2166  0.4622 -0.3934
 6118TIP3    H139845   2.012   4.168  17.182 -1.8466 -0.8005 -0.7334
 6118TIP3    H239846   1.938   4.228  17.064 -0.7670 -1.1888 -1.6250
 6119TIP3   OH239847   5.841   0.642   2.825  0.3721 -0.4855 -0.5489
 6119TIP3    H139848   5.829   0.735   2.805 -0.1906 -0.6443 -0.9926
 6119TIP3    H239849   5.762   0.601   2.791  0.1810 -1.0067  0.4970
 6120TIP3   OH239850   5.803   5.797   6.751 -0.6799 -0.0902 -0.2222
 6120TIP3    H139851   5.895   5.785   6.731 -0.3302  1.1939  0.4783
 6120TIP3    H239852   5.765   5.834   6.671  0.1055  2.3113  0.4241
 6121TIP3   OH239853   3.603   6.769  11.506 -0.2018 -0.1974 -0.0675
 6121TIP3    H139854   3.634   6.811  11.587  1.0959  0.8877 -1.0653
 6121TIP3    H239855   3.542   6.832  11.468 -0.8569 -0.7327  0.0782
 6122TIP3   OH239856   1.427   0.174   2.580 -0.4026 -0.2776 -0.3216
 6122TIP3    H139857   1.452   0.165   2.487  1.5880  1.6005 -0.0634
 6122TIP3    H239858   1.508   0.155   2.627 -1.7046 -2.4864  1.1728
 6123TIP3   OH239859   3.089   0.592   2.928  0.0525 -0.8681 -0.4998
 6123TIP3    H139860   3.147   0.604   2.853 -0.9580 -3.3489 -1.8052
 6123TIP3    H239861   3.144   0.550   2.995  0.0996 -2.2405 -1.3478
 6124TIP3   OH239862   6.674   1.598  12.449  0.1736  0.7967 -0.0543
 6124TIP3    H139863   6.620   1.578  12.372  0.8892 -1.8613  0.0436
 6124TIP3    H239864   6.612   1.599  12.522  0.0299 -1.0813 -0.1057
 6125TIP3   OH239865   1.702   2.366  12.522 -0.2739  0.3160  0.7658
 6125TIP3    H139866   1.715   2.271  12.520 -1.1965  0.1953 -0.2951
 6125TIP3    H239867   1.616   2.377  12.561  0.3182  0.8006  1.9947
 6126TIP3   OH239868   4.296   1.992  15.925 -0.1924  0.0627 -0.1162
 6126TIP3    H139869   4.285   2.078  15.965  1.1636 -0.2759  1.0747
 6126TIP3    H239870   4.274   1.929  15.994 -1.2744 -0.5592 -1.0022
 6127TIP3   OH239871   4.544   4.868   2.888  0.3000  0.2417 -0.3467
 6127TIP3    H139872   4.467   4.834   2.841  1.2317  0.1616 -1.8812
 6127TIP3    H239873   4.597   4.790   2.906 -0.2140  0.2252  1.2239
 6128TIP3   OH239874   3.916   0.151   2.285  0.1215 -0.0022 -0.0957
 6128TIP3    H139875   3.991   0.091   2.291  0.5953  0.5703 -0.1738
 6128TIP3    H239876   3.930   0.213   2.357 -0.9112 -0.5843  0.6215
 6129TIP3   OH239877   2.790   0.098   0.646 -0.0846  0.0750  0.0171
 6129TIP3    H139878   2.720   0.056   0.597  0.1765 -1.4851  0.9135
 6129TIP3    H239879   2.817   0.172   0.592 -1.2509 -0.3195 -1.1425
 6130TIP3   OH239880   6.258   1.927  13.211  0.3971  0.2737 -0.4952
 6130TIP3    H139881   6.317   1.964  13.277  1.1795  1.3885 -1.7756
 6130TIP3    H239882   6.315   1.871  13.158 -0.0519  0.0630 -0.7526
 6131TIP3   OH239883   5.685   6.176  11.335  0.5152  0.5921 -0.3069
 6131TIP3    H139884   5.651   6.218  11.415  0.0768 -0.5986  0.1470
 6131TIP3    H239885   5.716   6.249  11.282 -0.7791  1.5606  0.2013
 6132TIP3   OH239886   0.009   3.179   2.750  0.4281  0.0997  0.2755
 6132TIP3    H139887   0.049   3.101   2.789 -1.7091 -1.2870 -0.1483
 6132TIP3    H239888  -0.084   3.158   2.745  0.0235  2.0187 -1.4406
 6133TIP3   OH239889   6.445   1.362   2.145  0.3263  0.2174  0.6561
 6133TIP3    H139890   6.417   1.360   2.054  2.1095  0.2551  0.0804
 6133TIP3    H239891   6.450   1.269   2.171  0.9456  0.1646  0.3502
 6134TIP3   OH239892   1.923   4.017   4.259 -0.4913  0.5078 -0.2111
 6134TIP3    H139893   1.936   3.981   4.347  0.6459  0.4252 -0.4021
 6134TIP3    H239894   1.839   3.980   4.231 -0.3800 -0.2800  0.4385
 6135TIP3   OH239895   3.494   3.383  13.702 -0.0417 -0.2691  0.0199
 6135TIP3    H139896   3.413   3.435  13.705  0.6432  0.8650 -0.6774
 6135TIP3    H239897   3.531   3.401  13.616 -0.0027 -2.3030 -0.4510
 6136TIP3   OH239898   5.774   3.768  15.399 -0.5303  0.2423 -0.2120
 6136TIP3    H139899   5.793   3.764  15.305  0.9132  0.6010  0.0410
 6136TIP3    H239900   5.832   3.703  15.438 -0.0082  1.1502  0.5738
 6137TIP3   OH239901   1.260   3.960   0.527 -0.1366 -0.0101  0.0305
 6137TIP3    H139902   1.319   3.886   0.535 -0.0962  0.0980  0.7702
 6137TIP3    H239903   1.187   3.940   0.585 -0.2255  0.4333  0.0806
 6138TIP3   OH239904   2.335   3.565  14.276 -0.3983  0.2492 -0.1680
 6138TIP3    H139905   2.403   3.617  14.317 -2.8086  1.9143  2.0486
 6138TIP3    H239906   2.382   3.493  14.233  2.9244  2.9400 -1.4852
 6139TIP3   OH239907   0.853   3.258   1.425 -0.0595  0.1336  0.5485
 6139TIP3    H139908   0.918   3.238   1.357  1.4222 -0.0377  1.9470
 6139TIP3    H239909   0.871   3.349   1.448 -2.3391  1.0892 -1.0977
 6140TIP3   OH239910   5.080   6.696   2.323 -0.4870  0.0108 -0.4301
 6140TIP3    H139911   5.005   6.736   2.279  0.3484  1.2001 -0.8506
 6140TIP3    H239912   5.102   6.756   2.394  1.0710  0.5839 -1.3418
 6141TIP3   OH239913   1.582   1.370   6.007  0.1080 -0.0179 -0.3183
 6141TIP3    H139914   1.663   1.319   6.015  0.4113  0.1211 -2.0432
 6141TIP3    H239915   1.597   1.425   5.930 -0.8047  1.6002  0.6231
 6142TIP3   OH239916   1.814   0.488   0.236 -0.7227 -0.4957 -0.8168
 6142TIP3    H139917   1.720   0.496   0.250 -0.8600 -1.7303 -0.9692
 6142TIP3    H239918   1.823   0.458   0.146 -0.1752 -0.3926 -0.7997
 6143TIP3   OH239919   6.756   6.076  14.525  0.1782  0.0502  0.2048
 6143TIP3    H139920   6.811   6.149  14.553  1.3118 -1.4907  2.3367
 6143TIP3    H239921   6.818   6.013  14.488 -0.3822 -0.9057  0.8326
 6144TIP3   OH239922   5.045   6.381   3.833 -0.3333  0.7152  0.3511
 6144TIP3    H139923   4.991   6.460   3.830 -0.7689  0.3894 -0.9476
 6144TIP3    H239924   5.057   6.357   3.742  1.0449  0.1111  0.6680
 6145TIP3   OH239925   0.946   1.837   5.140 -0.1332 -0.1610 -0.3865
 6145TIP3    H139926   0.980   1.832   5.051  1.4529  0.5895  0.1356
 6145TIP3    H239927   0.979   1.921   5.173 -1.1426 -0.1850  0.7334
 6146TIP3   OH239928   1.384   2.370   1.707  0.1848 -0.1722 -0.3636
 6146TIP3    H139929   1.311   2.432   1.709  0.4568  0.1427  1.7578
 6146TIP3    H239930   1.354   2.300   1.648 -1.0218  0.8712 -1.0430
 6147TIP3   OH239931   2.678   1.602  15.071 -0.3980 -0.6436 -0.3345
 6147TIP3    H139932   2.704   1.654  14.994 -0.1797  0.7739  0.6653
 6147TIP3    H239933   2.669   1.513  15.037 -1.3551  0.1170 -2.2490
 6148TIP3   OH239934   3.521   2.768  16.045 -0.4919 -0.2178 -0.1113
 6148TIP3    H139935   3.519   2.676  16.018  2.2818 -0.9076  1.6051
 6148TIP3    H239936   3.488   2.767  16.135 -1.9001  0.7634 -0.5831
 6149TIP3   OH239937   5.367   3.654   5.830 -0.2011 -0.1982  0.1273
 6149TIP3    H139938   5.299   3.587   5.831 -0.0943 -0.3040  0.3992
 6149TIP3    H239939   5.414   3.640   5.748 -0.5091 -0.1246 -0.0590
 6150TIP3   OH239940   3.606   1.480  14.870 -0.0226  0.2192  0.1652
 6150TIP3    H139941   3.555   1.545  14.821  0.0849 -0.4770 -0.9129
 6150TIP3    H239942   3.687   1.472  14.819 -0.1948 -1.0270  0.0642
 6151TIP3   OH239943   0.389   0.572  16.046  0.1811 -0.6818 -0.1602
 6151TIP3    H139944   0.370   0.492  16.095  2.3893 -1.6575 -0.7673
 6151TIP3    H239945   0.433   0.628  16.109 -1.3527  0.0987  0.2601
 6152TIP3   OH239946   2.661   4.707   2.460 -0.2140 -0.0600 -0.1107
 6152TIP3    H139947   2.721   4.781   2.464 -0.2224 -0.0259 -0.5382
 6152TIP3    H239948   2.609   4.723   2.381 -1.7691  0.6553  1.0199
 6153TIP3   OH239949   3.287   3.799   4.856 -0.1713 -0.2193 -0.1613
 6153TIP3    H139950   3.355   3.749   4.902 -1.4146  0.6828  2.9641
 6153TIP3    H239951   3.205   3.770   4.896 -1.2775  1.4843 -1.0636
 6154TIP3   OH239952   6.337   1.699  16.460  0.0540  0.0339  0.5576
 6154TIP3    H139953   6.402   1.699  16.390 -0.9498  0.3437 -0.4099
 6154TIP3    H239954   6.256   1.727  16.417 -0.7231 -0.3605  1.7201
 6155TIP3   OH239955   3.499   2.363   6.125 -0.1773  0.6450  0.0457
 6155TIP3    H139956   3.564   2.324   6.065  0.8815  1.6300  0.5170
 6155TIP3    H239957   3.457   2.288   6.166  2.2143 -0.0816  1.3664
 6156TIP3   OH239958   5.461   2.032  13.082  0.2631  0.1876  0.7691
 6156TIP3    H139959   5.368   2.049  13.066  0.4247  3.6566  2.5327
 6156TIP3    H239960   5.462   1.974  13.158 -0.5132  0.7133  1.2001
 6157TIP3   OH239961   5.971   4.556   4.997 -0.2183 -0.4446 -0.4846
 6157TIP3    H139962   5.973   4.617   5.071  2.0124  0.0653 -0.8989
 6157TIP3    H239963   5.916   4.599   4.932 -0.1029  0.3007 -0.1011
 6158TIP3   OH239964   1.851   5.477  16.316  0.0808  0.6987  0.0477
 6158TIP3    H139965   1.846   5.389  16.279 -0.7879  1.1179 -0.8883
 6158TIP3    H239966   1.783   5.479  16.383  0.7137  0.3780  0.7067
 6159TIP3   OH239967   2.376   3.968  12.617 -0.1431  0.4454  0.4284
 6159TIP3    H139968   2.366   4.042  12.557  2.7916 -0.6003 -1.6174
 6159TIP3    H239969   2.447   3.993  12.675  1.1097 -0.7655 -0.4940
 6160TIP3   OH239970   5.413   0.022   2.238 -0.0966 -0.0888  0.2562
 6160TIP3    H139971   5.389  -0.060   2.281  0.3855 -0.4654 -0.1941
 6160TIP3    H239972   5.502   0.040   2.268 -0.0342  0.0347 -0.0048
 6161TIP3   OH239973   1.257   3.092  15.650  0.0913 -0.0210  0.1584
 6161TIP3    H139974   1.344   3.058  15.672 -0.6043 -1.3808  0.9298
 6161TIP3    H239975   1.209   3.016  15.617 -0.6053  0.8641 -0.9473
 6162TIP3   OH239976   0.224   5.487   4.821  0.1632 -0.1568 -0.2627
 6162TIP3    H139977   0.286   5.507   4.750  0.5614 -1.2757 -0.2512
 6162TIP3    H239978   0.232   5.392   4.833 -1.9678 -0.4422 -0.6452
 6163TIP3   OH239979   0.479   6.060  16.139  0.2211 -0.3080 -0.0206
 6163TIP3    H139980   0.513   6.120  16.206 -0.2504  0.8091 -0.7495
 6163TIP3    H239981   0.443   6.117  16.072 -0.7934 -1.4279 -0.4730
 6164TIP3   OH239982   3.313   4.351   4.748  0.0440 -0.6260  0.1602
 6164TIP3    H139983   3.232   4.363   4.699  0.2074 -1.1771 -0.2485
 6164TIP3    H239984   3.300   4.270   4.797  0.2206 -0.5406  0.3508
 6165TIP3   OH239985   5.650   0.868   1.359 -0.0395  0.4596  0.4575
 6165TIP3    H139986   5.728   0.811   1.359  1.0986  1.8919  2.7996
 6165TIP3    H239987   5.578   0.809   1.335  1.6332 -1.0449 -1.2318
 6166TIP3   OH239988   2.244   6.672  15.325  0.1531  0.4087  0.0505
 6166TIP3    H139989   2.183   6.690  15.253  1.5098 -0.6961 -1.4426
 6166TIP3    H239990   2.195   6.694  15.404 -1.2039  2.2001 -1.2185
 6167TIP3   OH239991   4.201   3.253  14.065 -0.2862  0.0751  0.1513
 6167TIP3    H139992   4.276   3.298  14.026  0.4203 -0.3537  0.9723
 6167TIP3    H239993   4.239   3.201  14.136 -1.7263  2.4547  2.8498
 6168TIP3   OH239994   6.391   4.248   5.280 -0.3904  0.2261  0.1926
 6168TIP3    H139995   6.333   4.309   5.325 -0.2844  1.6912 -1.5355
 6168TIP3    H239996   6.462   4.302   5.247  0.5729 -1.1176 -0.0034
 6169TIP3   OH239997   0.427   0.334   2.310  0.3917 -1.3319 -0.1653
 6169TIP3    H139998   0.499   0.379   2.266  0.7277 -1.9147 -0.2293
 6169TIP3    H239999   0.435   0.359   2.402 -0.2226 -0.2257 -0.3980
 6170TIP3   OH240000   2.859   1.999   4.513  0.1073 -0.2624 -0.5124
 6170TIP3    H140001   2.778   2.046   4.530  0.7104  0.5864  0.0643
 6170TIP3    H240002   2.834   1.906   4.515 -1.1637  0.0013 -2.0215
 6171TIP3   OH240003   0.942   3.088  12.100 -0.0987 -0.5553  0.9080
 6171TIP3    H140004   0.901   3.145  12.165 -0.8836  0.4317 -0.4169
 6171TIP3    H240005   0.881   3.014  12.092 -0.6538 -0.0449  0.3635
 6172TIP3   OH240006   3.266   0.607  12.635  0.0702  0.0595 -1.1092
 6172TIP3    H140007   3.288   0.522  12.673 -0.9886  0.5739  0.7962
 6172TIP3    H240008   3.249   0.589  12.543 -2.2313 -2.2455 -0.3470
 6173TIP3   OH240009   3.986   2.448   0.462 -0.9804  0.4743  0.0187
 6173TIP3    H140010   4.031   2.366   0.484 -2.3447  0.0893  1.5197
 6173TIP3    H240011   4.010   2.507   0.533 -0.2005  1.3525 -0.9313
 6174TIP3   OH240012   1.174   3.698   5.861 -0.2035 -0.1567  0.3397
 6174TIP3    H140013   1.125   3.676   5.940 -1.0626  0.6722  0.0554
 6174TIP3    H240014   1.229   3.622   5.845 -1.7555 -1.3424  0.4020
 6175TIP3   OH240015   3.884   4.550   2.095 -0.1064  0.9606 -0.0718
 6175TIP3    H140016   3.938   4.527   2.171 -1.5481  2.2473  1.4128
 6175TIP3    H240017   3.912   4.490   2.026  1.9749  0.4417  1.1553
 6176TIP3   OH240018   1.975   2.126   1.092  0.6844  0.1648 -0.1886
 6176TIP3    H140019   1.934   2.052   1.047 -2.5824  1.7607 -0.1772
 6176TIP3    H240020   2.021   2.087   1.166 -0.0295 -1.9183 -0.7618
 6177TIP3   OH240021   0.461   4.442  11.051  0.0500 -0.1681 -0.4725
 6177TIP3    H140022   0.524   4.400  10.993  1.5156  0.9763  0.2235
 6177TIP3    H240023   0.486   4.412  11.139 -1.3223 -0.8525 -0.2918
 6178TIP3   OH240024   1.087   4.725  15.682 -0.0045 -0.5451  0.2646
 6178TIP3    H140025   1.005   4.720  15.731 -0.9326  0.1731 -1.1381
 6178TIP3    H240026   1.131   4.803  15.717  0.5020 -1.4187  1.6141
 6179TIP3   OH240027   0.086   0.739   4.997 -0.1770 -0.6261  0.0512
 6179TIP3    H140028   0.054   0.811   5.051 -1.4130 -0.0388 -1.3873
 6179TIP3    H240029   0.030   0.665   5.018  2.0093 -1.7272  2.6241
 6180TIP3   OH240030   0.799   3.185   2.219  0.0805  0.1506  0.2017
 6180TIP3    H140031   0.751   3.180   2.137  0.4160  1.4556 -0.0892
 6180TIP3    H240032   0.766   3.264   2.262  0.6411  0.0381  0.8597
 6181TIP3   OH240033   0.371   3.135  15.566 -0.7473  0.1641  0.0376
 6181TIP3    H140034   0.338   3.206  15.621 -0.4989  0.3206 -0.0107
 6181TIP3    H240035   0.338   3.056  15.607 -2.1731  0.3612 -0.6934
 6182TIP3   OH240036   1.090   0.933  13.849  0.0076 -0.2493  0.5195
 6182TIP3    H140037   1.024   0.865  13.859  0.1472 -0.5293 -0.3969
 6182TIP3    H240038   1.156   0.911  13.915 -1.0867  0.3949  1.8798
 6183TIP3   OH240039   5.320   2.862   1.570 -0.4869  0.1834  0.4007
 6183TIP3    H140040   5.357   2.896   1.489 -1.6844  1.2760  0.2810
 6183TIP3    H240041   5.260   2.793   1.542 -0.9495  0.6047  0.3342
 6184TIP3   OH240042   3.595   4.336  12.275 -0.3326  0.3748  0.2639
 6184TIP3    H140043   3.635   4.387  12.345  0.7837 -0.3639  0.2031
 6184TIP3    H240044   3.569   4.254  12.317 -1.4944  0.7073  0.2220
 6185TIP3   OH240045   4.650   0.596  17.121  0.0613  0.0790  0.0247
 6185TIP3    H140046   4.645   0.519  17.178  0.8994  0.6242  0.8571
 6185TIP3    H240047   4.634   0.670  17.179  1.6551  0.6944 -0.2780
 6186TIP3   OH240048   6.180   3.155   0.741 -0.5286 -0.2513  0.0292
 6186TIP3    H140049   6.259   3.127   0.788 -0.5838  1.4398  1.2517
 6186TIP3    H240050   6.139   3.219   0.800 -1.4835  0.7623 -1.6586
 6187TIP3   OH240051   6.625   3.636  16.667 -0.1035 -0.0282 -0.0466
 6187TIP3    H140052   6.684   3.700  16.628 -0.4601  0.7748  0.6803
 6187TIP3    H240053   6.541   3.652  16.624  0.0144 -0.6702 -0.5445
 6188TIP3   OH240054   5.631   0.453  16.494 -0.5575  0.0438 -0.4249
 6188TIP3    H140055   5.625   0.541  16.457  2.6465 -0.5176 -2.6569
 6188TIP3    H240056   5.573   0.400  16.439 -0.2938  0.2469 -0.9011
 6189TIP3   OH240057   1.301   5.114  14.919  0.0299  0.4729  0.1322
 6189TIP3    H140058   1.336   5.033  14.881 -1.1977 -0.3888  0.8146
 6189TIP3    H240059   1.221   5.131  14.870 -0.8734  0.0712  1.4443
 6190TIP3   OH240060   4.273   6.641   2.362 -0.0323  0.4698 -0.1765
 6190TIP3    H140061   4.259   6.668   2.453 -1.4921 -1.1119  0.1097
 6190TIP3    H240062   4.366   6.657   2.347  0.4109  0.1164  1.8383
 6191TIP3   OH240063   4.455   6.158   1.071  0.3899  0.1926 -0.1991
 6191TIP3    H140064   4.370   6.200   1.063  1.1828  1.5923 -1.9976
 6191TIP3    H240065   4.450   6.109   1.153 -2.1485  0.1484 -0.3032
 6192TIP3   OH240066   0.394   1.433  11.105 -0.2707 -0.4318 -0.3201
 6192TIP3    H140067   0.413   1.480  11.186 -0.6715 -0.1539 -0.3857
 6192TIP3    H240068   0.349   1.497  11.050  0.9150 -0.2899 -1.1718
 6193TIP3   OH240069   1.160   4.989  12.394 -0.1293  0.6995 -0.0105
 6193TIP3    H140070   1.121   5.076  12.402 -1.7358  0.0170 -0.0984
 6193TIP3    H240071   1.238   4.993  12.449 -0.1981  2.1781  0.0197
 6194TIP3   OH240072   0.801   5.346   1.527 -0.1068 -0.6630  0.3385
 6194TIP3    H140073   0.879   5.293   1.511  0.4808  0.2761  0.0239
 6194TIP3    H240074   0.833   5.436   1.529 -1.3487 -0.1373 -1.1127
 6195TIP3   OH240075   0.184   0.897  14.020  0.2370  0.1892 -0.1345
 6195TIP3    H140076   0.216   0.979  14.059 -0.5819  1.2556 -1.5858
 6195TIP3    H240077   0.108   0.873  14.073  1.6328 -0.7638  1.5252
 6196TIP3   OH240078   2.593   1.108   5.760 -0.0170 -0.0884 -0.0651
 6196TIP3    H140079   2.525   1.155   5.711  0.0723 -0.1845 -0.2809
 6196TIP3    H240080   2.674   1.154   5.739 -0.1095  0.5043  0.7886
 6197TIP3   OH240081   0.338   2.366   6.068  0.6537  0.0879 -0.3423
 6197TIP3    H140082   0.298   2.279   6.059  1.6853 -0.1894 -3.2524
 6197TIP3    H240083   0.392   2.359   6.147 -1.4494 -0.9308  1.1364
 6198TIP3   OH240084   1.442   6.010   5.809  0.0259  0.0819 -0.0753
 6198TIP3    H140085   1.522   6.048   5.771  0.9279 -1.0571  0.6009
 6198TIP3    H240086   1.417   5.941   5.748 -1.4637  1.5183 -1.1708
 6199TIP3   OH240087   5.133   1.784   3.678  0.1038 -0.1196 -0.2854
 6199TIP3    H140088   5.159   1.806   3.588  1.6869  1.7887  0.5655
 6199TIP3    H240089   5.054   1.836   3.694 -0.5585 -0.9528 -0.7417
 6200TIP3   OH240090   3.076   3.844  14.928 -0.3446 -0.4341 -0.1476
 6200TIP3    H140091   3.118   3.787  14.993  1.1164  1.3384  0.5753
 6200TIP3    H240092   3.070   3.790  14.850 -0.1504 -1.9621  0.8444
 6201TIP3   OH240093   0.882   3.853  14.504 -0.3288  0.3908 -1.0610
 6201TIP3    H140094   0.965   3.818  14.538  0.1928  0.8457 -1.8279
 6201TIP3    H240095   0.876   3.818  14.415 -0.2206  1.5285 -1.5367
 6202TIP3   OH240096   0.279   1.836   5.736 -0.1436 -0.0202  0.1784
 6202TIP3    H140097   0.190   1.804   5.750  0.1929 -0.6168  1.0682
 6202TIP3    H240098   0.294   1.897   5.809  0.7624 -1.2374  1.0586
 6203TIP3   OH240099   0.240   0.805  15.514  0.7898  0.5631  0.0852
 6203TIP3    H140100   0.328   0.841  15.515  0.3592  1.6556  0.3443
 6203TIP3    H240101   0.252   0.711  15.526  1.9642  0.5691 -0.9444
 6204TIP3   OH240102   6.687   0.196  13.536 -0.0845 -0.1825 -0.1966
 6204TIP3    H140103   6.639   0.195  13.618 -0.5236  1.1099 -0.4180
 6204TIP3    H240104   6.771   0.237  13.558 -0.3800  0.5946 -0.4611
 6205TIP3   OH240105   3.474   0.117   2.129  0.0360 -0.2164 -0.1459
 6205TIP3    H140106   3.474   0.194   2.073 -1.1759 -0.3473 -0.3340
 6205TIP3    H240107   3.562   0.080   2.118  0.5358  0.9822 -0.2486
 6206TIP3   OH240108   0.126   2.588   3.110  0.5311  1.0771 -0.3652
 6206TIP3    H140109   0.179   2.598   3.189  0.1696 -0.1552  0.0638
 6206TIP3    H240110   0.161   2.653   3.049  0.9371  1.9256  0.7324
 6207TIP3   OH240111   1.655   4.800  11.552 -0.2764 -0.2361 -0.0340
 6207TIP3    H140112   1.636   4.714  11.515  0.1007 -0.6615  0.7452
 6207TIP3    H240113   1.653   4.859  11.476 -2.0445 -0.6669 -0.3760
 6208TIP3   OH240114   6.126   5.262   4.071  0.3673  0.5236 -0.4965
 6208TIP3    H140115   6.090   5.268   4.160 -1.1921 -1.8370 -0.8772
 6208TIP3    H240116   6.097   5.342   4.028 -2.0323  0.0262  0.0804
 6209TIP3   OH240117   6.307   6.270  12.906 -0.1384 -0.4556 -0.2689
 6209TIP3    H140118   6.326   6.176  12.905 -0.9997 -0.6989  1.8224
 6209TIP3    H240119   6.330   6.299  12.994 -1.6465  0.9169 -0.2708
 6210TIP3   OH240120   6.590   2.456   2.317 -0.2031  0.4873 -0.0435
 6210TIP3    H140121   6.579   2.363   2.337 -0.0851  0.4315 -0.2362
 6210TIP3    H240122   6.511   2.479   2.268 -1.1791  0.9748  1.7067
 6211TIP3   OH240123   5.330   1.072  14.351  0.3886  0.1588 -0.2328
 6211TIP3    H140124   5.236   1.055  14.349  0.4982 -0.3768 -1.5601
 6211TIP3    H240125   5.349   1.112  14.266  1.7700 -2.0978 -1.0669
 6212TIP3   OH240126   4.562   1.912  12.724 -0.1611 -0.2386 -0.5802
 6212TIP3    H140127   4.580   1.947  12.811 -1.4911  0.4818 -0.5739
 6212TIP3    H240128   4.476   1.871  12.732 -0.8346  0.8680 -1.8289
 6213TIP3   OH240129   4.672   4.273   4.028  0.0041  0.0522  0.7804
 6213TIP3    H140130   4.660   4.363   4.000 -2.0333  0.1442  1.7697
 6213TIP3    H240131   4.640   4.221   3.954 -0.0561  0.1553  0.7343
 6214TIP3   OH240132   0.746   4.133   2.073  0.8427 -0.1953 -0.4066
 6214TIP3    H140133   0.776   4.179   1.995  1.2273 -0.2141 -0.2719
 6214TIP3    H240134   0.721   4.046   2.041  0.0126  0.1326 -0.6784
 6215TIP3   OH240135   0.221   3.768  10.629 -0.3504  0.1135 -0.1732
 6215TIP3    H140136   0.183   3.744  10.714 -0.1085  2.2988  0.6331
 6215TIP3    H240137   0.305   3.722  10.626  0.9439  2.1013  2.1118
 6216TIP3   OH240138   5.712   5.269   6.279  0.3099  0.1784 -0.4648
 6216TIP3    H140139   5.646   5.312   6.332 -0.8330 -1.1124 -0.7690
 6216TIP3    H240140   5.732   5.188   6.326  2.1724  0.8337 -0.0568
 6217TIP3   OH240141   0.996   3.492   3.868  0.4254  0.0390 -0.2541
 6217TIP3    H140142   0.999   3.417   3.928 -2.4677  0.4809  0.6301
 6217TIP3    H240143   1.058   3.555   3.905 -0.4633 -0.1528  1.7033
 6218TIP3   OH240144   3.506   2.411   1.883 -0.0301  0.2085 -0.4191
 6218TIP3    H140145   3.435   2.391   1.822  0.9674 -1.7277 -1.0236
 6218TIP3    H240146   3.583   2.424   1.827  0.7137 -0.7226  0.3470
 6219TIP3   OH240147   3.944   2.373  11.101  0.5069 -0.1057  0.0220
 6219TIP3    H140148   3.882   2.301  11.096  0.8816 -0.4279 -0.0501
 6219TIP3    H240149   3.998   2.364  11.023  0.1690  0.6183 -0.3085
 6220TIP3   OH240150   3.520   0.645  11.207  0.6690  0.4869 -0.1172
 6220TIP3    H140151   3.556   0.635  11.119 -0.4236  1.1541 -0.6631
 6220TIP3    H240152   3.501   0.739  11.215 -2.3073  0.0186 -0.4670
 6221TIP3   OH240153   0.319   0.982   1.794 -0.4438  0.2447  0.3427
 6221TIP3    H140154   0.275   0.939   1.867  0.7502  0.0432  0.9847
 6221TIP3    H240155   0.369   1.054   1.836 -0.0773  0.3852 -0.3221
 6222TIP3   OH240156   0.223   2.965  11.903  0.4971 -0.8995  0.1037
 6222TIP3    H140157   0.182   2.944  11.987 -0.4954 -1.6580 -0.5396
 6222TIP3    H240158   0.149   2.978  11.843  1.1816 -2.3107 -1.1081
 6223TIP3   OH240159   6.715   2.443  15.725  0.0704  0.1496  0.2330
 6223TIP3    H140160   6.703   2.454  15.631 -0.1370 -0.0397  0.2357
 6223TIP3    H240161   6.642   2.387  15.752 -2.6164  3.8031  1.2714
 6224TIP3   OH240162   5.413   1.819  15.284 -0.6504 -0.0353 -0.3116
 6224TIP3    H140163   5.424   1.732  15.324 -0.9947  0.5444  1.1167
 6224TIP3    H240164   5.502   1.850  15.271 -0.5142 -0.7442 -1.2089
 6225TIP3   OH240165   3.033   3.098  12.256 -0.2216 -0.2956 -0.5557
 6225TIP3    H140166   3.074   3.028  12.306 -0.9266 -1.3675 -1.4481
 6225TIP3    H240167   3.080   3.099  12.173  0.8415  1.3764  0.0134
 6226TIP3   OH240168   6.605   6.262  14.396  1.3256  0.5015 -0.4512
 6226TIP3    H140169   6.653   6.216  14.465 -0.3273  1.1319  1.2076
 6226TIP3    H240170   6.639   6.352  14.398 -0.2015  1.1107  1.1386
 6227TIP3   OH240171   3.561   4.611   2.660  0.3144  0.0175  0.8649
 6227TIP3    H140172   3.641   4.647   2.623 -0.4015 -0.8162 -1.7193
 6227TIP3    H240173   3.589   4.533   2.708  0.9297 -2.3317 -2.8691
 6228TIP3   OH240174   3.751   3.475   5.027 -0.3057  0.2386 -0.7391
 6228TIP3    H140175   3.700   3.445   5.102 -1.2535 -0.0480 -1.4698
 6228TIP3    H240176   3.785   3.395   4.987  1.1305  0.4558  0.0036
 6229TIP3   OH240177   0.155   2.569   4.180 -0.4173 -0.1381 -0.2908
 6229TIP3    H140178   0.189   2.597   4.096 -1.1954 -1.3423 -1.0336
 6229TIP3    H240179   0.066   2.539   4.162 -0.6995 -0.1706  1.0104
 6230TIP3   OH240180   5.803   1.160   1.637  0.4375  0.0616  0.3220
 6230TIP3    H140181   5.814   1.152   1.542 -1.0066 -0.3059  0.1620
 6230TIP3    H240182   5.709   1.149   1.651  0.6792 -0.2561  1.8405
 6231TIP3   OH240183   4.315   0.556  13.036  0.6272  0.2198  0.1014
 6231TIP3    H140184   4.345   0.600  13.116  1.1954  0.5326 -0.2783
 6231TIP3    H240185   4.221   0.569  13.036  0.7152  0.9088  0.3146
 6232TIP3   OH240186   1.766   3.315   2.117  0.1901 -0.0576 -0.3309
 6232TIP3    H140187   1.820   3.245   2.154  2.8413  1.9908 -0.0975
 6232TIP3    H240188   1.699   3.330   2.184 -1.1406 -2.9866 -0.8468
 6233TIP3   OH240189   4.766   6.755  16.196  0.4550 -0.1445  0.8188
 6233TIP3    H140190   4.750   6.664  16.172 -0.4934  0.0669  0.5900
 6233TIP3    H240191   4.825   6.787  16.127  0.9480 -0.6280  1.0057
 6234TIP3   OH240192   2.199   1.507  16.803 -0.0653  0.5803 -0.3313
 6234TIP3    H140193   2.178   1.518  16.710 -1.2976  1.7532  0.0704
 6234TIP3    H240194   2.226   1.593  16.832  1.7668 -0.0935  0.0857
 6235TIP3   OH240195   0.042   3.521   0.127  0.7939  0.2147 -0.3889
 6235TIP3    H140196   0.049   3.543   0.220  1.7445  0.2463 -0.4630
 6235TIP3    H240197  -0.051   3.502   0.114  0.8568 -1.0553  0.8444
 6236TIP3   OH240198   2.123   4.872  15.431  0.1262 -0.6409 -0.1120
 6236TIP3    H140199   2.094   4.781  15.429 -0.9125 -0.3859  1.5969
 6236TIP3    H240200   2.204   4.873  15.380  0.6742 -2.7044  0.6494
 6237TIP3   OH240201   5.633   1.330   0.380  0.4172 -0.4813  0.1113
 6237TIP3    H140202   5.629   1.242   0.417  3.7531 -0.5030  0.7048
 6237TIP3    H240203   5.635   1.388   0.456 -0.2154  0.0227 -0.2461
 6238TIP3   OH240204   5.891   4.203   9.818 -0.4750  0.3316  0.6990
 6238TIP3    H140205   5.900   4.297   9.828 -1.7407  0.6793 -0.9852
 6238TIP3    H240206   5.901   4.188   9.723  0.4049 -1.3220  1.0087
 6239TIP3   OH240207   2.128   6.147  11.890  0.1289 -0.1948  0.1637
 6239TIP3    H140208   2.066   6.200  11.939  0.7635  0.8377 -0.1310
 6239TIP3    H240209   2.139   6.193  11.807  0.0280 -1.2585 -0.4599
 6240TIP3   OH240210   5.986   5.830   1.880  0.5178  0.5140  0.0837
 6240TIP3    H140211   5.920   5.771   1.916  0.2984  0.3310 -0.6015
 6240TIP3    H240212   6.055   5.833   1.946 -0.3513  1.0259  0.9994
 6241TIP3   OH240213   3.258   6.304  16.009 -0.3469  0.1712  0.6009
 6241TIP3    H140214   3.256   6.399  16.011 -1.8872  0.2192 -1.0246
 6241TIP3    H240215   3.296   6.279  16.094  0.8288  2.2105  0.7179
 6242TIP3   OH240216   0.960   1.658  16.192 -0.1934  0.0171  0.0674
 6242TIP3    H140217   0.880   1.677  16.241 -0.4970  1.5211 -0.9321
 6242TIP3    H240218   0.986   1.571  16.222 -2.3230 -0.6244  0.2484
 6243TIP3   OH240219   4.841   2.270  12.533  0.5768  0.2765 -0.0089
 6243TIP3    H140220   4.928   2.246  12.500  0.9624  0.3103  0.9447
 6243TIP3    H240221   4.828   2.360  12.505  0.9547  0.3453  0.0307
 6244TIP3   OH240222   2.733   4.751   6.067  0.2099  0.2365 -0.0918
 6244TIP3    H140223   2.745   4.833   6.115 -1.2840  0.3043  0.2248
 6244TIP3    H240224   2.638   4.736   6.068  0.3967 -1.1856 -0.6688
 6245TIP3   OH240225   0.934   0.408   0.596  0.7521 -0.4606 -0.6977
 6245TIP3    H140226   0.895   0.488   0.561  0.3996 -0.8396 -1.1924
 6245TIP3    H240227   1.028   0.424   0.593  0.6918 -0.1345 -0.9647
 6246TIP3   OH240228   6.391   3.555  11.654  0.0100  0.3746  0.6305
 6246TIP3    H140229   6.482   3.578  11.633 -0.4268  1.2842 -0.3884
 6246TIP3    H240230   6.369   3.610  11.729  0.4901 -0.3301  1.3058
 6247TIP3   OH240231   0.100   4.973  13.131  0.6286  0.0169 -0.2404
 6247TIP3    H140232   0.132   4.995  13.044  1.5043  0.7551  0.2580
 6247TIP3    H240233   0.171   4.925  13.172 -0.3463 -1.6828 -0.4457
 6248TIP3   OH240234   0.349   1.894   3.334  0.4877 -0.2052 -0.1388
 6248TIP3    H140235   0.329   1.986   3.349  2.1811  0.2870 -0.6821
 6248TIP3    H240236   0.323   1.878   3.243  0.7604 -0.0945 -0.2367
 6249TIP3   OH240237   1.905   2.409   4.412  0.2147  0.0952 -0.4976
 6249TIP3    H140238   1.865   2.492   4.385  1.3034  0.2428 -1.7508
 6249TIP3    H240239   1.924   2.422   4.505  1.9793  1.9706 -1.0441
 6250TIP3   OH240240   4.689   1.583   2.896 -0.3811 -0.3418 -0.1705
 6250TIP3    H140241   4.647   1.602   2.980 -1.1805 -1.4500 -0.2909
 6250TIP3    H240242   4.783   1.587   2.913 -0.5355  0.5066  0.5140
 6251TIP3   OH240243   4.757   2.560  12.494  1.0828  0.0183  0.3472
 6251TIP3    H140244   4.704   2.523  12.423 -0.5546  2.3790  0.2042
 6251TIP3    H240245   4.705   2.545  12.573  0.5116  1.6157  0.3209
 6252TIP3   OH240246   1.245   3.695   1.934  0.1940  0.4284 -0.0225
 6252TIP3    H140247   1.188   3.714   2.009  0.6536  1.1367  0.1617
 6252TIP3    H240248   1.274   3.781   1.904  1.6441  0.0745  0.2587
 6253TIP3   OH240249   3.392   1.752   3.999  0.6427  0.6927  0.0623
 6253TIP3    H140250   3.467   1.697   4.019  0.5517 -0.4529 -2.4404
 6253TIP3    H240251   3.424   1.842   4.009  1.7636  0.2131  0.9222
 6254TIP3   OH240252   6.475   3.989   3.469 -0.0264  0.4329  0.0557
 6254TIP3    H140253   6.487   3.949   3.383 -0.6583  1.3861 -0.4977
 6254TIP3    H240254   6.433   3.922   3.521  2.6734 -1.0883  0.4351
 6255TIP3   OH240255   3.420   1.832  16.885  0.6330  0.4494  0.1599
 6255TIP3    H140256   3.400   1.739  16.896  1.6839  0.2260  0.3039
 6255TIP3    H240257   3.447   1.840  16.793  0.1783  0.6891  0.0454
 6256TIP3   OH240258   2.649   2.591   4.553  0.1921 -0.2819 -0.0489
 6256TIP3    H140259   2.657   2.507   4.507 -2.1656 -0.0416 -1.0799
 6256TIP3    H240260   2.579   2.576   4.617  0.7143  0.5086  0.7120
 6257TIP3   OH240261   5.518   6.826  16.361 -0.0276  0.5465  0.2229
 6257TIP3    H140262   5.575   6.754  16.333 -1.4119 -0.0832 -1.1293
 6257TIP3    H240263   5.458   6.786  16.424  1.1239  1.2760  1.8688
 6258TIP3   OH240264   4.009   2.028   4.678  0.0075 -1.0941  0.7350
 6258TIP3    H140265   4.045   2.078   4.752  0.2772  0.7546 -0.5779
 6258TIP3    H240266   3.928   2.074   4.656 -0.0948 -1.6588 -0.0907
 6259TIP3   OH240267   0.388   4.318  16.965 -0.0919  0.2527  0.0239
 6259TIP3    H140268   0.419   4.262  17.036 -1.9753  0.5045  1.1047
 6259TIP3    H240269   0.433   4.401  16.978  1.6397 -0.5017 -0.7542
 6260TIP3   OH240270   3.533   3.714   3.065 -0.1343 -0.0590 -0.0879
 6260TIP3    H140271   3.469   3.774   3.103  0.2223  0.0694  0.3082
 6260TIP3    H240272   3.612   3.726   3.117  0.2304 -0.1871 -0.6031
 6261TIP3   OH240273   2.944   2.836   2.852  0.9940  0.0356  0.4083
 6261TIP3    H140274   2.890   2.761   2.826  1.0390  0.4833 -1.0636
 6261TIP3    H240275   2.893   2.879   2.920  0.9444 -1.2926  1.2524
 6262TIP3   OH240276   1.045   2.894   5.433 -0.7594 -0.8273 -0.5286
 6262TIP3    H140277   1.134   2.930   5.428 -0.8573 -0.5993 -0.6471
 6262TIP3    H240278   1.047   2.836   5.509 -0.3617 -1.2303 -0.8346
 6263TIP3   OH240279   4.726   6.461   0.507 -0.2758  0.0563 -0.9198
 6263TIP3    H140280   4.690   6.469   0.595  2.3654  0.0915  0.2748
 6263TIP3    H240281   4.670   6.397   0.464 -0.6686 -1.2955  1.3943
 6264TIP3   OH240282   3.186   1.231   3.607  0.0604 -0.0236  0.2477
 6264TIP3    H140283   3.110   1.261   3.556  0.3768 -1.8325 -1.4338
 6264TIP3    H240284   3.150   1.164   3.666  0.4698 -2.0605 -1.6684
 6265TIP3   OH240285   2.046   4.516  10.861  0.0132 -0.9002 -0.3721
 6265TIP3    H140286   1.954   4.541  10.854 -0.2816 -1.5376  0.9570
 6265TIP3    H240287   2.078   4.562  10.938  0.1605 -2.5075  0.5711
 6266TIP3   OH240288   4.007   3.216  13.871 -0.3912  0.2424 -0.2574
 6266TIP3    H140289   4.018   3.129  13.831 -2.2654 -1.1627  1.9651
 6266TIP3    H240290   4.083   3.225  13.929  0.7270  0.9345 -1.7611
 6267TIP3   OH240291   6.822   0.283  15.381  0.4859 -0.4485 -0.1759
 6267TIP3    H140292   6.886   0.295  15.450  1.0769  0.5423 -0.8766
 6267TIP3    H240293   6.857   0.331  15.306 -0.5998 -0.6938 -0.8742
 6268TIP3   OH240294   2.059   5.653   2.545 -0.3259 -0.3309  0.3817
 6268TIP3    H140295   2.108   5.652   2.627 -0.9993 -0.4688  0.7900
 6268TIP3    H240296   2.123   5.628   2.479  0.5255  0.9124  0.6838
 6269TIP3   OH240297   4.900   2.684   1.713  0.0499  0.2276 -0.2304
 6269TIP3    H140298   4.928   2.747   1.780  0.2093 -1.9489  1.8876
 6269TIP3    H240299   4.977   2.630   1.698 -0.6344 -0.6948 -0.5034
 6270TIP3   OH240300   3.591   1.864  16.356 -0.1037 -0.2701  0.4584
 6270TIP3    H140301   3.648   1.801  16.314  1.0836  0.2066  1.2932
 6270TIP3    H240302   3.633   1.882  16.440 -0.8515  0.9978  0.5908
 6271TIP3   OH240303   5.409   2.556   5.923  0.5182 -0.0579  0.0818
 6271TIP3    H140304   5.349   2.501   5.872  0.1649  0.6778 -0.3140
 6271TIP3    H240305   5.474   2.586   5.860  1.9457 -1.6699  0.7006
 6272TIP3   OH240306   5.916   2.570   0.381 -0.4625 -0.4297 -0.1287
 6272TIP3    H140307   5.839   2.514   0.391  0.4604 -2.8425 -4.2763
 6272TIP3    H240308   5.980   2.536   0.443 -1.2736 -1.2627  0.2651
 6273TIP3   OH240309   4.646   3.196  13.204  0.0559  0.0535  0.2339
 6273TIP3    H140310   4.713   3.204  13.273 -1.0370 -3.5315  1.9459
 6273TIP3    H240311   4.681   3.129  13.145 -0.1348  1.3476 -1.4191
 6274TIP3   OH240312   6.608   5.491   4.297  0.2284 -0.0532 -1.2283
 6274TIP3    H140313   6.682   5.551   4.289  0.9902 -1.1457 -2.5588
 6274TIP3    H240314   6.537   5.534   4.249  0.5865  0.0657 -1.6496
 6275TIP3   OH240315   5.549   1.393   6.360 -0.0830  0.0991 -0.7528
 6275TIP3    H140316   5.468   1.361   6.399 -1.2425  0.5828 -2.5881
 6275TIP3    H240317   5.543   1.489   6.368 -0.2346  0.1951 -1.8320
 6276TIP3   OH240318   5.846   4.808  12.167 -0.3484  0.3534 -0.1812
 6276TIP3    H140319   5.891   4.723  12.169 -1.3046 -0.1433  1.3885
 6276TIP3    H240320   5.754   4.786  12.153 -0.5379  1.1686 -0.2432
 6277TIP3   OH240321   1.154   0.862   3.152 -0.1482  0.3685 -0.2809
 6277TIP3    H140322   1.125   0.833   3.239 -0.5091  1.6014  0.0241
 6277TIP3    H240323   1.096   0.816   3.091  2.0833 -2.9795 -0.1259
 6278TIP3   OH240324   6.507   3.695  13.135  0.4447 -0.1747  0.0530
 6278TIP3    H140325   6.503   3.766  13.071  0.3975 -0.2668 -0.0458
 6278TIP3    H240326   6.522   3.739  13.218 -1.3282  0.1069  0.2665
 6279TIP3   OH240327   0.156   4.827   2.341 -0.0090  0.1032 -0.2419
 6279TIP3    H140328   0.138   4.788   2.255 -0.0044  1.2722 -0.8043
 6279TIP3    H240329   0.202   4.908   2.321  0.3756  0.1844  0.9007
 6280TIP3   OH240330   5.919   3.848   1.350  0.6137  0.2658 -0.2479
 6280TIP3    H140331   5.853   3.786   1.318  0.2795  0.8822 -0.7884
 6280TIP3    H240332   5.982   3.795   1.397 -0.5977 -0.2789  0.8141
 6281TIP3   OH240333   5.892   5.742  11.771 -0.2301 -0.3763 -0.5450
 6281TIP3    H140334   5.952   5.769  11.701 -1.2569  1.2333 -0.8643
 6281TIP3    H240335   5.844   5.822  11.793 -1.1680 -1.2625  0.7851
 6282TIP3   OH240336   4.572   5.096  14.420 -0.0775 -0.5384  0.0521
 6282TIP3    H140337   4.621   5.129  14.345  3.2127 -0.3587  2.0445
 6282TIP3    H240338   4.600   5.005  14.429 -1.7695 -1.0914  0.1154
 6283TIP3   OH240339   1.848   4.362   3.037  0.0275 -0.3105 -0.1781
 6283TIP3    H140340   1.925   4.317   3.070  0.0478 -0.9717 -1.1033
 6283TIP3    H240341   1.870   4.384   2.947 -0.3450  0.7307 -0.0300
 6284TIP3   OH240342   0.561   3.234   0.442 -0.2126 -0.1644  0.8788
 6284TIP3    H140343   0.622   3.214   0.513  1.4351  1.0839 -0.1170
 6284TIP3    H240344   0.537   3.326   0.455  0.2788  0.1464 -0.2806
 6285TIP3   OH240345   4.549   4.593  16.702  0.4543 -0.1292  0.3339
 6285TIP3    H140346   4.540   4.674  16.652  0.5529 -0.0685  0.4157
 6285TIP3    H240347   4.639   4.565  16.688  0.6808  0.2456  1.0255
 6286TIP3   OH240348   4.415   2.231  15.770  0.1950  0.0724 -0.4205
 6286TIP3    H140349   4.434   2.209  15.861 -1.6192  0.2197  0.0328
 6286TIP3    H240350   4.499   2.221  15.724  1.1626  0.1264  1.2782
 6287TIP3   OH240351   1.475   5.050  12.262  0.4726 -0.2640 -0.0032
 6287TIP3    H140352   1.426   4.993  12.321  0.2411  0.3556  0.4183
 6287TIP3    H240353   1.456   5.016  12.174 -2.2541  1.0561 -0.0309
 6288TIP3   OH240354   0.657   3.575  11.034 -0.0489 -0.0264 -0.3234
 6288TIP3    H140355   0.679   3.639  10.966  1.7970  2.0812  2.0706
 6288TIP3    H240356   0.585   3.615  11.082  1.2115  0.4141  1.2805
 6289TIP3   OH240357   4.818   3.177   4.793 -0.0799 -0.7130  0.3302
 6289TIP3    H140358   4.732   3.174   4.836  0.6267  0.6549  1.9581
 6289TIP3    H240359   4.881   3.166   4.864  1.1771  2.8095 -0.0373
 6290TIP3   OH240360   5.037   1.891  15.301  0.1605  0.2423  0.2325
 6290TIP3    H140361   4.952   1.853  15.278  0.7677 -1.2182  0.2438
 6290TIP3    H240362   5.051   1.862  15.392  0.3714  1.0583  0.4661
 6291TIP3   OH240363   2.301   2.723  12.410 -0.6667 -0.3640 -0.0089
 6291TIP3    H140364   2.372   2.767  12.363 -0.9811 -0.4272 -0.5614
 6291TIP3    H240365   2.316   2.630  12.394  0.1962 -0.5112  1.4468
 6292TIP3   OH240366   3.793   2.796  12.702 -0.4544  0.0487  0.5231
 6292TIP3    H140367   3.775   2.703  12.691 -0.3561 -0.0695  1.3017
 6292TIP3    H240368   3.742   2.839  12.633  1.1596 -0.7057 -1.2445
 6293TIP3   OH240369   3.231   6.532   0.088  0.5088  0.3357 -0.3721
 6293TIP3    H140370   3.185   6.512   0.169  0.0922  0.3976 -0.5849
 6293TIP3    H240371   3.210   6.624   0.071 -1.4895 -0.2972 -1.8263
 6294TIP3   OH240372   2.816   2.010  14.170 -0.0564 -0.0440 -0.0583
 6294TIP3    H140373   2.807   1.936  14.230  1.2024  0.3238  0.6119
 6294TIP3    H240374   2.781   2.085  14.218 -1.8077 -0.2616 -0.9278
 6295TIP3   OH240375   2.933   1.940   4.882  0.4507 -0.1013 -0.2756
 6295TIP3    H140376   2.968   1.993   4.810  1.2973  1.1568  1.0091
 6295TIP3    H240377   3.000   1.945   4.951 -1.3169  0.6818  1.4889
 6296TIP3   OH240378   0.531   4.515  12.405 -0.0152  0.3468 -0.2665
 6296TIP3    H140379   0.470   4.513  12.331  0.3155 -0.0305 -0.5347
 6296TIP3    H240380   0.611   4.554  12.369  0.0271  0.4957 -0.0145
 6297TIP3   OH240381   2.423   6.817  15.643 -0.4711  0.1753 -0.2114
 6297TIP3    H140382   2.452   6.764  15.568 -0.9965 -0.9566  0.3608
 6297TIP3    H240383   2.430   6.908  15.612  1.9298 -0.0966 -0.7177
 6298TIP3   OH240384   6.553   4.746   1.871 -0.0981 -0.4345  0.2403
 6298TIP3    H140385   6.618   4.756   1.802 -0.0140 -3.4160 -0.2673
 6298TIP3    H240386   6.602   4.711   1.946 -0.6335  0.2706  0.9397
 6299TIP3   OH240387   4.036   6.030   3.467 -0.1124 -0.4101 -0.0246
 6299TIP3    H140388   3.983   6.048   3.544  0.3325 -1.1138  0.4590
 6299TIP3    H240389   4.123   6.011   3.502  1.2745  3.4359 -0.9201
 6300TIP3   OH240390   6.652   6.006   0.883  0.3615  0.0686 -0.2637
 6300TIP3    H140391   6.721   5.941   0.891  0.0933 -0.2288 -0.3255
 6300TIP3    H240392   6.595   5.972   0.814 -0.5791 -0.3644  0.6980
 6301TIP3   OH240393   1.311   6.109  16.320  0.1157  0.1513 -0.1741
 6301TIP3    H140394   1.220   6.081  16.325  0.2163 -0.2285 -0.3851
 6301TIP3    H240395   1.308   6.204  16.332 -0.1577 -0.0315  1.3233
 6302TIP3   OH240396   6.805   0.720   4.665  0.3507 -0.4139  0.1940
 6302TIP3    H140397   6.812   0.627   4.644  0.3466 -0.1185 -1.2392
 6302TIP3    H240398   6.732   0.725   4.727  1.2025 -1.4942  1.3241
 6303TIP3   OH240399   6.610   5.197  14.653  0.0872 -0.2133 -0.4614
 6303TIP3    H140400   6.610   5.180  14.747  0.2336 -1.1793 -0.6307
 6303TIP3    H240401   6.648   5.119  14.614 -1.1006 -0.3545 -1.4192
 6304TIP3   OH240402   1.064   2.417  11.914  0.8876  0.5298 -0.2033
 6304TIP3    H140403   1.122   2.494  11.911  1.6495  0.0183  0.7588
 6304TIP3    H240404   1.118   2.348  11.953 -0.3088 -0.0265  0.5178
 6305TIP3   OH240405   6.291   5.935   5.437  0.0527 -0.4314  0.2401
 6305TIP3    H140406   6.212   5.947   5.489 -0.4676  1.3934 -0.8736
 6305TIP3    H240407   6.286   5.845   5.406  1.2425 -2.2744  4.5649
 6306TIP3   OH240408   2.792   1.960   3.400  0.1665 -0.8359 -0.1549
 6306TIP3    H140409   2.704   1.926   3.384  0.3478 -1.3562 -0.0801
 6306TIP3    H240410   2.788   1.998   3.488 -0.4790  0.8381 -0.8794
 6307TIP3   OH240411   4.209   5.478   4.514  0.0492  0.2834  0.0895
 6307TIP3    H140412   4.122   5.511   4.538 -0.3454 -0.4953 -0.2537
 6307TIP3    H240413   4.235   5.424   4.589 -0.2720 -0.4277 -0.3013
 6308TIP3   OH240414   3.685   3.682   1.535  0.3344 -0.0650  0.3490
 6308TIP3    H140415   3.699   3.616   1.466  1.4270 -0.4312  0.8993
 6308TIP3    H240416   3.739   3.652   1.608 -0.1494  0.7766  1.0707
 6309TIP3   OH240417   0.839   5.104   4.934  0.6234  0.4205 -0.2204
 6309TIP3    H140418   0.769   5.125   4.996  0.2674  1.2124 -0.8731
 6309TIP3    H240419   0.826   5.011   4.913  0.6308  0.1962  0.7235
 6310TIP3   OH240420   5.570   6.184  11.889 -0.6793  0.4998 -0.1948
 6310TIP3    H140421   5.486   6.167  11.930 -0.7732 -0.4642 -0.7528
 6310TIP3    H240422   5.587   6.106  11.835 -0.7284  1.8389 -2.2555
 6311TIP3   OH240423   0.268   5.073  13.534  0.5183 -0.2767  0.5072
 6311TIP3    H140424   0.226   4.995  13.570 -0.8324  1.7879  3.9229
 6311TIP3    H240425   0.348   5.084  13.586  0.8161  0.4524 -0.0835
 6312TIP3   OH240426   2.169   0.714   2.531 -0.5082 -0.5585  0.6829
 6312TIP3    H140427   2.254   0.703   2.574  1.9806  1.2482 -3.2195
 6312TIP3    H240428   2.158   0.634   2.479 -0.3281 -0.0928 -0.0861
 6313TIP3   OH240429   5.116   4.018   4.136 -0.2104  0.1416  0.5603
 6313TIP3    H140430   5.122   3.932   4.177 -0.2399  0.5700  1.4954
 6313TIP3    H240431   5.024   4.028   4.113 -0.0962 -0.3268 -0.1344
 6314TIP3   OH240432   1.240   1.670  12.538 -0.3183  0.1877  0.3308
 6314TIP3    H140433   1.328   1.642  12.564 -0.3074 -0.3335 -0.2415
 6314TIP3    H240434   1.225   1.626  12.454  0.1680  2.8363 -1.2654
 6315TIP3   OH240435   4.657   3.705  15.590  0.1162  0.4534  0.1134
 6315TIP3    H140436   4.610   3.672  15.513 -0.8802  1.1951  0.3941
 6315TIP3    H240437   4.695   3.788  15.560  0.5341  0.2808  0.1515
 6316TIP3   OH240438   0.852   6.090  13.920 -0.5733 -0.2812  0.8212
 6316TIP3    H140439   0.887   6.001  13.916  1.2058  0.4162 -0.5957
 6316TIP3    H240440   0.822   6.108  13.831 -1.1083  0.4640  1.1448
 6317TIP3   OH240441   0.276   1.479   4.183 -0.1025  0.1263  0.3617
 6317TIP3    H140442   0.233   1.448   4.103  0.3237  0.9237 -0.1903
 6317TIP3    H240443   0.220   1.550   4.214  0.0961  0.2794  0.3763
 6318TIP3   OH240444   3.324   5.463   4.727 -0.5182 -0.0368 -0.7362
 6318TIP3    H140445   3.414   5.481   4.699 -0.8902  1.4992 -1.0610
 6318TIP3    H240446   3.332   5.436   4.818  0.2398  0.6010 -0.5983
 6319TIP3   OH240447   3.550   2.775  15.145  0.2089 -0.2010 -0.1383
 6319TIP3    H140448   3.555   2.856  15.095 -1.1858  0.1828  0.2959
 6319TIP3    H240449   3.592   2.710  15.089  1.6907  0.8702 -0.3399
 6320TIP3   OH240450   1.474   0.786   6.631  0.1228 -0.4413  0.0938
 6320TIP3    H140451   1.504   0.868   6.593  1.8703 -1.0674  0.0612
 6320TIP3    H240452   1.516   0.782   6.717  2.9977 -2.8727 -1.2348
 6321TIP3   OH240453   0.525   5.659  15.175 -0.2016 -0.3598  0.2519
 6321TIP3    H140454   0.539   5.589  15.111  1.5523 -0.1437  0.3469
 6321TIP3    H240455   0.544   5.619  15.260 -4.5600 -1.2497  1.0352
 6322TIP3   OH240456   5.279   5.358  16.233  0.3024  0.2801 -0.3641
 6322TIP3    H140457   5.344   5.381  16.166  1.9760 -1.1961  0.6268
 6322TIP3    H240458   5.323   5.378  16.316 -1.3711  1.2178  0.3345
 6323TIP3   OH240459   0.149   3.199  14.552  0.2126  0.0041  0.3140
 6323TIP3    H140460   0.194   3.281  14.532 -1.1999  0.3978 -1.5610
 6323TIP3    H240461   0.211   3.130  14.527  1.2003  0.4763  1.3895
 6324TIP3   OH240462   1.495   5.297  12.681  0.0716 -0.4365  0.0551
 6324TIP3    H140463   1.445   5.294  12.600 -0.7437 -2.7979  0.5375
 6324TIP3    H240464   1.582   5.326  12.655 -0.5561  0.2364 -1.4101
 6325TIP3   OH240465   1.333   4.651  12.042  0.5016 -0.2200  0.0038
 6325TIP3    H140466   1.320   4.582  11.977 -0.5370 -1.0967  1.0981
 6325TIP3    H240467   1.245   4.676  12.068  0.8907 -0.0843  1.2596
 6326TIP3   OH240468   2.328   3.449   0.127 -0.3938  0.1957 -0.2609
 6326TIP3    H140469   2.317   3.407   0.042 -0.8713  1.6233 -0.9312
 6326TIP3    H240470   2.242   3.486   0.147  0.1616  1.3978 -0.0060
 6327TIP3   OH240471   4.578   5.962   5.090  0.1439 -0.3364 -0.1182
 6327TIP3    H140472   4.559   5.875   5.126  0.5713  0.4829  2.2604
 6327TIP3    H240473   4.510   6.018   5.128  1.6001  0.8724  0.8233
 6328TIP3   OH240474   4.043   5.981  11.190  0.3033 -0.7698 -0.1422
 6328TIP3    H140475   3.953   5.974  11.223  0.3149 -0.5337 -0.0642
 6328TIP3    H240476   4.042   5.931  11.108 -0.7385  1.9634 -1.9048
 6329TIP3   OH240477   1.862   0.072  12.414 -0.0417  0.2595  0.3630
 6329TIP3    H140478   1.858   0.141  12.348 -0.5838 -0.7655 -0.7271
 6329TIP3    H240479   1.806   0.002  12.379  0.2616 -0.6264  1.5593
 6330TIP3   OH240480   6.777   6.103  16.471  0.0891  0.5907  0.0288
 6330TIP3    H140481   6.802   6.042  16.402  1.6334  1.5129 -0.2729
 6330TIP3    H240482   6.816   6.067  16.551 -0.4767  0.2818  0.1718
 6331TIP3   OH240483   5.876   0.671   3.108  0.8289  0.6430 -1.0520
 6331TIP3    H140484   5.896   0.659   3.015  0.2478 -1.4824 -0.9477
 6331TIP3    H240485   5.922   0.599   3.152 -1.6697 -0.4899 -0.1108
 6332TIP3   OH240486   4.446   1.179   1.427  0.0286 -0.8073 -0.0197
 6332TIP3    H140487   4.378   1.219   1.373  0.4551 -1.2336 -0.9076
 6332TIP3    H240488   4.522   1.236   1.416 -0.1914 -0.3061  1.0059
 6333TIP3   OH240489   6.660   6.041   3.335 -0.0765  0.3014  0.1278
 6333TIP3    H140490   6.570   6.012   3.319  0.4646 -2.7695  1.9216
 6333TIP3    H240491   6.657   6.079   3.423  0.5548 -0.8402  0.6542
 6334TIP3   OH240492   2.733   4.866   3.816 -0.2140  0.1300  0.3950
 6334TIP3    H140493   2.675   4.923   3.766 -0.4347  0.2879  0.8290
 6334TIP3    H240494   2.689   4.781   3.817 -1.2590  0.6560  2.1200
 6335TIP3   OH240495   3.988   4.954   5.993  0.5222 -0.2894 -0.6991
 6335TIP3    H140496   3.999   4.902   6.073 -2.2056 -0.8855 -0.6110
 6335TIP3    H240497   4.070   5.002   5.985  1.4688 -1.3209  1.6355
 6336TIP3   OH240498   2.097   2.335  14.181 -0.1515  0.1399 -0.0659
 6336TIP3    H140499   2.043   2.294  14.114  1.2979 -0.4274 -0.9533
 6336TIP3    H240500   2.047   2.327  14.262 -0.6767 -1.8586 -0.5415
 6337TIP3   OH240501   1.641   3.198  12.057 -0.1890 -0.1140 -0.0338
 6337TIP3    H140502   1.612   3.114  12.093  1.7766 -0.6308  0.4646
 6337TIP3    H240503   1.652   3.255  12.134  0.4346 -0.0472 -0.1657
 6338TIP3   OH240504   3.472   2.353   3.336 -0.2239  0.2124 -0.3601
 6338TIP3    H140505   3.385   2.345   3.376 -0.2930 -0.5019 -0.6395
 6338TIP3    H240506   3.489   2.266   3.299  1.1494 -0.0246  0.7702
 6339TIP3   OH240507   3.476   3.815  13.362 -0.0597 -0.8528  0.2436
 6339TIP3    H140508   3.472   3.911  13.361  0.1739 -0.8409  0.0629
 6339TIP3    H240509   3.386   3.787  13.373 -0.2602 -0.6176 -0.6934
 6340TIP3   OH240510   3.051   1.223   4.494 -0.1009 -0.3392 -0.7799
 6340TIP3    H140511   3.054   1.315   4.520  0.3325 -0.2108 -1.2624
 6340TIP3    H240512   3.126   1.183   4.538  0.4487 -0.1880 -1.5591
 6341TIP3   OH240513   0.356   1.437   5.184 -0.0946  0.7707 -0.4538
 6341TIP3    H140514   0.421   1.367   5.194 -0.3757  0.7695  2.5890
 6341TIP3    H240515   0.407   1.518   5.189 -0.1530  0.7574  0.8407
 6342TIP3   OH240516   5.984   4.384  10.777 -0.2174  0.0240 -0.1241
 6342TIP3    H140517   5.927   4.317  10.817 -2.2067  0.3151 -2.2944
 6342TIP3    H240518   6.045   4.334  10.724 -0.9233 -0.1494 -0.7893
 6343TIP3   OH240519   5.265   1.114  14.666 -0.1741 -0.3882 -0.1837
 6343TIP3    H140520   5.234   1.164  14.742  1.6712 -0.5446  0.7297
 6343TIP3    H240521   5.255   1.174  14.592 -1.0590  0.1298  0.3308
 6344TIP3   OH240522   5.195   3.159   4.064 -0.4546 -0.4670 -0.2187
 6344TIP3    H140523   5.232   3.092   4.007 -0.4062  0.3106 -1.1119
 6344TIP3    H240524   5.250   3.156   4.143  1.3616  0.4491 -1.3856
 6345TIP3   OH240525   5.978   6.485  15.370 -0.5783  0.0586 -0.2154
 6345TIP3    H140526   6.062   6.441  15.363 -0.9842 -0.5093 -1.8193
 6345TIP3    H240527   5.994   6.574  15.341  0.4139  1.3909  3.7278
 6346TIP3   OH240528   4.682   5.456  15.674  0.2026  0.5532 -0.1767
 6346TIP3    H140529   4.772   5.476  15.648  0.5168 -1.6047 -0.9488
 6346TIP3    H240530   4.691   5.419  15.762 -0.0274  0.9353  0.0121
 6347TIP3   OH240531   2.801   2.191   2.313  0.2837  0.1983  0.6409
 6347TIP3    H140532   2.859   2.234   2.250  1.2447 -1.9984 -0.0868
 6347TIP3    H240533   2.859   2.134   2.364 -0.9386 -0.4561  1.3382
 6348TIP3   OH240534   0.589   1.693  15.900  0.4205  0.0089 -0.7071
 6348TIP3    H140535   0.638   1.639  15.839  1.6413  0.8021 -0.4636
 6348TIP3    H240536   0.646   1.768  15.917  1.0019 -1.0380  2.8775
 6349TIP3   OH240537   3.580   0.603   4.543  0.4822  0.1520  0.0910
 6349TIP3    H140538   3.514   0.560   4.489  0.2370 -0.0036  0.5074
 6349TIP3    H240539   3.575   0.558   4.627 -0.2879  1.4694  0.7794
 6350TIP3   OH240540   5.776   1.781   2.043  0.4526  0.2947 -0.2060
 6350TIP3    H140541   5.700   1.815   2.090 -0.5277 -2.6083  0.4934
 6350TIP3    H240542   5.751   1.785   1.951  0.4737  1.5827 -0.1768
 6351TIP3   OH240543   2.773   0.751  13.530  0.2809 -0.2708 -0.2103
 6351TIP3    H140544   2.702   0.695  13.561 -0.4100  0.4458 -0.4648
 6351TIP3    H240545   2.780   0.733  13.436  0.8060 -0.7353 -0.0872
 6352TIP3   OH240546   3.150   0.608  12.016 -0.0076 -0.3268  0.1616
 6352TIP3    H140547   3.066   0.614  11.971 -0.2278 -1.4738  0.3892
 6352TIP3    H240548   3.147   0.677  12.083 -0.1571  0.6082 -0.7803
 6353TIP3   OH240549   1.329   1.133  15.984  0.2889 -0.1212 -0.6752
 6353TIP3    H140550   1.303   1.099  16.070 -1.8054  0.0706 -1.1872
 6353TIP3    H240551   1.411   1.180  16.000  0.9169 -1.6435  0.8578
 6354TIP3   OH240552   4.790   5.445   0.610  0.2017  0.3066 -0.0726
 6354TIP3    H140553   4.831   5.408   0.688  1.5109  0.3827 -0.7006
 6354TIP3    H240554   4.710   5.394   0.599  1.1924 -1.3243 -0.0430
 6355TIP3   OH240555   2.997   0.115   3.832 -0.1009  0.1593 -0.2459
 6355TIP3    H140556   2.917   0.063   3.846  1.1394 -1.6295  0.5843
 6355TIP3    H240557   3.047   0.065   3.768  0.4646  1.1838 -0.6303
 6356TIP3   OH240558   5.313   0.912  11.926 -0.2186  0.2037  0.1537
 6356TIP3    H140559   5.376   0.888  11.994  0.1517 -0.1381 -0.3015
 6356TIP3    H240560   5.229   0.916  11.971  0.1822  1.0516  0.8524
 6357TIP3   OH240561   6.298   1.037   0.111 -0.1259  0.4586  0.0756
 6357TIP3    H140562   6.205   1.042   0.087 -0.3630  2.0098  1.1550
 6357TIP3    H240563   6.304   0.961   0.170 -0.0524 -1.6316 -2.4436
 6358TIP3   OH240564   2.010   5.944   1.975  0.2567 -0.3314 -0.1002
 6358TIP3    H140565   1.973   5.964   1.890  0.9683  0.1720 -0.3061
 6358TIP3    H240566   2.105   5.952   1.962  0.3707 -0.1761  0.7446
 6359TIP3   OH240567   5.625   0.840  15.753  0.2579 -0.0390  0.4441
 6359TIP3    H140568   5.629   0.750  15.785  1.5466 -0.0170  0.4331
 6359TIP3    H240569   5.657   0.892  15.827  1.9267  0.1454 -0.3643
 6360TIP3   OH240570   2.932   3.553  10.976 -0.0926  0.0615 -0.3198
 6360TIP3    H140571   2.869   3.482  10.967 -2.6691  2.0955  0.5217
 6360TIP3    H240572   2.991   3.524  11.045  0.3330 -2.1137 -1.4880
 6361TIP3   OH240573   0.795   5.183  16.260  0.4013  0.5120  0.2102
 6361TIP3    H140574   0.874   5.177  16.313  0.9707  1.9720 -0.4487
 6361TIP3    H240575   0.766   5.273  16.269 -0.8890  0.1464 -0.0206
 6362TIP3   OH240576   1.416   6.446  14.861  0.0169 -0.1537 -0.4680
 6362TIP3    H140577   1.499   6.493  14.849 -1.5515  3.1985  0.4854
 6362TIP3    H240578   1.363   6.472  14.786 -1.3350  0.7342  0.7342
 6363TIP3   OH240579   3.180   6.369  14.481 -0.2304 -0.2159 -0.7441
 6363TIP3    H140580   3.108   6.430  14.469  1.7268  2.0154 -1.9261
 6363TIP3    H240581   3.167   6.333  14.569 -2.0802  1.0173 -0.4663
 6364TIP3   OH240582   1.536   0.051   6.025  0.1169 -0.3767 -0.1966
 6364TIP3    H140583   1.462   0.091   6.072  0.9490 -0.2557  1.0640
 6364TIP3    H240584   1.610   0.108   6.046  0.6509 -0.7320 -1.1051
 6365TIP3   OH240585   0.457   2.940   2.978 -0.8974 -0.2154 -0.0986
 6365TIP3    H140586   0.476   2.965   3.069 -1.0186 -0.3888 -0.0252
 6365TIP3    H240587   0.489   3.013   2.926 -1.7001  0.3260  0.1455
 6366TIP3   OH240588   1.824   4.841  13.802  0.0273 -0.0935 -0.0546
 6366TIP3    H140589   1.760   4.890  13.750 -0.4669 -0.2958  0.3589
 6366TIP3    H240590   1.865   4.907  13.858  0.1876  0.0362 -0.3233
 6367TIP3   OH240591   5.439   0.815   5.107  0.2791  0.0935  0.2769
 6367TIP3    H140592   5.504   0.764   5.155 -0.0678 -0.4515  0.1799
 6367TIP3    H240593   5.372   0.836   5.173 -0.2875 -0.8090  0.0090
 6368TIP3   OH240594   6.629   1.227   0.764  0.4992  0.0579  0.3049
 6368TIP3    H140595   6.665   1.310   0.733  0.3855  0.0241  0.0806
 6368TIP3    H240596   6.691   1.161   0.733 -0.0999 -0.0642 -0.6608
 6369TIP3   OH240597   5.922   5.269  13.577  0.3867 -0.1557  0.1848
 6369TIP3    H140598   5.948   5.237  13.663  1.0156 -1.5426 -0.4739
 6369TIP3    H240599   5.984   5.339  13.557  0.1731  0.2382  0.8945
 6370TIP3   OH240600   3.474   1.347  12.067 -0.3706 -0.2469 -0.0973
 6370TIP3    H140601   3.524   1.316  12.143  0.1413  0.4175 -0.1505
 6370TIP3    H240602   3.484   1.278  12.002  0.8737  0.0595 -0.2658
 6371TIP3   OH240603   5.245   5.538  12.154  0.7510  0.2907  0.1828
 6371TIP3    H140604   5.333   5.566  12.127  0.5473 -0.0374 -0.8436
 6371TIP3    H240605   5.251   5.531  12.249  2.2294 -1.0427  0.0312
 6372TIP3   OH240606   1.128   4.777  11.554 -0.3356  0.2697 -0.8433
 6372TIP3    H140607   1.126   4.847  11.619 -1.6977 -0.0316 -0.5436
 6372TIP3    H240608   1.201   4.800  11.497 -0.9285  2.0769 -0.9223
 6373TIP3   OH240609   5.267   6.253   2.101 -0.3253  0.1896  0.3157
 6373TIP3    H140610   5.325   6.327   2.113  0.2305  0.0147 -1.0940
 6373TIP3    H240611   5.279   6.200   2.180  0.4856  0.7851  0.6080
 6374TIP3   OH240612   1.313   1.476  14.002 -0.6288 -0.4132 -0.3437
 6374TIP3    H140613   1.234   1.519  14.035 -0.7258 -1.0371  0.2402
 6374TIP3    H240614   1.282   1.397  13.958 -0.4640  0.1947 -1.5979
 6375TIP3   OH240615   0.499   0.482   1.225  0.1981 -0.3048 -0.1302
 6375TIP3    H140616   0.553   0.547   1.270  2.3856  0.0745 -3.0119
 6375TIP3    H240617   0.411   0.521   1.224  0.6988  0.9690  1.1559
 6376TIP3   OH240618   2.948   2.616  12.805  0.2704 -0.0537  0.1286
 6376TIP3    H140619   2.863   2.604  12.761  0.3111  0.8645 -0.2243
 6376TIP3    H240620   2.968   2.530  12.841 -0.9670 -0.2090  0.4976
 6377TIP3   OH240621   3.892   5.702   5.290  0.0070  0.3314 -0.0831
 6377TIP3    H140622   3.811   5.752   5.277  0.0805  0.4738  0.0004
 6377TIP3    H240623   3.918   5.722   5.380 -2.5797 -3.6682  1.8055
 6378TIP3   OH240624   6.258   2.016   0.988 -0.7295 -0.6196  0.3618
 6378TIP3    H140625   6.276   1.928   0.956  1.3007  0.4431 -1.7214
 6378TIP3    H240626   6.211   2.059   0.916 -0.8685  0.2522  0.9568
 6379TIP3   OH240627   6.389   2.640  14.679  0.7482  0.0156  0.0703
 6379TIP3    H140628   6.305   2.669  14.644 -0.1475 -1.2017  1.1079
 6379TIP3    H240629   6.447   2.715  14.669 -0.8328  1.3467  0.5535
 6380TIP3   OH240630   6.779   3.845   1.040 -0.7283  0.0093  0.0959
 6380TIP3    H140631   6.815   3.758   1.021 -1.3719 -0.0406 -0.9741
 6380TIP3    H240632   6.825   3.904   0.980  0.3791  0.5751  1.4589
 6381TIP3   OH240633   0.071   5.541  13.641  0.2024  0.4719  0.9840
 6381TIP3    H140634   0.015   5.478  13.596 -2.7876  1.6693  2.7230
 6381TIP3    H240635   0.134   5.487  13.689 -1.2402 -1.1714  1.1563
 6382TIP3   OH240636   2.754   1.751   4.552  0.2358  0.1770  0.0943
 6382TIP3    H140637   2.707   1.680   4.508  2.5310  0.2545 -2.8054
 6382TIP3    H240638   2.811   1.708   4.615 -1.3981 -0.1432  1.4050
 6383TIP3   OH240639   5.557   3.043   6.591  0.1273 -0.2378 -0.2429
 6383TIP3    H140640   5.547   3.137   6.605  0.7125 -0.2025 -0.0440
 6383TIP3    H240641   5.622   3.036   6.522  0.8112 -0.5136  0.4166
 6384TIP3   OH240642   2.364   5.798  16.252  0.0055 -0.3572 -0.0660
 6384TIP3    H140643   2.272   5.791  16.226 -0.4989  0.6641  1.2735
 6384TIP3    H240644   2.408   5.725  16.209 -1.5852 -1.3129 -0.1373
 6385TIP3   OH240645   6.620   0.342   0.826 -0.1856  0.0984  0.5167
 6385TIP3    H140646   6.661   0.342   0.913  0.5209  0.0448  0.1924
 6385TIP3    H240647   6.670   0.278   0.776 -0.6046  0.1135  0.0745
 6386TIP3   OH240648   3.297   6.527   1.937 -0.8252  0.0708  0.6146
 6386TIP3    H140649   3.309   6.457   2.002 -1.2163  0.2731  0.9076
 6386TIP3    H240650   3.309   6.483   1.853 -1.3383 -0.4161  0.7849
 6387TIP3   OH240651   1.698   5.767   1.982  0.8253  0.5001  0.1074
 6387TIP3    H140652   1.607   5.777   2.011  0.6624  0.2588 -0.3046
 6387TIP3    H240653   1.740   5.848   2.009  0.7981  0.0977  1.4049
 6388TIP3   OH240654   6.116   6.670  11.079 -0.2119  0.3144 -0.2597
 6388TIP3    H140655   6.191   6.711  11.035 -1.2085  0.4292 -1.9279
 6388TIP3    H240656   6.042   6.689  11.022 -1.2392 -1.1911  0.5218
 6389TIP3   OH240657   3.111   2.789  12.075 -0.2694  0.3481  0.1638
 6389TIP3    H140658   3.122   2.855  12.144  2.3333 -0.4587  0.6343
 6389TIP3    H240659   3.094   2.840  11.996  1.9153  1.7033  0.4613
 6390TIP3   OH240660   3.140   5.279   2.344 -0.6794 -0.6299  0.0859
 6390TIP3    H140661   3.142   5.308   2.435 -1.1838 -3.4297  1.0885
 6390TIP3    H240662   3.071   5.331   2.303 -2.1520 -1.0063  1.9739
 6391TIP3   OH240663   4.615   0.725   1.561 -0.6065 -0.6288  0.0157
 6391TIP3    H140664   4.659   0.781   1.496 -1.6305  0.9551  0.6285
 6391TIP3    H240665   4.644   0.760   1.646 -1.2595 -1.0432  0.4136
 6392TIP3   OH240666   2.695   0.158  10.214 -0.9757  0.1544  0.0518
 6392TIP3    H140667   2.754   0.115  10.276  0.2103  2.6652  0.8146
 6392TIP3    H240668   2.675   0.242  10.254 -2.0800  0.9082 -1.9338
 6393TIP3   OH240669   1.353   2.662   2.943  0.3122  0.0342  0.3217
 6393TIP3    H140670   1.438   2.622   2.963 -0.9704 -2.0762  1.9415
 6393TIP3    H240671   1.308   2.597   2.889 -1.1732 -0.0105  1.5443
 6394TIP3   OH240672   2.064   6.105   5.681  0.5342 -0.0753  0.2095
 6394TIP3    H140673   2.045   6.198   5.667  0.1718 -0.4377 -2.0355
 6394TIP3    H240674   2.129   6.104   5.751  0.0044  1.8058  0.7995
 6395TIP3   OH240675   2.260   1.474   3.233 -0.0593 -0.3267  0.3893
 6395TIP3    H140676   2.280   1.380   3.234 -0.9482 -0.6811 -3.0220
 6395TIP3    H240677   2.192   1.484   3.300  0.2601 -2.0343  1.0193
 6396TIP3   OH240678   3.773   3.019   3.769  0.2266 -0.4504 -0.3835
 6396TIP3    H140679   3.809   3.000   3.682  1.2102 -0.8797  0.1019
 6396TIP3    H240680   3.842   2.992   3.830 -0.6820 -0.6980  0.5573
 6397TIP3   OH240681   1.060   6.515  12.973  0.2184 -0.4563 -0.2757
 6397TIP3    H140682   0.965   6.514  12.974  0.2014 -1.7218 -1.2428
 6397TIP3    H240683   1.084   6.497  12.882  1.3889  0.5596 -0.2021
 6398TIP3   OH240684   6.814   5.415  11.672  0.0156 -0.0279  0.5807
 6398TIP3    H140685   6.796   5.458  11.755 -2.0166  1.0203 -0.3515
 6398TIP3    H240686   6.903   5.442  11.650 -0.0509  1.0744  1.5799
 6399TIP3   OH240687   3.819   2.536   2.082  0.1855 -0.2265  0.1893
 6399TIP3    H140688   3.891   2.559   2.140  0.7742 -1.2035 -0.1331
 6399TIP3    H240689   3.798   2.445   2.105 -1.6811  0.3550  1.0400
 6400TIP3   OH240690   3.290   2.362   1.698  0.1483 -0.1022  0.2995
 6400TIP3    H140691   3.227   2.290   1.696 -0.3163  0.1988  2.0564
 6400TIP3    H240692   3.236   2.441   1.694  0.4253  0.1490  1.1592
 6401TIP3   OH240693   5.441   5.152   0.567  0.5973  0.2950 -0.1403
 6401TIP3    H140694   5.448   5.059   0.545 -1.0842 -0.0494  0.6115
 6401TIP3    H240695   5.511   5.194   0.517  0.2955 -1.1404 -1.8782
 6402TIP3   OH240696   5.781   6.418   0.087 -0.2115  0.7303 -0.1085
 6402TIP3    H140697   5.694   6.386   0.114 -0.3558  1.2008 -0.0095
 6402TIP3    H240698   5.765   6.508   0.059  0.1196  0.5790 -0.7918
 6403TIP3   OH240699   3.166   1.102  14.290  0.6328 -0.5771  0.1539
 6403TIP3    H140700   3.244   1.156  14.303 -0.4166  1.5326 -1.8108
 6403TIP3    H240701   3.201   1.015  14.270  2.3722 -0.5430  2.5537
 6404TIP3   OH240702   6.700   2.991   1.731 -0.4738 -0.4642  0.0468
 6404TIP3    H140703   6.765   2.976   1.800  0.8868  0.1322 -1.0361
 6404TIP3    H240704   6.662   3.076   1.752 -3.3411 -2.1596  2.4701
 6405TIP3   OH240705   6.007   3.063   1.453 -0.2349  0.0293 -0.5281
 6405TIP3    H140706   6.012   2.999   1.381  0.6557 -0.8034  0.2365
 6405TIP3    H240707   6.096   3.098   1.459 -0.2220 -0.1432  0.3653
 6406TIP3   OH240708   4.568   3.791   1.152 -0.6973 -0.0615 -0.0396
 6406TIP3    H140709   4.548   3.759   1.064 -0.6359 -1.2656  0.3646
 6406TIP3    H240710   4.633   3.729   1.185 -0.6406  0.4452  0.8189
 6407TIP3   OH240711   6.661   1.709   5.482 -0.3311  0.3280  0.0431
 6407TIP3    H140712   6.680   1.633   5.536 -0.7695  0.1401 -0.0624
 6407TIP3    H240713   6.572   1.695   5.450 -0.3363  0.7765 -0.1581
 6408TIP3   OH240714   4.369   6.160   6.780  0.0653 -0.3970 -0.7216
 6408TIP3    H140715   4.377   6.108   6.859  1.4333  0.4578 -0.2709
 6408TIP3    H240716   4.315   6.107   6.721  2.7166 -3.0727 -0.9167
 6409TIP3   OH240717   2.627   2.437   1.101 -0.2833 -0.6361 -0.0413
 6409TIP3    H140718   2.636   2.500   1.172 -1.6624 -0.5610  0.1121
 6409TIP3    H240719   2.635   2.351   1.143  0.3679 -0.5794 -0.0455
 6410TIP3   OH240720   5.524   1.647   3.104  0.0662  0.5734 -0.1036
 6410TIP3    H140721   5.617   1.670   3.112  0.2747  0.6363 -2.1489
 6410TIP3    H240722   5.509   1.644   3.010 -2.3979  2.1450  0.1656
 6411TIP3   OH240723   2.712   5.246  17.101 -0.2746 -0.2984 -0.3590
 6411TIP3    H140724   2.786   5.187  17.115 -0.7592 -0.5095  1.6965
 6411TIP3    H240725   2.746   5.314  17.043  0.6713 -1.8777 -1.7361
 6412TIP3   OH240726   1.111   3.703   5.586  0.3803 -0.2824 -0.1125
 6412TIP3    H140727   1.127   3.791   5.552  0.1362 -0.2179 -0.0662
 6412TIP3    H240728   1.135   3.708   5.678 -2.0414  0.4641  0.5606
 6413TIP3   OH240729   1.311   3.954  11.520 -0.7104  0.6542 -0.2020
 6413TIP3    H140730   1.259   4.005  11.582 -0.8168  1.6445 -1.0791
 6413TIP3    H240731   1.275   3.866  11.525 -1.5661  1.0199  0.2069
 6414TIP3   OH240732   5.712   0.643   0.813 -0.1043 -0.0298 -0.0830
 6414TIP3    H140733   5.756   0.668   0.732  0.4920  2.4982  0.9310
 6414TIP3    H240734   5.687   0.726   0.854 -0.2187 -1.1839  2.3940
 6415TIP3   OH240735   1.336   0.926  12.041 -0.1750 -0.1295  0.5036
 6415TIP3    H140736   1.417   0.976  12.030 -0.8895  0.7763 -1.0027
 6415TIP3    H240737   1.276   0.988  12.082 -0.6927 -0.1172 -0.2468
 6416TIP3   OH240738   4.130   3.871  12.170  0.1344 -0.3390  0.3094
 6416TIP3    H140739   4.178   3.944  12.131  2.4339 -1.8947  0.0413
 6416TIP3    H240740   4.040   3.903  12.177  1.1385  2.7067  0.7646
 6417TIP3   OH240741   1.143   3.309   4.569  0.4110 -0.0125 -0.0810
 6417TIP3    H140742   1.179   3.391   4.536  1.5356 -0.0503  0.9731
 6417TIP3    H240743   1.180   3.242   4.512  1.8335 -0.0218  0.8063
 6418TIP3   OH240744   5.155   0.170   3.892  0.4067  0.5642  0.2008
 6418TIP3    H140745   5.220   0.191   3.824 -0.9364  1.9776 -0.7132
 6418TIP3    H240746   5.071   0.182   3.849 -0.6351 -3.7655  0.5509
 6419TIP3   OH240747   5.303   0.483  12.636  0.5239 -0.2115  0.0857
 6419TIP3    H140748   5.374   0.533  12.596 -0.3620  0.4998 -0.6088
 6419TIP3    H240749   5.261   0.544  12.696  1.4859 -1.1043  1.7371
 6420TIP3   OH240750   5.725   6.142   0.244  0.3134  0.0451 -0.2623
 6420TIP3    H140751   5.778   6.221   0.260  0.8260 -0.6008  1.5534
 6420TIP3    H240752   5.776   6.071   0.284  0.0690 -1.3163 -2.2438
 6421TIP3   OH240753   5.701   5.161   2.407  0.2008  0.3691  0.3416
 6421TIP3    H140754   5.735   5.154   2.318  0.1392  0.3444  0.3199
 6421TIP3    H240755   5.631   5.226   2.402 -2.2570 -2.1146 -0.3875
 6422TIP3   OH240756   2.811   1.115  13.919 -0.5066  0.1618  0.0946
 6422TIP3    H140757   2.787   1.098  13.828  0.7964 -1.9333  0.0625
 6422TIP3    H240758   2.733   1.093  13.969 -0.4663 -1.1599 -0.3756
 6423TIP3   OH240759   5.113   2.995   0.652  0.0920  0.2999  0.3667
 6423TIP3    H140760   5.066   3.027   0.575 -0.7435 -0.9867  0.3201
 6423TIP3    H240761   5.206   3.006   0.630 -0.1409  0.4406 -0.5921
 6424TIP3   OH240762   0.158   1.271  15.891  0.1017 -0.0702 -0.7201
 6424TIP3    H140763   0.224   1.202  15.897  1.4360  0.8752 -3.0322
 6424TIP3    H240764   0.114   1.255  15.808  0.2174  1.6362 -1.1463
 6425TIP3   OH240765   0.090   1.431   0.475  0.5019 -0.3741 -0.3912
 6425TIP3    H140766   0.100   1.496   0.545 -0.9129 -1.0624  0.5180
 6425TIP3    H240767   0.133   1.469   0.400  0.4380  1.2521  0.3567
 6426TIP3   OH240768   3.505   2.716   0.636 -0.0643  0.2838 -0.0783
 6426TIP3    H140769   3.416   2.727   0.603  0.3567 -0.7447 -1.7052
 6426TIP3    H240770   3.508   2.626   0.668  0.6242  0.0039 -0.8880
 6427TIP3   OH240771   1.264   3.704   5.052 -0.3164  0.7856 -0.1817
 6427TIP3    H140772   1.273   3.638   5.121  1.5948  1.4621  0.2786
 6427TIP3    H240773   1.227   3.780   5.096 -1.2862  0.4721 -0.4315
 6428TIP3   OH240774   4.769   4.346   2.918 -0.2456  0.2136  0.3998
 6428TIP3    H140775   4.691   4.369   2.968 -0.1551  0.9184  0.2272
 6428TIP3    H240776   4.755   4.255   2.892 -0.1166 -0.2988  2.0164
 6429TIP3   OH240777   3.046   0.825   5.688  0.1319  0.1072 -0.0866
 6429TIP3    H140778   3.100   0.747   5.672  0.2185  0.1748 -0.1288
 6429TIP3    H240779   3.001   0.840   5.605 -1.1588 -0.8636  0.4063
 6430TIP3   OH240780   3.001   6.027  16.963  0.0822  0.1467  0.3316
 6430TIP3    H140781   3.049   6.052  16.884 -1.2432  0.1050 -0.5200
 6430TIP3    H240782   2.962   6.109  16.994 -0.7280 -0.1011 -0.0028
 6431TIP3   OH240783   6.090   1.908  16.437  0.5380 -0.6898  0.7671
 6431TIP3    H140784   6.025   1.979  16.436  2.0598  0.7774  1.2213
 6431TIP3    H240785   6.087   1.873  16.348  1.2630  1.4597 -0.1837
 6432TIP3   OH240786   5.621   5.321   4.777 -0.1906 -0.3288 -0.2609
 6432TIP3    H140787   5.525   5.317   4.768 -0.2104 -0.6094  0.0356
 6432TIP3    H240788   5.645   5.408   4.745 -0.3633 -0.8780 -1.9754
 6433TIP3   OH240789   3.218   1.461  14.838  0.3030 -0.5676  0.0344
 6433TIP3    H140790   3.187   1.408  14.911 -0.1411 -0.5099 -0.1058
 6433TIP3    H240791   3.178   1.547  14.852  1.1342 -0.2210  0.3419
 6434TIP3   OH240792   6.668   1.035  14.278 -0.1666 -0.3959 -0.1625
 6434TIP3    H140793   6.574   1.027  14.298 -0.3750 -0.1419 -1.0216
 6434TIP3    H240794   6.709   1.042  14.364 -1.0349  0.4448  0.2133
 6435TIP3   OH240795   4.272   5.378  16.415 -0.2465  0.1242 -0.0512
 6435TIP3    H140796   4.322   5.339  16.343  2.5240  1.7114  0.8778
 6435TIP3    H240797   4.267   5.471  16.393 -0.7920  0.3626  1.0520
 6436TIP3   OH240798   5.256   6.801  10.614 -0.2266 -0.2959  0.0223
 6436TIP3    H140799   5.230   6.893  10.606 -0.5704 -0.3658  0.3397
 6436TIP3    H240800   5.352   6.804  10.613 -0.2345  0.0834  0.1942
 6437TIP3   OH240801   2.004   2.327   2.671 -0.3433 -0.1664 -0.2005
 6437TIP3    H140802   1.979   2.302   2.582 -2.0767 -0.8134  0.4169
 6437TIP3    H240803   2.018   2.421   2.667 -1.6159  0.0189 -0.9295
 6438TIP3   OH240804   5.666   6.624  13.450  0.7529  0.4333 -0.0609
 6438TIP3    H140805   5.607   6.672  13.509 -0.0558  1.0302 -1.3155
 6438TIP3    H240806   5.754   6.644  13.482  0.3395  0.9898  0.7487
 6439TIP3   OH240807   1.994   3.146  15.309  0.1573  0.0704 -0.2963
 6439TIP3    H140808   1.947   3.140  15.392  1.2207 -0.6681  0.2874
 6439TIP3    H240809   1.930   3.121  15.243 -0.6713  0.5476  0.3060
 6440TIP3   OH240810   6.335   4.918  14.677 -0.2109 -0.0195 -0.5670
 6440TIP3    H140811   6.294   4.835  14.700  1.2616 -0.7482 -0.4285
 6440TIP3    H240812   6.424   4.912  14.712 -0.2727  1.9030  0.0455
 6441TIP3   OH240813   6.561   5.390   0.718  0.0370 -0.0254 -0.3635
 6441TIP3    H140814   6.630   5.325   0.708 -1.8929 -2.4351  0.7697
 6441TIP3    H240815   6.565   5.414   0.811 -0.3641  0.1623 -0.3947
 6442TIP3   OH240816   3.377   6.145   1.380 -0.0128 -0.4342 -0.2090
 6442TIP3    H140817   3.444   6.177   1.441  0.1375  1.4497 -1.2855
 6442TIP3    H240818   3.426   6.095   1.315 -0.0321 -1.4590  0.5406
 6443TIP3   OH240819   4.051   1.939   5.932  0.3886  0.1495 -0.3160
 6443TIP3    H140820   4.002   2.007   5.885  1.4223 -0.1283 -1.8818
 6443TIP3    H240821   4.067   1.871   5.867  1.2681 -0.6040  0.6399
 6444TIP3   OH240822   6.119   4.148   2.202  0.5902 -0.0619  0.2934
 6444TIP3    H140823   6.047   4.189   2.153  0.5720  1.3958  1.4665
 6444TIP3    H240824   6.089   4.059   2.218 -0.7810  0.3935  0.3934
 6445TIP3   OH240825   5.559   1.667   6.399 -0.1517 -0.0106 -0.4424
 6445TIP3    H140826   5.625   1.690   6.464  1.5502  0.1080 -2.1195
 6445TIP3    H240827   5.506   1.747   6.389  2.1603  1.4547 -2.0969
 6446TIP3   OH240828   3.603   3.225  14.238  0.2823 -0.0413 -0.1782
 6446TIP3    H140829   3.660   3.225  14.161  2.3942  0.2805  1.2970
 6446TIP3    H240830   3.536   3.290  14.218  0.1783 -0.6621 -2.1079
 6447TIP3   OH240831   1.596   2.126   3.444  0.1165 -0.3707  0.2140
 6447TIP3    H140832   1.679   2.126   3.395 -0.4129 -2.7719 -0.8299
 6447TIP3    H240833   1.591   2.039   3.482 -0.9735  0.4478  2.0753
 6448TIP3   OH240834   1.443   3.523   2.053  0.7033  0.5393  0.5841
 6448TIP3    H140835   1.359   3.554   2.018  1.1192 -1.0066 -2.0953
 6448TIP3    H240836   1.474   3.461   1.987  4.2434  1.4541  1.2105
 6449TIP3   OH240837   2.784   4.322   6.511  0.3234  0.4228 -0.0267
 6449TIP3    H140838   2.827   4.361   6.587 -0.3240 -0.6746  0.9491
 6449TIP3    H240839   2.816   4.372   6.436  1.5485  1.0634  0.8912
 6450TIP3   OH240840   3.891   3.673   1.715  0.6871 -1.0065  0.5912
 6450TIP3    H140841   3.973   3.639   1.752  1.9292 -0.3895 -1.4348
 6450TIP3    H240842   3.876   3.756   1.760  1.5588 -0.8043  0.5256
 6451TIP3   OH240843   3.855   4.942  15.238  0.1529  0.1865  0.1553
 6451TIP3    H140844   3.861   4.847  15.251  1.2596  0.1276 -0.5751
 6451TIP3    H240845   3.849   4.953  15.144 -2.2100  0.7923  0.3172
 6452TIP3   OH240846   6.301   2.582   6.491  0.1453  0.4623 -0.2902
 6452TIP3    H140847   6.353   2.643   6.439 -0.3116 -1.5113 -3.3047
 6452TIP3    H240848   6.210   2.603   6.468 -0.0706 -0.5307 -0.3825
 6453TIP3   OH240849   0.543   5.071   0.700 -0.3166  0.0827  0.1931
 6453TIP3    H140850   0.578   5.149   0.742 -0.0761 -0.1478  0.4289
 6453TIP3    H240851   0.486   5.104   0.630  1.9437  0.5070 -1.5757
 6454TIP3   OH240852   0.369   0.239  14.383 -0.1793 -0.7181  0.1043
 6454TIP3    H140853   0.422   0.161  14.369  0.0992 -0.7835  1.3540
 6454TIP3    H240854   0.308   0.214  14.453 -0.3933  0.0449  0.2001
 6455TIP3   OH240855   0.224   3.789   5.678 -0.6577 -0.2126  0.5534
 6455TIP3    H140856   0.259   3.719   5.622  0.8666 -0.6103  1.8913
 6455TIP3    H240857   0.133   3.765   5.693 -0.9158 -0.4347 -1.1864
 6456TIP3   OH240858   1.720   2.708   2.601 -0.5200 -0.1928 -1.0190
 6456TIP3    H140859   1.815   2.703   2.612 -0.7435 -2.2858  0.4831
 6456TIP3    H240860   1.704   2.798   2.574  1.8629  0.2506 -1.1869
 6457TIP3   OH240861   3.476   0.651   5.081  0.4806 -0.1273  0.1482
 6457TIP3    H140862   3.474   0.588   5.009 -1.7983 -0.7166  0.6689
 6457TIP3    H240863   3.551   0.624   5.135  0.5798 -1.3173 -0.5654
 6458TIP3   OH240864   2.771   0.217   6.804  0.0398  0.1479 -0.5607
 6458TIP3    H140865   2.680   0.225   6.832  0.6064  0.4989  1.3173
 6458TIP3    H240866   2.767   0.220   6.709 -1.9196  0.0308 -0.5238
 6459TIP3   OH240867   6.110   5.281  15.365  0.3785 -0.1533  0.2030
 6459TIP3    H140868   6.165   5.328  15.427  0.5112 -0.3768  0.2551
 6459TIP3    H240869   6.026   5.272  15.410  0.4166 -0.1491  0.2752
 6460TIP3   OH240870   2.587   4.921  14.989 -0.2869 -0.2549 -0.0763
 6460TIP3    H140871   2.649   4.886  14.925 -1.7176  2.2492 -3.1066
 6460TIP3    H240872   2.622   5.008  15.010 -2.2505  0.8923 -1.2763
 6461TIP3   OH240873   3.485   3.104  16.004  0.2580  0.1189 -0.7664
 6461TIP3    H140874   3.433   3.052  16.065  1.1420  0.8382  0.6430
 6461TIP3    H240875   3.545   3.041  15.964  2.5646  0.1892  2.2463
 6462TIP3   OH240876   6.039   3.716   4.103  0.1500 -0.5750  0.0950
 6462TIP3    H140877   5.971   3.654   4.079 -0.3409 -0.0079 -0.0033
 6462TIP3    H240878   6.078   3.681   4.183 -0.9108 -0.4048  0.6948
 6463TIP3   OH240879   0.196   4.542   2.939 -0.4239  0.5710 -0.2300
 6463TIP3    H140880   0.144   4.502   3.008  0.7042  1.0662  0.9434
 6463TIP3    H240881   0.211   4.472   2.876 -0.1909 -0.3089  0.7780
 6464TIP3   OH240882   4.186   5.993  16.044  0.1373  0.0101  0.6403
 6464TIP3    H140883   4.223   5.952  15.966  1.4184 -0.3960  1.4168
 6464TIP3    H240884   4.209   5.933  16.115 -0.9384  0.4002  1.3439
 6465TIP3   OH240885   0.210   1.612   2.530  0.2312  0.1616  0.1046
 6465TIP3    H140886   0.236   1.666   2.604  2.4404 -0.4714 -0.1267
 6465TIP3    H240887   0.184   1.529   2.570  1.1400 -0.0798  0.2351
 6466TIP3   OH240888   3.083   6.430  11.358  0.2548  0.0262  0.4094
 6466TIP3    H140889   2.991   6.455  11.356  0.5358  1.6987  3.1219
 6466TIP3    H240890   3.122   6.488  11.423  2.9760 -1.4642  0.2513
 6467TIP3   OH240891   4.047   0.118  11.156 -0.0363  0.2838  0.2627
 6467TIP3    H140892   4.126   0.142  11.108 -0.7332  0.3050 -0.9222
 6467TIP3    H240893   4.078   0.087  11.241  1.3056 -0.4814 -0.4719
 6468TIP3   OH240894   3.347   0.977   2.989  0.1751 -0.5731  0.0276
 6468TIP3    H140895   3.422   1.027   3.021 -0.0591 -0.7839  0.9224
 6468TIP3    H240896   3.377   0.941   2.905  0.6941  0.2215 -0.1355
 6469TIP3   OH240897   0.614   1.493   1.723  0.0134  0.6352  0.2391
 6469TIP3    H140898   0.641   1.543   1.646 -0.2821  0.6135  0.1228
 6469TIP3    H240899   0.560   1.554   1.773 -0.5383  0.3561 -0.0172
 6470TIP3   OH240900   5.644   3.442  14.725  0.2434 -0.1281  0.0056
 6470TIP3    H140901   5.555   3.405  14.725  0.2589 -0.1639  0.1052
 6470TIP3    H240902   5.632   3.532  14.754  0.3677 -0.4374  1.0705
 6471TIP3   OH240903   4.477   6.596   4.979  0.1554  0.1311  0.0347
 6471TIP3    H140904   4.404   6.656   4.965 -0.1245 -0.7495 -3.3052
 6471TIP3    H240905   4.543   6.648   5.025 -2.2082  1.1577  2.5207
 6472TIP3   OH240906   0.946   1.548   0.269 -0.2105 -0.1401 -0.4052
 6472TIP3    H140907   1.030   1.501   0.265  0.1769  0.4768  0.1801
 6472TIP3    H240908   0.944   1.586   0.357 -1.9245 -1.5870  0.2458
 6473TIP3   OH240909   1.295   3.454   5.795  0.4234 -0.1404  0.0010
 6473TIP3    H140910   1.212   3.418   5.826  0.5590  0.7051  1.4698
 6473TIP3    H240911   1.361   3.412   5.851  0.8883 -0.0921 -0.5032
 6474TIP3   OH240912   0.872   3.576   4.558 -0.2390  0.0507 -0.4591
 6474TIP3    H140913   0.921   3.496   4.581 -0.1870  0.4357  0.9006
 6474TIP3    H240914   0.928   3.647   4.589  0.0308  0.6824 -2.2728
 6475TIP3   OH240915   1.653   4.992   3.678  0.0151 -0.3856 -0.1054
 6475TIP3    H140916   1.623   5.059   3.617 -0.0791  0.1133  0.4732
 6475TIP3    H240917   1.723   4.946   3.632  0.9844  0.9673 -0.0463
 6476TIP3   OH240918   4.903   1.175  16.877  0.2215  0.2612 -0.6575
 6476TIP3    H140919   4.839   1.108  16.903  0.1958  0.3667 -0.4476
 6476TIP3    H240920   4.863   1.217  16.800  0.6891 -0.6235 -1.3993
 6477TIP3   OH240921   3.019   0.973  15.341  0.9458 -0.8358 -0.1916
 6477TIP3    H140922   3.096   0.916  15.336  1.6795  0.1820 -0.8279
 6477TIP3    H240923   2.962   0.929  15.404  2.9001 -0.6340  1.8746
 6478TIP3   OH240924   2.139   0.423  11.713 -0.0195  0.0733 -0.2889
 6478TIP3    H140925   2.130   0.402  11.805 -0.0825  0.3615 -0.2281
 6478TIP3    H240926   2.093   0.506  11.703 -0.2513 -0.0929 -0.6331
 6479TIP3   OH240927   4.069   1.631  12.258  0.2236  0.1838  0.1249
 6479TIP3    H140928   4.164   1.642  12.254  0.1108  1.5425  0.7676
 6479TIP3    H240929   4.035   1.691  12.191 -0.2119  0.1772  0.3376
 6480TIP3   OH240930   0.512   4.369  11.343 -0.2245  0.0506  0.0682
 6480TIP3    H140931   0.476   4.283  11.366  1.0074 -0.5758 -0.2252
 6480TIP3    H240932   0.604   4.364  11.371  0.3583  0.5987 -1.6037
 6481TIP3   OH240933   2.265   6.665   6.132 -0.5077 -0.2824  0.7359
 6481TIP3    H140934   2.302   6.690   6.217  0.8255  0.3689 -0.0034
 6481TIP3    H240935   2.206   6.737   6.110 -0.4392 -0.1859  0.8630
 6482TIP3   OH240936   0.783   2.521  15.043  0.6632 -0.0520 -0.0618
 6482TIP3    H140937   0.781   2.432  15.077 -0.7515  0.6508  1.8816
 6482TIP3    H240938   0.692   2.543  15.027  0.8667  1.4659  0.6916
 6483TIP3   OH240939   5.301   2.255  15.579 -1.1743 -0.2537  0.1669
 6483TIP3    H140940   5.307   2.338  15.626 -1.2847  0.7444 -1.5022
 6483TIP3    H240941   5.313   2.188  15.647 -0.6811  1.1154  1.4914
 6484TIP3   OH240942   4.855   4.769  11.275  0.5863  0.6309 -0.0837
 6484TIP3    H140943   4.831   4.746  11.364 -0.5691  2.7722  0.2456
 6484TIP3    H240944   4.822   4.697  11.221 -1.5824  0.7590  0.9602
 6485TIP3   OH240945   1.279   2.475  15.992  0.3932 -0.4637 -0.1118
 6485TIP3    H140946   1.350   2.412  15.990  1.3066  0.5477 -0.2108
 6485TIP3    H240947   1.240   2.465  16.079  2.5334  0.9605  1.0979
 6486TIP3   OH240948   5.544   1.505   1.852 -0.6656 -0.1150 -0.1155
 6486TIP3    H140949   5.584   1.422   1.878 -0.3199 -0.1383 -0.7116
 6486TIP3    H240950   5.479   1.482   1.786  0.3149  0.2017 -1.2245
 6487TIP3   OH240951   4.445   3.354   5.869  0.7594 -0.0985  0.7171
 6487TIP3    H140952   4.461   3.448   5.876  0.5677 -0.1569  2.2276
 6487TIP3    H240953   4.353   3.348   5.845 -0.5971  0.1418  5.0322
 6488TIP3   OH240954   3.422   6.585  11.327  0.5365  0.4402  0.2303
 6488TIP3    H140955   3.497   6.645  11.331  1.1267 -0.2141 -0.6722
 6488TIP3    H240956   3.358   6.623  11.387  1.2329  1.5100  0.3246
 6489TIP3   OH240957   1.170   0.627   2.844 -0.0530  0.1773 -0.0162
 6489TIP3    H140958   1.083   0.594   2.866  0.0546 -0.2090 -0.1613
 6489TIP3    H240959   1.224   0.548   2.835  0.4359  0.4345  0.5974
 6490TIP3   OH240960   1.070   4.104  13.235 -0.5014 -0.1125 -0.7205
 6490TIP3    H140961   1.081   4.183  13.183  0.3627  0.6433  0.5631
 6490TIP3    H240962   1.098   4.033  13.177  0.9870  0.7581 -1.1332
 6491TIP3   OH240963   5.866   0.099   5.641  0.1231 -0.2083 -0.1190
 6491TIP3    H140964   5.857   0.007   5.666  0.0939  0.3363  2.1463
 6491TIP3    H240965   5.895   0.142   5.721  3.0337  1.3295 -1.8392
 6492TIP3   OH240966   2.480   0.697  11.622 -1.0553 -0.1400  0.8884
 6492TIP3    H140967   2.539   0.764  11.657 -1.1189  0.8422 -0.8038
 6492TIP3    H240968   2.409   0.746  11.582 -0.9242 -1.1742 -0.7215
 6493TIP3   OH240969   4.328   4.397   4.849 -0.2332 -0.2428 -0.4794
 6493TIP3    H140970   4.331   4.343   4.928  0.9537 -0.0908 -0.3914
 6493TIP3    H240971   4.420   4.415   4.829 -0.4876 -0.5908 -2.1167
 6494TIP3   OH240972   4.555   6.525   0.177  0.5589 -0.1168 -0.3053
 6494TIP3    H140973   4.584   6.608   0.215  0.7490  0.2984 -1.3292
 6494TIP3    H240974   4.628   6.497   0.121  0.6989 -1.2253  0.3843
 6495TIP3   OH240975   3.631   3.580   5.867  0.1760  0.0636 -0.1205
 6495TIP3    H140976   3.541   3.594   5.898  0.2614  0.9244 -0.2224
 6495TIP3    H240977   3.667   3.669   5.860  1.0566 -0.2796 -0.0086
 6496TIP3   OH240978   4.456   4.149   0.844 -0.1286 -0.2940 -0.0560
 6496TIP3    H140979   4.433   4.118   0.932 -1.0264 -0.8711 -0.4833
 6496TIP3    H240980   4.550   4.167   0.849  0.2793 -2.2713  0.4726
 6497TIP3   OH240981   3.111   5.399   5.942 -0.0075  0.2279 -0.2709
 6497TIP3    H140982   3.113   5.401   6.037  0.7684  0.2399 -0.2828
 6497TIP3    H240983   3.023   5.368   5.920 -0.6052  1.3802  0.4305
 6498TIP3   OH240984   4.774   3.913  12.918 -0.3485  0.1782  0.5697
 6498TIP3    H140985   4.687   3.897  12.882 -0.3313 -1.2259  1.0661
 6498TIP3    H240986   4.831   3.918  12.841 -0.6480 -0.4896  0.2928
 6499TIP3   OH240987   1.683   2.482  14.088  0.8065  0.3340 -0.6254
 6499TIP3    H140988   1.739   2.560  14.081 -0.8854  1.6015 -0.6775
 6499TIP3    H240989   1.600   2.509  14.049  0.0617 -1.4210 -0.3459
 6500TIP3   OH240990   4.159   0.061  14.823 -0.0676  0.5477 -0.6141
 6500TIP3    H140991   4.091   0.047  14.757 -0.0224  2.3376 -1.0891
 6500TIP3    H240992   4.176   0.155  14.821  0.0856  0.6497  1.8263
 6501TIP3   OH240993   1.431   0.612  11.728 -0.1370 -0.4283 -0.5616
 6501TIP3    H140994   1.365   0.674  11.758  0.9943  0.7532 -0.4081
 6501TIP3    H240995   1.514   0.650  11.757  0.5945 -2.0515 -0.4296
 6502TIP3   OH240996   0.446   0.171   5.317  0.2578  0.0317 -0.5049
 6502TIP3    H140997   0.478   0.082   5.325  1.3048  0.4817  0.6751
 6502TIP3    H240998   0.418   0.195   5.406  1.1295  1.2745 -0.5343
 6503TIP3   OH240999   5.786   6.686   0.251 -0.1774 -0.3199 -0.1206
 6503TIP3    H141000   5.796   6.688   0.156 -1.4962  0.9349 -0.2594
 6503TIP3    H241001   5.695   6.712   0.266 -0.2240 -1.2915  1.4567
 6504TIP3   OH241002   2.975   2.682  16.915 -0.1236 -0.2170 -0.0454
 6504TIP3    H141003   2.906   2.748  16.914  0.6203  0.6802  1.8939
 6504TIP3    H241004   2.964   2.634  16.833 -1.7619  1.2015 -0.7157
 6505TIP3   OH241005   0.975   6.169   2.166 -0.2296 -0.2455  0.2511
 6505TIP3    H141006   1.055   6.186   2.117  0.2243 -0.1633  1.0011
 6505TIP3    H241007   0.988   6.083   2.205 -0.6350 -0.3605  0.1383
 6506TIP3   OH241008   1.836   2.292   2.146 -0.2913  0.2629 -0.1013
 6506TIP3    H141009   1.865   2.240   2.071  1.7603  1.0750  0.0728
 6506TIP3    H241010   1.804   2.374   2.108 -2.1445 -0.4847 -0.2631
 6507TIP3   OH241011   3.784   1.498   1.356  0.0325 -0.1891 -0.3299
 6507TIP3    H141012   3.720   1.474   1.424  1.6162 -1.6778  0.7302
 6507TIP3    H241013   3.732   1.511   1.277 -1.7039 -0.0135  0.7814
 6508TIP3   OH241014   0.167   0.945   3.304  0.3447 -0.4253 -0.3932
 6508TIP3    H141015   0.082   0.972   3.268 -0.9377 -1.3467  1.7254
 6508TIP3    H241016   0.216   1.027   3.315 -0.7654  0.2736 -0.4921
 6509TIP3   OH241017   0.255   3.325  15.728  0.1836  0.2694 -0.0327
 6509TIP3    H141018   0.275   3.287  15.813 -0.7896  1.0548  0.5726
 6509TIP3    H241019   0.164   3.298  15.710 -0.5915  2.3266  0.4735
 6510TIP3   OH241020   6.825   3.984   3.786  0.3896  0.2559  0.0147
 6510TIP3    H141021   6.865   3.907   3.743 -0.1766  0.3673 -0.7415
 6510TIP3    H241022   6.732   3.964   3.786  0.1454  1.2973 -0.9503
 6511TIP3   OH241023   6.769   3.417   4.517 -0.1338 -0.3120  0.3770
 6511TIP3    H141024   6.818   3.495   4.489  2.9028 -1.9051  0.7999
 6511TIP3    H241025   6.732   3.382   4.436 -0.6062  0.9665  0.0235
 6512TIP3   OH241026   4.765   3.612   4.956 -0.3518 -0.5124  0.0275
 6512TIP3    H141027   4.742   3.537   5.011  0.1665  0.4844  1.6437
 6512TIP3    H241028   4.769   3.575   4.867  1.6650 -2.8106  0.9680
 6513TIP3   OH241029   1.031   6.701  16.867 -0.5391 -0.4465  0.0465
 6513TIP3    H141030   1.001   6.660  16.787  0.7820  0.8041 -1.1663
 6513TIP3    H241031   0.953   6.741  16.906 -1.0687 -0.4187 -1.0324
 6514TIP3   OH241032   0.459   4.604   2.627 -0.2193 -0.2740  0.0604
 6514TIP3    H141033   0.444   4.657   2.705 -0.7188 -1.2817  0.6718
 6514TIP3    H241034   0.374   4.598   2.585 -0.1544 -0.5361 -0.0361
 6515TIP3   OH241035   1.633   4.171  11.024 -0.0981 -0.5894 -0.2819
 6515TIP3    H141036   1.566   4.195  10.961  1.0874  1.2422 -0.9322
 6515TIP3    H241037   1.710   4.221  10.997  0.3087  0.7511  2.9364
 6516TIP3   OH241038   3.129   6.179   4.764 -0.9210 -0.5438 -0.0727
 6516TIP3    H141039   3.201   6.117   4.756  0.0219  0.3685  0.9855
 6516TIP3    H241040   3.171   6.263   4.785 -2.3049 -0.2163  1.7067
 6517TIP3   OH241041   0.542   4.653   3.901  0.1937 -0.0514 -0.3441
 6517TIP3    H141042   0.483   4.580   3.916  0.6472 -0.3657 -0.0540
 6517TIP3    H241043   0.569   4.645   3.810 -0.9930  0.6834 -0.7772
 6518TIP3   OH241044   3.778   1.299   2.678 -0.6772  0.3696 -0.3291
 6518TIP3    H141045   3.732   1.366   2.729  0.6456  0.4958  0.7597
 6518TIP3    H241046   3.827   1.348   2.613  0.2599  0.4793  0.4426
 6519TIP3   OH241047   6.356   2.473  14.948  0.3897 -0.1708 -0.8305
 6519TIP3    H141048   6.441   2.512  14.927  1.2701 -2.7226 -2.3624
 6519TIP3    H241049   6.349   2.396  14.891 -2.0542 -1.2059  0.6901
 6520TIP3   OH241050   4.090   6.261  15.810 -0.3781 -0.0422 -0.3342
 6520TIP3    H141051   4.063   6.279  15.719 -0.4366 -1.4166 -0.6084
 6520TIP3    H241052   4.164   6.201  15.801 -0.5586 -0.4016  0.5355
 6521TIP3   OH241053   4.918   3.345  13.157 -0.4102  0.4532  1.1148
 6521TIP3    H141054   4.896   3.433  13.187 -1.1110  0.4951  0.5091
 6521TIP3    H241055   4.886   3.287  13.227  0.0420  0.6725  1.5086
 6522TIP3   OH241056   3.898   4.293  11.198  0.0543 -0.2028  0.2343
 6522TIP3    H141057   3.919   4.243  11.277 -0.4281 -0.6802  0.0709
 6522TIP3    H241058   3.802   4.288  11.192 -0.1224  1.6842  0.8246
 6523TIP3   OH241059   1.830   2.644   6.451 -0.5603  0.4554 -0.4298
 6523TIP3    H141060   1.803   2.553   6.434 -0.6919  0.1586  1.1885
 6523TIP3    H241061   1.895   2.637   6.521 -1.6322  1.6869  0.7474
 6524TIP3   OH241062   0.603   3.999   4.027  0.0810 -0.3711 -0.1838
 6524TIP3    H141063   0.620   3.921   3.975 -2.5642 -0.6018 -0.8768
 6524TIP3    H241064   0.560   3.966   4.106  1.2784  0.2193  0.7420
 6525TIP3   OH241065   3.983   4.196  15.245  0.4099  0.0584 -0.6008
 6525TIP3    H141066   4.018   4.153  15.167  0.0075 -0.3745 -0.5516
 6525TIP3    H241067   3.906   4.144  15.268 -0.5133  1.2223 -0.9548
 6526TIP3   OH241068   3.336   1.569   0.029 -0.9737  0.2308  0.0215
 6526TIP3    H141069   3.280   1.629   0.079 -1.7510 -0.2740 -0.2098
 6526TIP3    H241070   3.291   1.559  -0.055 -1.7985 -1.9702  0.6345
 6527TIP3   OH241071   3.456   1.250  11.802 -0.1979  0.8429  0.4488
 6527TIP3    H141072   3.384   1.311  11.788 -0.3417  0.8621  1.2136
 6527TIP3    H241073   3.523   1.278  11.740 -1.7779 -0.7809 -2.1987
 6528TIP3   OH241074   1.940   2.120  14.982 -0.7487 -0.7733  0.9890
 6528TIP3    H141075   1.911   2.165  14.903 -0.4254  0.8537  1.7616
 6528TIP3    H241076   1.869   2.060  15.003 -0.1343 -2.5023 -1.4500
 6529TIP3   OH241077   0.046   5.713  10.998  0.2265  0.0676  0.4183
 6529TIP3    H141078  -0.015   5.782  11.025 -0.2255 -0.2119  0.1325
 6529TIP3    H241079   0.126   5.760  10.975 -0.2968  0.5806 -0.4425
 6530TIP3   OH241080   1.312   2.427  17.018 -0.3311  0.6392  0.3619
 6530TIP3    H141081   1.274   2.363  17.079  0.0702 -0.0184 -0.0688
 6530TIP3    H241082   1.314   2.382  16.934  4.1929 -0.5911  0.8661
 6531TIP3   OH241083   1.064   3.520  11.624  0.3996 -0.4589 -0.0788
 6531TIP3    H141084   1.104   3.585  11.682  1.8747 -3.1838  2.1694
 6531TIP3    H241085   0.975   3.509  11.657  0.1631  0.3179 -0.4329
 6532TIP3   OH241086   5.070   4.837  12.348 -0.7154  0.1642  0.6992
 6532TIP3    H141087   5.021   4.756  12.364 -0.1357 -0.1333  0.9976
 6532TIP3    H241088   5.011   4.907  12.378 -1.8393 -0.0207 -0.9390
 6533TIP3   OH241089   6.437   3.347   2.154 -0.3623 -1.1375  0.5314
 6533TIP3    H141090   6.469   3.434   2.177 -0.5100 -0.8822 -0.1876
 6533TIP3    H241091   6.413   3.307   2.237 -0.5316 -0.3920  0.8529
 6534TIP3   OH241092   5.460   2.965  11.811  0.2700 -0.1965  0.0436
 6534TIP3    H141093   5.396   2.962  11.740  1.5952  0.7624 -1.2420
 6534TIP3    H241094   5.542   2.987  11.769  1.5460 -1.6723  1.6019
 6535TIP3   OH241095   1.131   5.742  11.786  0.1147  0.3552  0.2420
 6535TIP3    H141096   1.080   5.667  11.756 -0.7818  0.6482  0.9487
 6535TIP3    H241097   1.156   5.719  11.876  1.3140  0.1885 -0.1235
 6536TIP3   OH241098   1.012   5.138   2.248 -0.1614 -0.4970 -0.2590
 6536TIP3    H141099   1.087   5.183   2.209 -0.0360 -0.8761 -0.4709
 6536TIP3    H241100   0.940   5.154   2.187 -0.3343  0.1234  0.1010
 6537TIP3   OH241101   1.106   1.306  12.445  0.5603 -0.0255 -0.0624
 6537TIP3    H141102   1.119   1.216  12.416  0.5857  0.2789 -1.0295
 6537TIP3    H241103   1.190   1.331  12.484  0.0974 -0.8950  1.6049
 6538TIP3   OH241104   2.278   5.010   4.627  0.2651 -0.2799  0.1033
 6538TIP3    H141105   2.261   4.917   4.636  1.1681 -0.4874 -0.1746
 6538TIP3    H241106   2.223   5.038   4.554  0.5954 -0.7823 -0.3508
 6539TIP3   OH241107   3.262   2.405  11.309  0.6032  0.3316 -0.4042
 6539TIP3    H141108   3.264   2.489  11.353  0.9024  0.7426 -1.1820
 6539TIP3    H241109   3.171   2.375  11.317  0.3216  1.0736 -0.7542
 6540TIP3   OH241110   4.594   6.210   1.381 -0.7408  0.1963 -0.0746
 6540TIP3    H141111   4.550   6.222   1.466 -1.5128  2.2074 -0.7055
 6540TIP3    H241112   4.555   6.130   1.345  0.9044 -1.8039  2.1682
 6541TIP3   OH241113   6.044   5.374  15.066 -0.4176 -0.8638 -0.1764
 6541TIP3    H141114   6.071   5.284  15.080  1.1846 -0.3817 -0.0346
 6541TIP3    H241115   5.953   5.377  15.097  0.1209 -1.9825  1.6493
 6542TIP3   OH241116   4.788   6.137  13.119  0.1000 -0.1280 -0.7014
 6542TIP3    H141117   4.724   6.091  13.064 -1.2983 -1.3897  1.8111
 6542TIP3    H241118   4.767   6.110  13.208  1.3434  2.8960  0.6555
 6543TIP3   OH241119   3.157   5.401   2.581 -0.1613 -0.3740 -0.2177
 6543TIP3    H141120   3.184   5.389   2.672 -0.0236 -0.1153 -0.2234
 6543TIP3    H241121   3.111   5.486   2.581 -1.2742 -0.9513 -0.1385
 6544TIP3   OH241122   2.506   4.048   2.168 -0.2096 -0.3620 -0.2032
 6544TIP3    H141123   2.485   3.972   2.114 -1.2655 -1.3818  1.5358
 6544TIP3    H241124   2.422   4.075   2.205  0.2924  1.1035 -0.0681
 6545TIP3   OH241125   5.182   0.918  17.099 -0.8358 -0.1388  0.1707
 6545TIP3    H141126   5.122   0.844  17.104 -0.4739 -0.6108 -1.6780
 6545TIP3    H241127   5.188   0.938  17.005  2.2475 -0.4338  0.1742
 6546TIP3   OH241128   3.866   0.193   4.943  0.4563 -0.3686  1.1434
 6546TIP3    H141129   3.815   0.236   4.875  0.5027  0.3977  1.5746
 6546TIP3    H241130   3.871   0.102   4.916  0.7929 -0.0009 -0.0588
 6547TIP3   OH241131   2.507   3.764  16.387  0.7694  0.5672 -0.5024
 6547TIP3    H141132   2.526   3.805  16.303 -0.4306  0.2725 -0.9421
 6547TIP3    H241133   2.489   3.837  16.446  1.1519  0.7567 -0.6174
 6548TIP3   OH241134   4.568   4.509  14.123  0.2860 -0.6261 -0.5760
 6548TIP3    H141135   4.593   4.497  14.032 -0.9380  0.0315 -1.0112
 6548TIP3    H241136   4.542   4.600  14.130  0.8332 -0.5384  0.5558
 6549TIP3   OH241137   2.580   3.631  11.116 -0.1977 -0.2073 -0.3407
 6549TIP3    H141138   2.648   3.669  11.171 -0.3749 -0.2243 -0.1047
 6549TIP3    H241139   2.574   3.540  11.145  0.0952 -0.3704 -0.7735
 6550TIP3   OH241140   6.040   4.298  15.624  0.4489  0.0294  0.3364
 6550TIP3    H141141   6.066   4.388  15.644 -4.3529  2.2826 -1.9233
 6550TIP3    H241142   5.976   4.277  15.692  1.9038 -2.0522  1.1532
 6551TIP3   OH241143   0.664   2.683   5.993  0.5610  0.0956  0.2843
 6551TIP3    H141144   0.651   2.774   6.018 -1.5441 -0.6779  2.4211
 6551TIP3    H241145   0.742   2.656   6.042  0.6541  0.4939  0.3608
 6552TIP3   OH241146   4.998   1.919   2.842  0.5740 -0.3900 -0.1745
 6552TIP3    H141147   5.067   1.964   2.794 -0.7712  1.6002 -0.3650
 6552TIP3    H241148   5.000   1.958   2.930 -0.8013  0.3345 -0.4275
 6553TIP3   OH241149   3.740   3.830   1.920  0.1997 -0.2525  0.7693
 6553TIP3    H141150   3.730   3.899   1.855  0.4538 -1.3970 -0.5354
 6553TIP3    H241151   3.703   3.867   2.000 -2.5088  0.3226 -0.6301
 6554TIP3   OH241152   4.588   6.766  15.098 -0.0760 -0.1068  0.3537
 6554TIP3    H141153   4.547   6.852  15.093  1.3764  0.5587 -0.9197
 6554TIP3    H241154   4.590   6.735  15.007  2.6172  0.1345  0.2514
 6555TIP3   OH241155   3.145   2.572   5.022 -0.2471  0.1910  0.1033
 6555TIP3    H141156   3.174   2.653   5.064 -0.4714  0.5946 -0.4915
 6555TIP3    H241157   3.215   2.551   4.960 -0.0413 -0.2486  0.4845
 6556TIP3   OH241158   5.782   0.636   0.389  0.7820  0.2073  0.1460
 6556TIP3    H141159   5.779   0.665   0.298  0.2031 -0.7787 -0.1651
 6556TIP3    H241160   5.742   0.709   0.438 -2.8932 -0.8971 -0.8805
 6557TIP3   OH241161   5.372   4.102   0.876  0.2206 -0.2360 -1.0391
 6557TIP3    H141162   5.467   4.100   0.869  0.1865 -0.1827 -1.5418
 6557TIP3    H241163   5.355   4.093   0.970  0.7196 -0.2246 -0.9438
 6558TIP3   OH241164   2.011   4.973  12.356 -0.4868  0.5457  0.5998
 6558TIP3    H141165   2.052   4.926  12.429 -0.2404 -0.7885 -0.3629
 6558TIP3    H241166   1.918   4.970  12.375 -0.4442 -0.0146  0.7446
 6559TIP3   OH241167   5.171   2.208   3.043 -0.0914  0.4769 -0.0692
 6559TIP3    H141168   5.205   2.246   2.962  0.5086 -0.8357 -0.4719
 6559TIP3    H241169   5.184   2.275   3.109  1.1469  0.8794 -0.6953
 6560TIP3   OH241170   1.194   4.231   1.896 -0.1708 -0.1694  0.3272
 6560TIP3    H141171   1.155   4.318   1.899 -1.6982 -0.8393  1.5035
 6560TIP3    H241172   1.269   4.236   1.954 -0.4040  0.3031  0.5940
 6561TIP3   OH241173   2.317   5.570  13.154 -0.0656  0.6726 -0.6799
 6561TIP3    H141174   2.344   5.662  13.149 -0.1352  1.1029  3.4553
 6561TIP3    H241175   2.396   5.524  13.180 -0.5256 -0.0987 -0.6292
 6562TIP3   OH241176   3.346   1.608   3.010  0.0265 -0.0208 -0.8242
 6562TIP3    H141177   3.262   1.579   2.974  0.6295 -0.6402 -1.7431
 6562TIP3    H241178   3.346   1.576   3.100 -0.6113 -0.2330 -0.8976
 6563TIP3   OH241179   3.121   5.472  11.892  0.0598 -0.6302 -0.1791
 6563TIP3    H141180   3.141   5.401  11.831  1.0365 -0.6798  0.1751
 6563TIP3    H241181   3.078   5.538  11.840  1.9082 -0.1638 -1.2049
 6564TIP3   OH241182   5.470   1.127   0.833  0.0451 -0.4391  0.3452
 6564TIP3    H141183   5.456   1.220   0.815 -0.6617 -0.6642 -0.2964
 6564TIP3    H241184   5.512   1.126   0.919  0.9473  0.5181 -0.0620
 6565TIP3   OH241185   1.945   0.008  13.556  0.4196 -0.5945  0.0059
 6565TIP3    H141186   1.938  -0.076  13.602 -2.6910 -0.2171  0.4393
 6565TIP3    H241187   1.858   0.023  13.520  1.0851  2.1137 -0.7009
 6566TIP3   OH241188   5.026   3.416  15.726 -0.4458 -0.1253  0.9014
 6566TIP3    H141189   5.004   3.433  15.634 -1.7281 -1.9295  0.8338
 6566TIP3    H241190   4.941   3.413  15.770  0.0693 -0.7839  1.8625
 6567TIP3   OH241191   0.456   2.346   4.370 -0.3595  0.0172  0.2789
 6567TIP3    H141192   0.542   2.386   4.354 -0.5249  1.0225  1.7097
 6567TIP3    H241193   0.449   2.344   4.466 -2.2470  0.6396  0.1850
 6568TIP3   OH241194   3.243   0.642   2.681  0.1141  0.1646  0.4285
 6568TIP3    H141195   3.262   0.728   2.645 -2.1673  1.3030  1.7022
 6568TIP3    H241196   3.191   0.599   2.614 -1.4651  1.0740  1.0129
 6569TIP3   OH241197   5.306   4.951   4.480 -0.6696 -0.4907  0.3567
 6569TIP3    H141198   5.265   5.029   4.442  1.0552  0.8564  1.1244
 6569TIP3    H241199   5.284   4.956   4.573 -1.2289 -1.4049  0.2898
 6570TIP3   OH241200   0.980   3.493  15.010  0.2785  0.6026  0.2282
 6570TIP3    H141201   1.016   3.485  15.099  1.3659 -3.5451 -0.3412
 6570TIP3    H241202   1.056   3.509  14.955  0.2021 -0.4951 -0.2341
 6571TIP3   OH241203   6.581   5.847   4.020 -0.1338  0.1667 -0.5158
 6571TIP3    H141204   6.591   5.833   4.115  1.1600  0.7442 -0.5349
 6571TIP3    H241205   6.568   5.759   3.984  3.7048 -0.7027 -0.2215
 6572TIP3   OH241206   0.577   2.934  13.716  0.2803 -0.1587 -0.4504
 6572TIP3    H141207   0.576   2.857  13.658 -0.7977 -1.8549  1.6938
 6572TIP3    H241208   0.575   2.898  13.804  0.5048  2.3658  0.6712
 6573TIP3   OH241209   6.356   1.819  12.991 -0.5406  0.0622  0.2268
 6573TIP3    H141210   6.374   1.832  12.898 -1.7860 -1.1619 -0.2166
 6573TIP3    H241211   6.296   1.745  12.994  0.4040 -0.7131  2.0891
 6574TIP3   OH241212   6.615   5.445  13.740  0.0305 -0.1270 -0.4473
 6574TIP3    H141213   6.645   5.530  13.773  0.9691 -1.2297  1.7173
 6574TIP3    H241214   6.693   5.391  13.737 -0.8935 -1.5781  0.4577
 6575TIP3   OH241215   0.306   2.201   4.199 -0.3610  0.2182  0.3795
 6575TIP3    H141216   0.356   2.251   4.264 -1.8679  0.4674  1.4250
 6575TIP3    H241217   0.319   2.248   4.117  0.9737  0.3531  0.6493
 6576TIP3   OH241218   3.536   3.948   5.485 -0.3350  0.2502  0.7909
 6576TIP3    H141219   3.456   3.974   5.440 -0.5461 -1.2453  0.2719
 6576TIP3    H241220   3.508   3.925   5.573 -0.3408  0.5436  0.8661
 6577TIP3   OH241221   3.494   2.894   4.001 -0.0697  1.2600 -0.0884
 6577TIP3    H141222   3.534   2.910   4.087 -1.2568  0.2401  0.6898
 6577TIP3    H241223   3.438   2.971   3.986  1.8858  2.5754 -1.0726
 6578TIP3   OH241224   5.828   4.974   0.045  0.1345 -0.5089 -0.0514
 6578TIP3    H141225   5.760   4.966   0.112  0.6553 -2.1016  0.3342
 6578TIP3    H241226   5.884   5.045   0.076 -0.7110  0.0668  0.1968
 6579TIP3   OH241227   6.560   2.135   3.926  0.2994 -0.3505  0.0248
 6579TIP3    H141228   6.555   2.040   3.929  0.3815 -0.3300  1.8107
 6579TIP3    H241229   6.585   2.161   4.015  0.6847  1.3157 -0.5285
 6580TIP3   OH241230   1.610   1.967   5.438  0.0763 -0.2281 -0.1180
 6580TIP3    H141231   1.612   2.062   5.436  1.7712 -0.2350 -1.3585
 6580TIP3    H241232   1.526   1.943   5.400  0.3088  0.7855 -1.3233
 6581TIP3   OH241233   3.306   0.866  14.273  0.0936 -0.2563 -0.2450
 6581TIP3    H141234   3.299   0.786  14.325  0.8156  1.1081  2.1008
 6581TIP3    H241235   3.396   0.896  14.286  0.5880 -0.2331 -3.0150
 6582TIP3   OH241236   4.495   3.083   4.625  0.0126  0.2480  0.6984
 6582TIP3    H141237   4.424   3.117   4.572 -0.1416  1.1374  1.4369
 6582TIP3    H241238   4.570   3.077   4.565  0.0103  1.8188  0.4949
 6583TIP3   OH241239   2.353   3.605   6.175 -0.9014 -0.1671 -0.3719
 6583TIP3    H141240   2.426   3.666   6.166 -0.7366 -0.1969  0.6717
 6583TIP3    H241241   2.392   3.518   6.167 -0.5167 -0.2505  1.8213
 6584TIP3   OH241242   4.519   6.271   1.650  0.3165 -0.2897  0.8194
 6584TIP3    H141243   4.569   6.195   1.681 -0.2307 -0.3169  1.6661
 6584TIP3    H241244   4.499   6.320   1.729 -3.4130 -1.7336  0.9581
 6585TIP3   OH241245   2.288   1.990   1.192  0.2883  0.2413 -0.5617
 6585TIP3    H141246   2.329   2.077   1.194 -0.9266  0.8326 -0.3276
 6585TIP3    H241247   2.347   1.937   1.138  2.2195  0.5822  1.0996
 6586TIP3   OH241248   4.870   3.855   0.123  0.4455 -0.0396  0.7448
 6586TIP3    H141249   4.816   3.833   0.046  0.1355  1.7945  0.4076
 6586TIP3    H241250   4.917   3.773   0.142 -1.7197 -1.4384  0.4781
 6587TIP3   OH241251   2.335   3.449   0.799  0.0264  0.1847  0.4008
 6587TIP3    H141252   2.330   3.468   0.893  0.9306  0.3431  0.4302
 6587TIP3    H241253   2.410   3.390   0.791  0.3511  0.6728 -0.2890
 6588TIP3   OH241254   4.165   1.581   1.146  0.1112  0.3617  0.9033
 6588TIP3    H141255   4.250   1.542   1.125 -0.9303 -1.1019 -0.9480
 6588TIP3    H241256   4.161   1.660   1.092 -0.4854 -0.6863 -0.6735
 6589TIP3   OH241257   0.191   1.757   3.946 -0.2584 -0.2533 -0.3909
 6589TIP3    H141258   0.248   1.771   3.871  0.1715  1.0633  0.1492
 6589TIP3    H241259   0.111   1.804   3.925  0.2702  1.0450  0.4082
 6590TIP3   OH241260   4.531   4.405  12.464  0.2915 -0.1404  0.3838
 6590TIP3    H141261   4.607   4.365  12.507 -0.3165 -2.2407 -0.3686
 6590TIP3    H241262   4.569   4.464  12.399  1.2689 -0.2741  0.8083
 6591TIP3   OH241263   4.860   6.834  15.413  0.0178  0.0937  0.3639
 6591TIP3    H141264   4.830   6.915  15.455  0.1117 -0.1955  0.9878
 6591TIP3    H241265   4.931   6.862  15.356 -0.1443  0.4968  0.3528
 6592TIP3   OH241266   1.891   6.706  13.144 -0.0442  1.0644  0.7072
 6592TIP3    H141267   1.912   6.662  13.227 -1.9095 -0.3832  0.4892
 6592TIP3    H241268   1.966   6.762  13.127  0.5758  1.1327  3.1851
 6593TIP3   OH241269   2.043   0.692   0.353 -0.0140 -0.3185 -0.3438
 6593TIP3    H141270   2.043   0.624   0.420 -0.5837 -0.0135 -0.0295
 6593TIP3    H241271   1.984   0.658   0.285 -0.4006 -0.0842 -0.1277
 6594TIP3   OH241272   0.636   1.091  16.037  0.4478 -0.5967 -0.0650
 6594TIP3    H141273   0.637   1.187  16.032  0.0616 -0.5942 -0.0876
 6594TIP3    H241274   0.611   1.072  16.127 -1.1781 -0.6766 -0.5071
 6595TIP3   OH241275   4.293   5.910   0.615  0.3265  0.2118 -0.2184
 6595TIP3    H141276   4.301   5.814   0.613 -1.0457  0.0504  0.9812
 6595TIP3    H241277   4.204   5.926   0.645 -0.2123  1.8872 -2.4204
 6596TIP3   OH241278   5.661   3.213  12.693  0.0867  0.2367 -0.3521
 6596TIP3    H141279   5.641   3.121  12.677 -0.0378  0.5518 -2.2976
 6596TIP3    H241280   5.604   3.238  12.766  1.9800 -1.8397  2.0012
 6597TIP3   OH241281   4.775   0.241  14.464  0.0462 -0.3378 -0.1467
 6597TIP3    H141282   4.867   0.259  14.482  0.0782 -0.6792  0.0451
 6597TIP3    H241283   4.761   0.273  14.375  0.0918  0.6316  0.1886
 6598TIP3   OH241284   2.669   5.467   0.589  0.5092 -0.2352 -0.8388
 6598TIP3    H141285   2.678   5.444   0.681  3.0377  0.8152 -0.7354
 6598TIP3    H241286   2.629   5.390   0.549 -2.0923 -0.1665  1.2970
 6599TIP3   OH241287   4.621   3.046  10.174  0.2215 -0.2336 -0.5846
 6599TIP3    H141288   4.546   3.040  10.116  0.3437  1.4136 -0.9346
 6599TIP3    H241289   4.584   3.039  10.262 -0.3411  0.5006 -0.7571
 6600TIP3   OH241290   1.842   4.340  15.995 -0.0977  0.3198  0.0208
 6600TIP3    H141291   1.844   4.344  16.090  1.0103 -0.4144  0.0426
 6600TIP3    H241292   1.757   4.301  15.974  0.2493 -0.8888  0.7752
 6601TIP3   OH241293   0.800   4.098  14.980 -0.9477  0.4279 -0.2646
 6601TIP3    H141294   0.806   4.112  15.074 -1.9581 -0.9870  0.0390
 6601TIP3    H241295   0.795   4.003  14.970 -0.0789  0.5149 -1.8026
 6602TIP3   OH241296   0.123   3.538  15.416 -0.7647  0.6988 -0.0097
 6602TIP3    H141297   0.074   3.617  15.437 -3.0656 -0.2998 -1.2909
 6602TIP3    H241298   0.114   3.483  15.494 -2.2804  0.2883 -0.4383
 6603TIP3   OH241299   2.100   4.229   2.822  0.1532  0.2057 -0.7691
 6603TIP3    H141300   2.157   4.206   2.748  1.5100  0.7056  0.0949
 6603TIP3    H241301   2.157   4.227   2.898 -0.8635  1.3263  0.0510
 6604TIP3   OH241302   0.285   5.029  15.549 -0.0994  0.6269  0.1705
 6604TIP3    H141303   0.217   4.993  15.491  0.2457  1.3499 -0.7127
 6604TIP3    H241304   0.335   4.953  15.577 -0.3972  0.2335 -0.3315
 6605TIP3   OH241305   4.060   6.680  11.809 -0.0359 -0.0615 -0.0005
 6605TIP3    H141306   3.982   6.672  11.864 -0.3446 -0.7385 -0.5218
 6605TIP3    H241307   4.066   6.595  11.764  0.8044  0.1101 -0.2249
 6606TIP3   OH241308   5.960   1.404  12.699 -0.2083  0.0374 -0.2306
 6606TIP3    H141309   5.986   1.315  12.672 -0.9530 -0.2941  0.1151
 6606TIP3    H241310   5.865   1.400  12.705 -0.1043 -0.1474  3.1728
 6607TIP3   OH241311   2.790   5.601  13.220 -0.4027 -0.1120 -0.4232
 6607TIP3    H141312   2.879   5.564  13.214 -0.5040 -0.5971  0.8284
 6607TIP3    H241313   2.800   5.678  13.275 -0.9243 -0.7910  0.6507
 6608TIP3   OH241314   5.228   2.438  15.024 -0.1583  0.0018  0.1011
 6608TIP3    H141315   5.229   2.349  14.990 -2.4245  0.7247 -2.1185
 6608TIP3    H241316   5.248   2.428  15.118  1.1243 -2.6200 -0.3631
 6609TIP3   OH241317   4.423   0.293   5.730 -0.0579 -0.6405 -0.8314
 6609TIP3    H141318   4.495   0.277   5.791  0.7814  1.0876 -1.3186
 6609TIP3    H241319   4.384   0.206   5.717  1.6820 -1.5675 -0.2726
 6610TIP3   OH241320   0.671   0.953  16.525 -0.3476  0.1365  0.1801
 6610TIP3    H141321   0.647   0.958  16.617  0.1200 -0.0416  0.3158
 6610TIP3    H241322   0.759   0.989  16.521  0.1800 -1.1122  0.0327
 6611TIP3   OH241323   2.791   5.317   5.120 -0.1447 -0.0057  0.1240
 6611TIP3    H141324   2.754   5.390   5.071  0.5474  0.8983  0.9276
 6611TIP3    H241325   2.714   5.272   5.156 -0.5538  0.8105  0.2978
 6612TIP3   OH241326   3.361   1.666   2.633  0.4195  0.4493  0.5688
 6612TIP3    H141327   3.404   1.692   2.715  0.0472  4.2532 -0.2317
 6612TIP3    H241328   3.283   1.721   2.629 -2.1376 -2.9419 -0.2642
 6613TIP3   OH241329   1.659   4.902   6.320 -0.3324  0.4760 -0.4009
 6613TIP3    H141330   1.567   4.878   6.318 -0.7323  1.7853  0.7314
 6613TIP3    H241331   1.669   4.968   6.252 -0.2352  0.3769 -0.4845
 6614TIP3   OH241332   5.610   1.265  17.087 -0.1915  0.3732  0.6684
 6614TIP3    H141333   5.641   1.277  17.177 -0.4023  1.6087  0.5990
 6614TIP3    H241334   5.523   1.227  17.097  0.3459 -0.8290  0.9333
 6615TIP3   OH241335   2.664   4.512  12.871 -0.1872  0.3212 -0.4469
 6615TIP3    H141336   2.699   4.423  12.862 -0.9429  0.1650 -2.3265
 6615TIP3    H241337   2.593   4.504  12.934 -1.2150 -0.7572 -1.6705
 6616TIP3   OH241338   5.667   5.773  14.564 -0.1038 -0.0403  0.2768
 6616TIP3    H141339   5.696   5.821  14.641 -1.3866  3.1121 -1.0493
 6616TIP3    H241340   5.715   5.690  14.568  1.7818  1.0408  3.0500
 6617TIP3   OH241341   4.805   4.328   0.107 -0.1278  0.0484  0.8308
 6617TIP3    H141342   4.823   4.364   0.020  0.4926  1.3853  1.4824
 6617TIP3    H241343   4.711   4.345   0.121 -0.1355  0.2153  0.5895
 6618TIP3   OH241344   5.966   1.507   5.149  0.3922 -0.5230 -0.2055
 6618TIP3    H141345   6.005   1.580   5.197  0.6884 -0.9466  0.2065
 6618TIP3    H241346   6.039   1.469   5.100  0.0195  0.1364 -1.2973
 6619TIP3   OH241347   4.694   3.756  14.818  0.1221 -0.0603  0.4264
 6619TIP3    H141348   4.612   3.720  14.850  0.5404 -1.3293  0.1291
 6619TIP3    H241349   4.672   3.794  14.733  0.0676 -1.5221 -0.2388
 6620TIP3   OH241350   5.292   4.560   1.798  0.2324  0.0129 -0.1312
 6620TIP3    H141351   5.323   4.473   1.825  0.3018  0.2507  0.5772
 6620TIP3    H241352   5.223   4.542   1.735  0.7954 -0.5465 -0.5942
 6621TIP3   OH241353   1.354   4.603   0.257  0.3426 -0.2722  0.7747
 6621TIP3    H141354   1.300   4.603   0.335 -0.7408 -1.1808  0.0651
 6621TIP3    H241355   1.381   4.512   0.246 -0.4991 -0.4009 -0.5303
 6622TIP3   OH241356   1.219   0.180  13.682  0.7965 -0.1471 -0.5480
 6622TIP3    H141357   1.175   0.243  13.625 -3.0184 -1.1822  0.9594
 6622TIP3    H241358   1.233   0.103  13.627 -0.5054 -0.2373 -0.7740
 6623TIP3   OH241359   2.828   6.144  10.969  0.4872  0.1525  0.0092
 6623TIP3    H141360   2.870   6.164  11.052 -0.2766 -1.4979  0.8379
 6623TIP3    H241361   2.807   6.051  10.974 -1.9294  0.5547 -0.9394
 6624TIP3   OH241362   5.040   0.398   1.872  0.2158  0.4452 -0.9803
 6624TIP3    H141363   5.078   0.334   1.932  0.3055  2.2654  1.0062
 6624TIP3    H241364   5.114   0.431   1.822  0.9165  2.0318  0.9955
 6625TIP3   OH241365   1.081   4.421  12.255  0.5766 -0.0048 -0.0170
 6625TIP3    H141366   1.018   4.350  12.252  0.0516  0.4809 -0.5692
 6625TIP3    H241367   1.166   4.379  12.241  0.2639 -0.5080 -0.3904
 6626TIP3   OH241368   6.732   1.207   1.055 -0.3235  0.1342 -0.0211
 6626TIP3    H141369   6.823   1.225   1.030 -0.5921  1.7091  0.0402
 6626TIP3    H241370   6.689   1.181   0.974 -0.0642  0.4695 -0.2703
 6627TIP3   OH241371   6.618   6.780   2.612 -0.5973 -0.1014 -0.0781
 6627TIP3    H141372   6.631   6.694   2.573 -1.8855 -0.5551  0.4422
 6627TIP3    H241373   6.648   6.770   2.702 -0.0261  0.2256 -0.2252
 6628TIP3   OH241374   3.655   3.497  15.117 -0.6702  0.3118 -0.3457
 6628TIP3    H141375   3.707   3.556  15.062  1.0476 -0.1789  0.6738
 6628TIP3    H241376   3.695   3.503  15.204 -1.4639 -1.1460  0.1603
 6629TIP3   OH241377   4.717   2.042  16.463 -0.1485  0.1556  0.2911
 6629TIP3    H141378   4.733   2.001  16.378  2.1310  0.8641  0.2933
 6629TIP3    H241379   4.655   2.113  16.444 -0.5620 -0.4139 -0.5540
 6630TIP3   OH241380   2.467   6.832  10.880 -0.1939 -0.4641  0.5103
 6630TIP3    H141381   2.435   6.796  10.963 -0.5518 -0.2197  0.4833
 6630TIP3    H241382   2.392   6.882  10.846  0.4011  0.5899  0.7170
 6631TIP3   OH241383   6.630   3.349   5.324 -0.2605 -0.3315  0.5425
 6631TIP3    H141384   6.558   3.378   5.268  1.4504  1.3716 -0.8858
 6631TIP3    H241385   6.626   3.408   5.400 -0.7161 -0.6430  0.7678
 6632TIP3   OH241386   0.697   5.213   5.546 -0.3705 -0.4708 -0.4569
 6632TIP3    H141387   0.744   5.232   5.627  0.1146 -0.8459 -0.6477
 6632TIP3    H241388   0.635   5.143   5.569 -0.0413 -0.7691 -0.4725
 6633TIP3   OH241389   5.262   5.006  12.492 -0.4646  0.2428 -0.0360
 6633TIP3    H141390   5.236   4.993  12.401  0.4609  0.0879 -0.2867
 6633TIP3    H241391   5.354   4.980  12.495 -1.0388 -1.9301  1.3992
 6634TIP3   OH241392   3.832   2.039   3.819  0.2446  0.2669 -0.8772
 6634TIP3    H141393   3.856   1.987   3.896 -0.4282  2.1125  0.6642
 6634TIP3    H241394   3.821   2.128   3.853 -1.0877  0.9607 -2.9423
 6635TIP3   OH241395   0.417   0.001   0.359 -0.1951  0.0245  0.0901
 6635TIP3    H141396   0.411  -0.068   0.293  1.0777 -0.0139 -0.0165
 6635TIP3    H241397   0.410   0.083   0.309  1.0741  0.0013 -0.1600
 6636TIP3   OH241398   0.928   6.756   1.558 -0.2330 -0.5024  0.1388
 6636TIP3    H141399   0.894   6.762   1.647  2.8387 -0.0628  1.4000
 6636TIP3    H241400   0.866   6.807   1.505 -1.5205  0.1705  2.1926
 6637TIP3   OH241401   1.044   6.476   6.656  0.7295 -0.2344 -0.0677
 6637TIP3    H141402   1.004   6.529   6.587  1.4938 -0.6816 -0.8781
 6637TIP3    H241403   1.003   6.507   6.736 -1.6952 -1.0841 -0.8928
 6638TIP3   OH241404   4.637   6.381   5.953 -0.3172 -0.2778 -0.0668
 6638TIP3    H141405   4.712   6.332   5.986  1.4697  0.9232 -2.0629
 6638TIP3    H241406   4.632   6.357   5.860 -1.6114  0.6440 -0.2603
 6639TIP3   OH241407   3.933   6.814  15.127 -0.0165 -0.1441  0.1607
 6639TIP3    H141408   3.913   6.897  15.083  0.5005 -0.1285 -0.0523
 6639TIP3    H241409   3.885   6.818  15.209 -2.5972 -1.0007 -1.2097
 6640TIP3   OH241410   6.636   1.469   0.660  0.0785  0.5857  0.0342
 6640TIP3    H141411   6.661   1.496   0.572  1.4034 -0.4944  0.0382
 6640TIP3    H241412   6.542   1.485   0.665  0.0338  0.9247 -1.4724
 6641TIP3   OH241413   5.942   6.790  11.761 -0.6329  0.3012 -0.5133
 6641TIP3    H141414   5.935   6.702  11.724 -0.1021  0.4454 -0.9737
 6641TIP3    H241415   5.853   6.826  11.756 -0.2720  1.0565 -3.5160
 6642TIP3   OH241416   0.466   4.748   4.502  0.0039  0.1839  0.0505
 6642TIP3    H141417   0.544   4.694   4.498  0.4928  0.8969 -0.2247
 6642TIP3    H241418   0.446   4.755   4.595  0.7644  0.6934  0.1821
 6643TIP3   OH241419   4.589   1.760  11.633 -0.0018 -0.2742 -0.1603
 6643TIP3    H141420   4.618   1.669  11.623 -0.1186 -0.5852  1.8884
 6643TIP3    H241421   4.586   1.774  11.728 -2.1713  1.1774 -0.3681
 6644TIP3   OH241422   4.693   5.980   4.333 -0.3024  0.7485  0.8886
 6644TIP3    H141423   4.677   5.918   4.405  1.5760 -0.7736  0.0961
 6644TIP3    H241424   4.669   5.932   4.254 -0.1021  1.5478  0.3276
 6645TIP3   OH241425   1.879   5.798   0.147  0.4185 -0.0185  0.6292
 6645TIP3    H141426   1.951   5.786   0.084 -1.0025 -0.1839 -1.0451
 6645TIP3    H241427   1.860   5.891   0.144  0.2454 -0.0518  0.7078
 6646TIP3   OH241428   0.834   4.554   3.964  0.1102 -0.0689  0.5273
 6646TIP3    H141429   0.773   4.584   3.897 -0.4895 -0.0619  1.0648
 6646TIP3    H241430   0.778   4.525   4.036  0.6823 -1.7214  0.3502
 6647TIP3   OH241431   1.062   5.491  16.296 -0.2000 -0.3590  0.0391
 6647TIP3    H141432   1.032   5.447  16.217 -0.9708 -1.4055  0.8830
 6647TIP3    H241433   1.039   5.583  16.283 -2.0147 -0.8108 -0.1892
 6648TIP3   OH241434   5.443   5.479  16.034  0.4238  0.3068  0.2468
 6648TIP3    H141435   5.390   5.557  16.017 -0.4246 -0.4607 -0.8146
 6648TIP3    H241436   5.533   5.506  16.017  0.1058  0.9912 -0.3841
 6649TIP3   OH241437   0.892   5.472   6.386 -1.0643  0.0624  0.2040
 6649TIP3    H141438   0.869   5.563   6.401 -1.7601  0.1120 -1.0132
 6649TIP3    H241439   0.836   5.445   6.313 -0.9052 -1.3500  0.5794
 6650TIP3   OH241440   2.456   2.088   0.732 -0.2584 -0.2630  0.5623
 6650TIP3    H141441   2.488   2.177   0.717  1.1999 -0.8062  0.2706
 6650TIP3    H241442   2.496   2.036   0.661 -0.4413 -1.2777  1.1864
 6651TIP3   OH241443   1.950   1.073  11.436  0.3636  0.5088 -0.1046
 6651TIP3    H141444   1.910   1.111  11.514 -1.9958 -0.1093 -0.9165
 6651TIP3    H241445   1.876   1.036  11.387  2.1917 -3.1478 -0.4660
 6652TIP3   OH241446   4.782   5.495   3.403  0.1458  0.2142 -0.7843
 6652TIP3    H141447   4.861   5.447   3.428 -0.7364 -0.6116  0.4978
 6652TIP3    H241448   4.811   5.587   3.397  0.8814  0.1530  1.2239
 6653TIP3   OH241449   4.466   3.775  14.122 -0.1272 -0.8508  0.6539
 6653TIP3    H141450   4.499   3.823  14.046 -3.1234 -1.5686 -1.2733
 6653TIP3    H241451   4.456   3.685  14.091 -4.1633 -0.6192  0.7973
 6654TIP3   OH241452   4.650   1.337  15.953  0.3480  0.4464  0.0076
 6654TIP3    H141453   4.653   1.366  15.861 -0.1180 -0.6015 -0.3509
 6654TIP3    H241454   4.716   1.268  15.959 -0.2554 -0.1278  0.2154
 6655TIP3   OH241455   3.604   5.698   2.433 -0.8289  0.2194  0.4508
 6655TIP3    H141456   3.573   5.671   2.519 -1.7197  0.2887  0.1611
 6655TIP3    H241457   3.546   5.654   2.371  0.4333 -0.6401 -0.1562
 6656TIP3   OH241458   3.582   5.202   4.583 -0.3341  0.0494  0.4555
 6656TIP3    H141459   3.673   5.217   4.556 -0.1850 -0.9531  0.3471
 6656TIP3    H241460   3.562   5.272   4.644 -0.7968  2.7031 -2.4697
 6657TIP3   OH241461   0.786   5.150  17.106 -0.5578 -0.0469 -0.1679
 6657TIP3    H141462   0.851   5.146  17.177  2.5157 -0.6564 -2.7630
 6657TIP3    H241463   0.761   5.243  17.103 -1.4110 -0.1478  2.1665
 6658TIP3   OH241464   6.287   5.188   5.485  0.3593 -0.3824  0.3429
 6658TIP3    H141465   6.265   5.280   5.496  0.1206 -0.2024 -1.4063
 6658TIP3    H241466   6.368   5.177   5.535  1.2197  1.1544 -0.6150
 6659TIP3   OH241467   0.794   6.574  12.886  0.1634 -0.3501  0.1647
 6659TIP3    H141468   0.808   6.488  12.846  0.6066  0.3461 -1.2419
 6659TIP3    H241469   0.699   6.580  12.898  0.1389 -1.0690  0.3850
 6660TIP3   OH241470   4.130   6.222  13.970 -0.6770  0.4282  0.1620
 6660TIP3    H141471   4.176   6.306  13.966  1.7718 -0.8375 -3.2290
 6660TIP3    H241472   4.177   6.173  14.038 -0.9538  1.1705  0.9021
 6661TIP3   OH241473   4.994   0.055  16.500 -0.0254 -0.4070 -0.7819
 6661TIP3    H141474   5.078   0.016  16.473 -0.0397 -0.4403 -0.7792
 6661TIP3    H241475   4.934  -0.020  16.504  0.2239 -0.5592  0.3529
 6662TIP3   OH241476   0.958   3.755   2.618 -0.4125  0.2117  0.3918
 6662TIP3    H141477   1.003   3.778   2.536  0.4564  1.7468  1.2406
 6662TIP3    H241478   1.027   3.716   2.672 -0.6081  0.5952  0.9228
 6663TIP3   OH241479   3.952   4.658  14.786  0.1379 -0.7534 -0.1487
 6663TIP3    H141480   3.930   4.622  14.872  1.9826 -0.8066  0.3465
 6663TIP3    H241481   3.922   4.592  14.724 -1.8698 -0.3944  0.3784
 6664TIP3   OH241482   6.216   3.831  11.324 -0.6581  0.3035  0.1060
 6664TIP3    H141483   6.184   3.886  11.396  0.7887  0.8119  0.3869
 6664TIP3    H241484   6.154   3.758  11.321 -0.0751 -0.4380  2.7465
 6665TIP3   OH241485   1.043   5.736   3.556 -0.2328 -0.0448 -0.1493
 6665TIP3    H141486   1.050   5.831   3.547 -1.2481  0.0973  0.3945
 6665TIP3    H241487   1.112   5.713   3.617  0.2334  0.2981 -0.5418
 6666TIP3   OH241488   3.212   6.024   3.358 -0.4841  0.2662  0.0437
 6666TIP3    H141489   3.167   5.979   3.429 -1.6308 -0.5269 -1.1332
 6666TIP3    H241490   3.305   6.019   3.381 -0.7953 -0.3977  1.2313
 6667TIP3   OH241491   2.365   4.933  16.837 -0.0602 -0.5606 -0.1190
 6667TIP3    H141492   2.297   4.899  16.895 -0.2026 -0.4740 -0.2345
 6667TIP3    H241493   2.323   4.939  16.751 -0.3378  0.8202  0.0887
 6668TIP3   OH241494   6.706   3.815   0.194 -0.9476 -0.0025  0.7385
 6668TIP3    H141495   6.631   3.850   0.145 -0.4194 -0.2917 -0.3124
 6668TIP3    H241496   6.760   3.772   0.127  0.9596  1.5513  1.1558
 6669TIP3   OH241497   6.447   5.870  16.738 -0.1942  0.4511  0.4180
 6669TIP3    H141498   6.363   5.831  16.765 -0.9990  3.2242  2.3823
 6669TIP3    H241499   6.497   5.877  16.819  0.7356  1.5609 -0.2250
 6670TIP3   OH241500   5.349   4.082   4.663  1.0857  0.1872 -0.0248
 6670TIP3    H141501   5.423   4.098   4.604  0.5263 -0.0463 -0.8046
 6670TIP3    H241502   5.273   4.077   4.605  0.3087  1.3734  0.8540
 6671TIP3   OH241503   0.402   1.567  10.695  0.3858 -0.4756 -0.2193
 6671TIP3    H141504   0.395   1.641  10.634 -1.0430 -0.2542  0.1902
 6671TIP3    H241505   0.485   1.582  10.741  0.1993  0.7891 -0.2646
 6672TIP3   OH241506   5.561   5.632  13.487  0.5263 -0.1864 -0.3819
 6672TIP3    H141507   5.573   5.646  13.393 -1.7300  0.3875 -0.6461
 6672TIP3    H241508   5.623   5.562  13.509  1.4200 -0.0103 -2.1784
 6673TIP3   OH241509   3.219   0.031  12.154 -0.2317  0.5659  0.2166
 6673TIP3    H141510   3.194  -0.042  12.210  0.1740 -0.0051 -0.3295
 6673TIP3    H241511   3.164   0.021  12.076 -0.3098  0.9562  0.2187
 6674TIP3   OH241512   1.108   2.026  14.914  0.2953 -0.0626  0.1959
 6674TIP3    H141513   1.151   2.109  14.935 -0.7404  1.2227 -2.3231
 6674TIP3    H241514   1.170   1.959  14.943  1.6918  1.5928  1.2581
 6675TIP3   OH241515   3.282   0.323   3.350 -0.1467  0.4478  0.6480
 6675TIP3    H141516   3.319   0.404   3.316  1.1149  0.6248  2.3157
 6675TIP3    H241517   3.189   0.342   3.361  0.2558  1.9812  1.7688
 6676TIP3   OH241518   1.123   3.534  13.738  0.0510  0.0308 -0.4602
 6676TIP3    H141519   1.044   3.491  13.705  0.7913 -0.6739 -1.3921
 6676TIP3    H241520   1.120   3.520  13.833 -1.1338  0.3617 -0.4454
 6677TIP3   OH241521   1.044   1.992   0.168  0.4863  0.0518  0.2582
 6677TIP3    H141522   0.984   2.061   0.143 -1.0910 -1.1763  0.5113
 6677TIP3    H241523   1.117   2.037   0.209 -0.8656  1.5074  1.1559
 6678TIP3   OH241524   1.634   3.019   2.610  0.4259 -0.2204 -0.2560
 6678TIP3    H141525   1.554   3.070   2.597  0.4936  1.0246  3.1243
 6678TIP3    H241526   1.605   2.943   2.662  1.3550  0.2424  0.9892
 6679TIP3   OH241527   4.982   5.745   3.444  0.3401  0.1857  0.6649
 6679TIP3    H141528   4.901   5.795   3.448  0.2072  0.3258 -2.0031
 6679TIP3    H241529   5.029   5.769   3.525 -0.3458  3.5285  0.2392
 6680TIP3   OH241530   4.178   2.340  12.564  0.1680  0.1130 -0.4127
 6680TIP3    H141531   4.178   2.301  12.651  0.1857  1.0173  0.0098
 6680TIP3    H241532   4.086   2.347  12.540  0.0922  1.0433  0.0985
 6681TIP3   OH241533   2.138   6.497   2.470 -0.7190 -0.7874 -0.5655
 6681TIP3    H141534   2.105   6.425   2.524 -2.6315  0.8263  0.5837
 6681TIP3    H241535   2.065   6.518   2.412 -0.0444 -0.0235 -1.1499
 6682TIP3   OH241536   2.966   2.366   1.285  0.2265 -0.3894 -0.5441
 6682TIP3    H141537   3.039   2.428   1.280  1.0653 -1.2670  0.2345
 6682TIP3    H241538   2.906   2.405   1.349  1.1496 -0.7398  0.5845
 6683TIP3   OH241539   6.605   4.264   0.595 -0.1633  0.0207  0.4098
 6683TIP3    H141540   6.590   4.212   0.516 -0.3271 -1.4659  1.3825
 6683TIP3    H241541   6.556   4.219   0.663  0.8033  0.6846  1.5788
 6684TIP3   OH241542   5.535   4.311  11.008 -0.1941  0.0809 -0.8763
 6684TIP3    H141543   5.549   4.223  10.972  1.0137  0.2074 -0.7478
 6684TIP3    H241544   5.536   4.368  10.931  0.1583  0.1042 -0.8561
 6685TIP3   OH241545   4.696   4.651   2.923  0.3478  0.7871 -0.6707
 6685TIP3    H141546   4.783   4.674   2.955  0.0815 -0.6436  1.2904
 6685TIP3    H241547   4.678   4.565   2.962 -1.4619  0.5059 -1.9883
 6686TIP3   OH241548   1.481   4.822   3.799 -0.0870 -0.3428 -0.3838
 6686TIP3    H141549   1.528   4.746   3.764 -0.9586 -0.6675 -0.8660
 6686TIP3    H241550   1.519   4.897   3.753  0.8915 -0.4566  0.2104
 6687TIP3   OH241551   2.592   3.299   0.414  0.0023  0.2990 -0.8017
 6687TIP3    H141552   2.565   3.288   0.323 -0.0207 -0.4651 -0.7102
 6687TIP3    H241553   2.601   3.210   0.448  0.2578  0.5686 -0.1267
 6688TIP3   OH241554   5.457   4.944  11.495 -0.1366  0.2952 -0.3858
 6688TIP3    H141555   5.541   4.944  11.542 -0.1466  1.2860 -0.3334
 6688TIP3    H241556   5.438   4.852  11.480  0.5228  0.0116  0.3978
 6689TIP3   OH241557   0.006   3.150   6.043 -0.2244  0.1744  0.0915
 6689TIP3    H141558   0.072   3.185   5.983  0.5303  1.8978  1.8021
 6689TIP3    H241559   0.036   3.061   6.062  1.4970  0.7905  0.5482
 6690TIP3   OH241560   0.435   4.255  13.369  0.3667 -0.1726  0.0154
 6690TIP3    H141561   0.405   4.171  13.404  1.7021 -0.0970  1.4380
 6690TIP3    H241562   0.380   4.320  13.413  0.4012 -0.2058  0.1064
 6691TIP3   OH241563   5.025   6.786  13.411  0.1846  0.1569 -0.2248
 6691TIP3    H141564   4.954   6.809  13.471 -0.0448  0.0484 -0.4509
 6691TIP3    H241565   5.089   6.742  13.466  0.7766  1.6070  0.2697
 6692TIP3   OH241566   1.001   3.017   2.313  0.3252  0.2379  0.6552
 6692TIP3    H141567   0.971   2.957   2.381  0.9911  0.8166  1.4885
 6692TIP3    H241568   0.923   3.067   2.288 -0.4996 -1.7067 -0.8753
 6693TIP3   OH241569   3.278   3.767   5.229 -0.2725  0.3785  0.5478
 6693TIP3    H141570   3.208   3.710   5.259  0.7333 -0.9801  0.4110
 6693TIP3    H241571   3.235   3.827   5.167 -1.1741 -0.9597 -0.1830
 6694TIP3   OH241572   0.574   0.249   0.691  0.8924  0.4295 -0.3417
 6694TIP3    H141573   0.559   0.299   0.611  0.8206 -0.7970 -1.1142
 6694TIP3    H241574   0.539   0.305   0.761 -0.3517  0.9079 -1.3129
 6695TIP3   OH241575   5.354   1.446   5.917 -0.3416 -0.2132  0.0698
 6695TIP3    H141576   5.414   1.403   5.855 -0.4054 -1.2182  0.6826
 6695TIP3    H241577   5.331   1.378   5.979 -0.7917  0.6148  0.8356
 6696TIP3   OH241578   3.185   6.222  13.567  0.6256  0.2072 -0.2131
 6696TIP3    H141579   3.095   6.193  13.581 -0.0721  0.1277 -4.0114
 6696TIP3    H241580   3.239   6.149  13.599 -0.7263 -0.6827  0.1097
 6697TIP3   OH241581   3.511   5.825  14.250  0.1447  0.3981 -0.6251
 6697TIP3    H141582   3.605   5.823  14.268  0.1823  0.0238 -0.8600
 6697TIP3    H241583   3.472   5.778  14.323  0.1531  0.3914 -0.6248
 6698TIP3   OH241584   3.713   2.386   5.440  0.4831  0.2874 -0.1697
 6698TIP3    H141585   3.671   2.445   5.502 -1.6397 -0.6986 -0.5827
 6698TIP3    H241586   3.714   2.301   5.485  0.9949  0.0459 -0.6281
 6699TIP3   OH241587   1.684   0.685   0.890  0.8053 -0.3230 -0.6203
 6699TIP3    H141588   1.626   0.659   0.961  1.4879  1.0153  0.4801
 6699TIP3    H241589   1.702   0.604   0.842 -0.9023 -0.9672 -0.2147
 6700TIP3   OH241590   2.014   6.791  14.071 -0.5840 -0.0973  1.0216
 6700TIP3    H141591   1.960   6.839  14.008 -1.6945 -2.9662 -0.3875
 6700TIP3    H241592   1.961   6.715  14.095  2.7273 -3.1897 -0.5306
 6701TIP3   OH241593   1.880   0.295   2.768 -0.3871  0.3341  0.4037
 6701TIP3    H141594   1.946   0.365   2.763  2.2946 -1.9939  0.8955
 6701TIP3    H241595   1.819   0.324   2.836 -1.1062  3.4442 -1.3559
 6702TIP3   OH241596   0.335   4.321   4.164  0.4831  0.3687 -0.0263
 6702TIP3    H141597   0.293   4.297   4.247 -0.6616 -1.0867 -0.9911
 6702TIP3    H241598   0.264   4.358   4.111  0.4099 -1.8200 -1.5612
 6703TIP3   OH241599   5.172   2.246   4.737  0.2515  0.5060  0.5614
 6703TIP3    H141600   5.178   2.203   4.651  0.7240 -0.8893  1.2657
 6703TIP3    H241601   5.116   2.322   4.721  0.2215  0.2101 -0.9567
 6704TIP3   OH241602   1.839   1.453   4.254  0.5552 -0.1798 -0.0627
 6704TIP3    H141603   1.817   1.488   4.167  1.8214  1.2450  0.1393
 6704TIP3    H241604   1.882   1.526   4.298  0.7494 -1.1707  1.4509
 6705TIP3   OH241605   1.155   0.816  16.130 -0.8088 -0.2408 -0.2228
 6705TIP3    H141606   1.089   0.886  16.132 -0.8361 -0.2481 -0.7819
 6705TIP3    H241607   1.104   0.735  16.126 -0.8509 -0.4571  2.4422
 6706TIP3   OH241608   5.198   2.851   6.216  0.3305  0.0201 -0.2078
 6706TIP3    H141609   5.103   2.855   6.226  0.3494 -2.2573  1.6801
 6706TIP3    H241610   5.217   2.759   6.201  2.3671  0.0749  1.5607
 6707TIP3   OH241611   2.701   4.607   6.388 -0.3109  0.4398  0.1885
 6707TIP3    H141612   2.771   4.544   6.401  0.0048  0.9599  1.1968
 6707TIP3    H241613   2.726   4.682   6.443 -1.7744  0.5262  0.7937
 6708TIP3   OH241614   5.062   1.287   2.116 -0.0289 -0.0754 -0.1490
 6708TIP3    H141615   5.032   1.225   2.050  2.7840 -0.6431 -1.0136
 6708TIP3    H241616   5.149   1.256   2.141 -0.5955  0.6472  3.2121
 6709TIP3   OH241617   4.092   0.983  11.545 -0.1553 -0.0716  0.1533
 6709TIP3    H141618   4.122   1.068  11.579 -0.2070  0.6334 -1.4873
 6709TIP3    H241619   4.166   0.924  11.562  1.1728  1.0335 -1.4278
 6710TIP3   OH241620   2.997   4.898  10.874  0.0042 -0.3971  0.2420
 6710TIP3    H141621   3.055   4.890  10.798 -0.4062 -1.5442  0.0299
 6710TIP3    H241622   2.997   4.991  10.894 -0.2391  0.0021 -1.4518
 6711TIP3   OH241623   5.996   6.452  16.483  0.2774 -0.1498 -0.0636
 6711TIP3    H141624   5.954   6.430  16.400 -0.6763 -1.0719  0.6479
 6711TIP3    H241625   6.087   6.470  16.459 -0.3715  1.3610 -1.5453
 6712TIP3   OH241626   1.965   4.891   4.747 -0.2015  0.3605  0.3422
 6712TIP3    H141627   1.951   4.844   4.665  1.5674 -0.2082  0.3174
 6712TIP3    H241628   1.959   4.983   4.724 -1.4784  0.1950 -0.0516
 6713TIP3   OH241629   2.054   0.604  13.974 -0.3365 -0.2455  0.6207
 6713TIP3    H141630   2.039   0.613  13.880 -0.4756  0.9201  0.7328
 6713TIP3    H241631   2.094   0.688  13.999 -1.4494 -0.0429  1.8066
 6714TIP3   OH241632   6.386   6.361  10.839  0.2127  0.3577 -0.0362
 6714TIP3    H141633   6.419   6.342  10.926  1.2521 -1.8920 -0.8476
 6714TIP3    H241634   6.425   6.294  10.783 -1.1169  1.1878 -2.0910
 6715TIP3   OH241635   1.183   6.439  13.477 -0.2639  0.9283  0.1576
 6715TIP3    H141636   1.159   6.423  13.385 -0.9220 -0.1884  0.5049
 6715TIP3    H241637   1.259   6.381  13.492 -0.0356  1.2548  0.2669
 6716TIP3   OH241638   3.603   3.820  15.086  0.0428 -0.2382 -0.3039
 6716TIP3    H141639   3.670   3.769  15.040 -1.0500 -0.2003 -2.0274
 6716TIP3    H241640   3.526   3.763  15.086 -0.5792  0.5845 -0.3618
 6717TIP3   OH241641   5.955   0.073   5.193 -0.1647 -0.1813  0.3204
 6717TIP3    H141642   5.885   0.071   5.129  0.7586  1.8081 -0.8595
 6717TIP3    H241643   5.919   0.123   5.267 -0.7916 -1.3349  0.8105
 6718TIP3   OH241644   5.352   5.670  15.892  0.5158 -0.7389 -0.0943
 6718TIP3    H141645   5.362   5.712  15.807 -1.0032 -1.0343 -0.4346
 6718TIP3    H241646   5.258   5.667  15.907  0.7221 -1.4389  1.2271
 6719TIP3   OH241647   1.139   3.524  16.460 -0.5188 -0.4540 -0.7005
 6719TIP3    H141648   1.085   3.490  16.388 -1.8543 -1.1428  0.5650
 6719TIP3    H241649   1.075   3.551  16.526  0.6865 -0.3346  0.4434
 6720TIP3   OH241650   2.533   3.893   4.950  0.2900  0.6817  0.1298
 6720TIP3    H141651   2.578   3.952   4.889 -1.4781  0.7733 -1.1635
 6720TIP3    H241652   2.555   3.805   4.919  0.5365  0.7043  0.2384
 6721TIP3   OH241653   0.905   6.780  15.463 -0.1961  0.1826 -0.3708
 6721TIP3    H141654   0.837   6.758  15.526 -0.9182  0.9138 -0.8714
 6721TIP3    H241655   0.886   6.726  15.386  1.0718 -1.2049  0.2351
 6722TIP3   OH241656   0.766   4.335  16.681  0.0278  0.2533  0.8371
 6722TIP3    H141657   0.675   4.323  16.655  0.3136 -0.7828  0.2881
 6722TIP3    H241658   0.781   4.430  16.674 -0.4299  0.2209 -1.0335
 6723TIP3   OH241659   5.020   4.079  12.509 -0.0945  0.0510 -0.1146
 6723TIP3    H141660   5.063   3.995  12.495  0.4788  0.2836  0.2098
 6723TIP3    H241661   5.042   4.130  12.431 -1.1128 -0.3657 -0.6874
 6724TIP3   OH241662   3.749   0.623   4.331  0.5635 -0.3057  0.0100
 6724TIP3    H141663   3.707   0.635   4.416  0.9565  0.9048  0.0514
 6724TIP3    H241664   3.757   0.528   4.322 -1.4430 -0.5509  0.3395
 6725TIP3   OH241665   4.371   1.136   2.579  0.0100 -0.0340 -0.1813
 6725TIP3    H141666   4.408   1.066   2.524  0.7078  0.1847 -0.0010
 6725TIP3    H241667   4.302   1.175   2.525  0.1557 -0.3426 -0.5956
 6726TIP3   OH241668   5.143   4.929   5.771  0.4521  0.2372 -0.8131
 6726TIP3    H141669   5.206   4.986   5.728 -1.3370  1.9436 -1.2971
 6726TIP3    H241670   5.093   4.889   5.700 -1.5508  1.9438 -0.4720
 6727TIP3   OH241671   2.006   1.513  10.964  0.6090 -0.2448 -0.2132
 6727TIP3    H141672   1.945   1.497  10.892  0.1863  0.5707 -0.0499
 6727TIP3    H241673   2.070   1.442  10.958 -0.5901 -1.3765 -0.1392
 6728TIP3   OH241674   6.619   5.599   3.826  0.2857 -0.0046  0.0855
 6728TIP3    H141675   6.613   5.509   3.857 -3.6963 -0.0030 -0.2083
 6728TIP3    H241676   6.624   5.592   3.731  1.1058  0.1279  0.1069
 6729TIP3   OH241677   1.394   4.483   1.534  0.1930 -0.2270  0.4126
 6729TIP3    H141678   1.430   4.399   1.506 -2.0842 -1.4241  0.8074
 6729TIP3    H241679   1.309   4.489   1.490 -0.0459  1.5093  1.0239
 6730TIP3   OH241680   6.376   4.545  14.071 -0.8280  0.5776 -0.3354
 6730TIP3    H141681   6.470   4.543  14.089 -0.8044 -0.2033 -0.5388
 6730TIP3    H241682   6.352   4.454  14.057 -1.4842  0.8391 -0.9729
 6731TIP3   OH241683   0.663   6.659  11.347 -0.3124 -0.4275 -0.6032
 6731TIP3    H141684   0.571   6.679  11.333 -0.3339 -0.9165 -1.1805
 6731TIP3    H241685   0.710   6.736  11.314 -0.5083 -0.2303 -0.4188
 6732TIP3   OH241686   1.066   3.317  16.702 -0.0895 -0.2780 -0.1112
 6732TIP3    H141687   0.981   3.316  16.659  1.1640 -4.0180 -2.9950
 6732TIP3    H241688   1.130   3.303  16.632  2.4729 -2.5545  2.3894
 6733TIP3   OH241689   0.134   5.841  12.166  0.1332  0.2808 -0.2250
 6733TIP3    H141690   0.177   5.903  12.223  0.2196  1.8648 -1.9003
 6733TIP3    H241691   0.066   5.893  12.122  0.5572 -0.6375 -2.0703
 6734TIP3   OH241692   5.282   5.259   3.425  0.1033  0.2542 -0.2272
 6734TIP3    H141693   5.367   5.258   3.468 -0.9609  0.5058  2.0061
 6734TIP3    H241694   5.286   5.187   3.362  1.9262  0.2398 -0.1495
 6735TIP3   OH241695   3.643   2.097  16.938  0.9449  1.0710 -0.0293
 6735TIP3    H141696   3.622   2.045  17.015  1.5402  1.0892  0.1501
 6735TIP3    H241697   3.622   2.039  16.864  0.2983  1.0853  0.1375
 6736TIP3   OH241698   5.492   4.577  11.690 -0.2484 -0.8054  0.1421
 6736TIP3    H141699   5.529   4.520  11.621  0.6578 -2.9239  2.2410
 6736TIP3    H241700   5.534   4.662  11.675 -1.7272 -0.4920 -3.1764
 6737TIP3   OH241701   3.089   3.936   3.123 -0.4411 -0.1341 -0.2192
 6737TIP3    H141702   2.998   3.963   3.134 -0.3134  0.3313 -0.2716
 6737TIP3    H241703   3.139   4.000   3.173  0.1221  1.7655 -3.0278
 6738TIP3   OH241704   6.626   1.626  14.900 -0.2492  0.1543  0.2733
 6738TIP3    H141705   6.689   1.698  14.899 -0.4479  0.3701  1.7615
 6738TIP3    H241706   6.648   1.575  14.821  0.1651  1.5791 -0.5762
 6739TIP3   OH241707   1.338   1.610  11.120 -0.0222  0.4659  0.0257
 6739TIP3    H141708   1.359   1.700  11.145 -1.7482  0.5918  1.2045
 6739TIP3    H241709   1.403   1.556  11.166 -0.9316  0.9466  1.9826
 6740TIP3   OH241710   1.798   1.266  14.001  0.0791 -0.1543  0.4653
 6740TIP3    H141711   1.782   1.349  13.957  4.4504  0.3257 -0.6840
 6740TIP3    H241712   1.817   1.205  13.930  1.2396 -0.9508  1.4309
 6741TIP3   OH241713   3.743   0.147  16.015 -0.1420 -0.1022 -0.1347
 6741TIP3    H141714   3.745   0.118  15.923  1.0063  1.5993 -0.7122
 6741TIP3    H241715   3.835   0.143  16.042 -0.2321  1.0346  0.3722
 6742TIP3   OH241716   3.151   4.909  17.191  0.1072 -0.1130  0.0515
 6742TIP3    H141717   3.237   4.868  17.184 -0.2848 -0.9341 -0.0553
 6742TIP3    H241718   3.103   4.852  17.251  0.3347  1.5467  1.9182
 6743TIP3   OH241719   6.236   5.351   5.889 -0.0274  0.8617  0.0965
 6743TIP3    H141720   6.196   5.303   5.817  2.0936  1.1023 -1.3474
 6743TIP3    H241721   6.167   5.409   5.921 -1.2186  0.2717 -1.3104
 6744TIP3   OH241722   3.990   6.328   0.649 -0.0350  0.2489  0.3835
 6744TIP3    H141723   4.005   6.278   0.729 -0.1013  0.5371  0.5775
 6744TIP3    H241724   4.035   6.411   0.665 -1.0007  0.7466  0.5769
 6745TIP3   OH241725   3.519   3.796   0.141  0.4724  0.4120  0.6753
 6745TIP3    H141726   3.605   3.794   0.099  0.7191 -0.5091  1.1960
 6745TIP3    H241727   3.488   3.886   0.127  2.5869  1.5525  2.5829
 6746TIP3   OH241728   0.206   6.527   4.949  0.1145 -0.1018  0.1919
 6746TIP3    H141729   0.151   6.544   5.025  1.2567 -0.2012  1.0473
 6746TIP3    H241730   0.145   6.492   4.883 -0.7466 -0.7279  1.2980
 6747TIP3   OH241731   6.224   4.667   1.087 -0.0618 -0.1938 -0.1397
 6747TIP3    H141732   6.167   4.605   1.041 -0.5524  0.8492 -0.9756
 6747TIP3    H241733   6.290   4.612   1.129  0.6549 -1.1726 -2.4049
 6748TIP3   OH241734   6.433   5.850  16.119  0.1051 -0.2942 -0.1164
 6748TIP3    H141735   6.446   5.801  16.038 -3.2769 -1.1437 -0.3165
 6748TIP3    H241736   6.501   5.818  16.178  0.3768 -2.4230 -1.4671
 6749TIP3   OH241737   4.188   4.537   1.254  1.2019 -0.2305 -0.4923
 6749TIP3    H141738   4.208   4.473   1.186 -1.4467 -1.2611 -0.4165
 6749TIP3    H241739   4.259   4.527   1.318  1.2288 -2.6457 -0.8132
 6750TIP3   OH241740   4.862   4.034   3.005  0.4696  0.3141  0.4033
 6750TIP3    H141741   4.868   4.000   3.094  0.1759 -0.4035  0.1508
 6750TIP3    H241742   4.950   4.067   2.986  1.2303 -1.7362  0.0938
 6751TIP3   OH241743   3.564   5.123   5.888 -0.2503  0.5466  0.0896
 6751TIP3    H141744   3.589   5.045   5.937 -2.9522 -1.2625 -1.1339
 6751TIP3    H241745   3.624   5.125   5.814  0.2484 -0.0180  0.4659
 6752TIP3   OH241746   3.767   0.697   3.742  0.6923  0.3064  0.7488
 6752TIP3    H141747   3.744   0.717   3.651 -0.9969  3.2805  1.6785
 6752TIP3    H241748   3.862   0.713   3.747  0.7889  0.1915 -0.4557
 6753TIP3   OH241749   6.130   1.094  15.211  0.0110  0.4135 -0.1850
 6753TIP3    H141750   6.108   1.049  15.129  0.0561  1.3256 -0.7119
 6753TIP3    H241751   6.224   1.110  15.205  0.0010  0.5478  0.0162
 6754TIP3   OH241752   3.226   3.137  15.229 -1.0196  0.7284 -0.5056
 6754TIP3    H141753   3.262   3.048  15.229 -1.0782  0.6589 -2.2269
 6754TIP3    H241754   3.184   3.145  15.143 -0.3910  2.6638 -0.6815
 6755TIP3   OH241755   2.218   2.429   0.741  0.6424 -0.1739  0.1694
 6755TIP3    H141756   2.159   2.369   0.787  1.6450 -1.2050  0.1489
 6755TIP3    H241757   2.304   2.411   0.778  0.9111  1.6830  0.5915
 6756TIP3   OH241758   4.333   5.897   2.072  0.6111 -0.2617  0.0264
 6756TIP3    H141759   4.279   5.957   2.124  0.7298  1.1202 -1.3583
 6756TIP3    H241760   4.410   5.948   2.048  0.6569 -0.9044 -1.3064
 6757TIP3   OH241761   2.637   5.447   4.662  0.3859 -0.3836 -0.1174
 6757TIP3    H141762   2.644   5.356   4.689 -2.3970 -0.9599 -1.0154
 6757TIP3    H241763   2.627   5.444   4.567 -1.2383  0.7070 -0.0235
 6758TIP3   OH241764   2.593   0.807   2.966  0.3305 -0.2582  0.0587
 6758TIP3    H141765   2.667   0.862   2.993 -0.0102  0.1580  0.1610
 6758TIP3    H241766   2.539   0.799   3.045 -0.3880  0.5025 -0.3372
 6759TIP3   OH241767   5.981   1.280   0.226 -0.4183  0.2765 -0.2864
 6759TIP3    H141768   6.071   1.300   0.201 -0.0681 -2.3596 -1.4727
 6759TIP3    H241769   5.989   1.216   0.296 -1.4075  0.8391  0.3643
 6760TIP3   OH241770   6.781   2.727   1.980 -0.5416  0.1046  0.3311
 6760TIP3    H141771   6.781   2.822   1.974 -1.1311  0.1707  1.1020
 6760TIP3    H241772   6.809   2.709   2.070 -2.6310 -0.3509  0.9485
 6761TIP3   OH241773   0.502   1.630  16.273 -0.2014 -0.0314  0.5887
 6761TIP3    H141774   0.561   1.702  16.296  1.1599 -0.6921 -0.6699
 6761TIP3    H241775   0.463   1.657  16.189  0.8050 -1.0125 -0.2152
 6762TIP3   OH241776   3.563   6.003  11.436 -0.4220  1.1117 -0.3179
 6762TIP3    H141777   3.617   6.022  11.360 -0.1978  1.2386 -0.1297
 6762TIP3    H241778   3.524   6.087  11.460 -1.3731  0.8654 -0.9592
 6763TIP3   OH241779   6.018   5.170   3.451  0.0865  0.3364 -0.3953
 6763TIP3    H141780   6.078   5.124   3.510  1.0189 -0.0938 -1.6302
 6763TIP3    H241781   6.018   5.260   3.483  0.3398  0.0563  0.4315
 6764TIP3   OH241782   2.202   3.048  12.311 -0.0670 -0.3582 -0.1335
 6764TIP3    H141783   2.222   3.082  12.398  1.4431  2.2508 -1.3675
 6764TIP3    H241784   2.267   2.979  12.297 -0.5541 -1.0473  0.9073
 6765TIP3   OH241785   4.132   5.974  17.167  0.4925 -0.1555 -0.0730
 6765TIP3    H141786   4.116   6.052  17.115 -1.1414 -0.1037  0.4623
 6765TIP3    H241787   4.131   6.005  17.258 -0.0393 -0.7747  0.1382
 6766TIP3   OH241788   2.658   6.818  11.326  0.6025 -0.2137  0.5018
 6766TIP3    H141789   2.602   6.741  11.322 -0.9829  0.9434 -1.2433
 6766TIP3    H241790   2.606   6.884  11.372  1.2630  0.3454  0.4749
 6767TIP3   OH241791   3.249   3.817  12.038  0.2269  0.1346  0.4211
 6767TIP3    H141792   3.327   3.777  11.999  0.9474  2.5740 -0.8492
 6767TIP3    H241793   3.281   3.855  12.120  0.1941  0.4852  0.2714
 6768TIP3   OH241794   6.216   2.095  12.266  0.2199  0.9845  0.2469
 6768TIP3    H141795   6.182   2.184  12.253 -2.9242 -0.3404 -1.7979
 6768TIP3    H241796   6.243   2.066  12.179 -0.8413 -0.7542  0.4576
 6769TIP3   OH241797   1.303   0.138  17.162 -0.0242  0.0792 -0.9719
 6769TIP3    H141798   1.322   0.068  17.100 -0.0704 -1.1629  0.3806
 6769TIP3    H241799   1.208   0.135  17.172  0.0298 -0.0404 -0.4876
 6770TIP3   OH241800   6.471   6.336   1.252 -0.2853 -0.3359 -0.1233
 6770TIP3    H141801   6.497   6.403   1.189  0.4279 -0.4831 -0.0004
 6770TIP3    H241802   6.508   6.254   1.218  0.7745 -0.2942  0.8605
 6771TIP3   OH241803   0.347   6.567   0.757 -0.7851  0.4387 -0.3824
 6771TIP3    H141804   0.261   6.556   0.799 -1.5094  0.3736 -1.8405
 6771TIP3    H241805   0.332   6.542   0.666  0.3684  2.1251 -1.0616
 6772TIP3   OH241806   3.138   4.346   3.165 -0.2311  0.0144  0.2632
 6772TIP3    H141807   3.087   4.285   3.111  0.5841  0.0202 -0.5367
 6772TIP3    H241808   3.193   4.393   3.103  1.9602 -1.1485  1.2010
 6773TIP3   OH241809   5.380   6.161   1.129 -0.5112 -0.7686 -0.2974
 6773TIP3    H141810   5.378   6.085   1.187 -1.3183 -0.3344  0.2582
 6773TIP3    H241811   5.467   6.158   1.090  0.3181 -0.7089  1.4299
 6774TIP3   OH241812   6.503   1.332  13.627 -0.2024 -0.3524 -0.4451
 6774TIP3    H141813   6.419   1.378  13.630  0.0153 -0.0015  1.3236
 6774TIP3    H241814   6.493   1.259  13.687  1.0808  0.2991  0.6083
 6775TIP3   OH241815   6.196   0.333   6.138  0.2031 -0.0137  0.0928
 6775TIP3    H141816   6.137   0.285   6.196  1.1259  0.2576  1.2981
 6775TIP3    H241817   6.266   0.271   6.118 -0.1698 -0.1457 -0.8581
 6776TIP3   OH241818   3.805   0.436   6.600 -0.0231 -0.1261  0.0853
 6776TIP3    H141819   3.727   0.461   6.650  0.2861 -2.1949  1.7678
 6776TIP3    H241820   3.804   0.340   6.602  1.6424 -0.2111 -1.3709
 6777TIP3   OH241821   4.880   1.992  14.996  0.4305 -0.1970 -0.3092
 6777TIP3    H141822   4.866   1.943  15.077  1.8877 -0.1667 -0.0192
 6777TIP3    H241823   4.810   2.057  14.995  0.4652 -0.1263  0.9770
 6778TIP3   OH241824   4.883   4.437   1.741 -0.1223 -0.4550 -0.0361
 6778TIP3    H141825   4.942   4.466   1.672  0.9482  1.2813  1.5103
 6778TIP3    H241826   4.927   4.362   1.780 -0.6842 -1.3804 -1.1188
 6779TIP3   OH241827   5.356   1.854   0.782 -0.0863 -0.0458  0.5905
 6779TIP3    H141828   5.347   1.852   0.687 -0.5591  0.8585  0.6004
 6779TIP3    H241829   5.384   1.944   0.801  0.1374 -0.2603  1.2873
 6780TIP3   OH241830   5.604   6.462   5.947 -0.1019 -0.5879 -0.3186
 6780TIP3    H141831   5.530   6.499   5.996 -0.6892 -1.6069 -0.4064
 6780TIP3    H241832   5.652   6.411   6.012  0.8569  0.5102 -0.1367
 6781TIP3   OH241833   6.825   3.702  14.776 -0.6734 -0.2426  0.0433
 6781TIP3    H141834   6.918   3.691  14.756 -0.4939 -0.6133  1.0034
 6781TIP3    H241835   6.781   3.635  14.725 -0.4831  0.3399 -0.9023
 6782TIP3   OH241836   4.353   3.422   1.611  0.1778 -0.0811 -0.6242
 6782TIP3    H141837   4.268   3.378   1.618 -0.8313  1.7343 -0.7080
 6782TIP3    H241838   4.361   3.445   1.519 -0.5244  2.0579 -0.2030
 6783TIP3   OH241839   0.398   3.368   0.629  0.5834  0.2549  0.0518
 6783TIP3    H141840   0.378   3.426   0.556  1.2891  0.3453 -0.0853
 6783TIP3    H241841   0.327   3.380   0.691  0.4100  0.8030 -0.2526
 6784TIP3   OH241842   1.102   3.083   5.670  0.1358  0.1438  0.2503
 6784TIP3    H141843   1.018   3.042   5.687  0.8309 -0.7545  1.8314
 6784TIP3    H241844   1.088   3.138   5.593 -1.2686 -1.7576 -0.9322
 6785TIP3   OH241845   0.284   4.727  13.363 -0.2211 -0.2540  0.9601
 6785TIP3    H141846   0.363   4.782  13.367 -0.4819  0.2853 -0.6943
 6785TIP3    H241847   0.297   4.662  13.433  1.8981 -0.4345  0.4723
 6786TIP3   OH241848   1.045   6.065  16.773  0.4071 -0.9653 -0.6908
 6786TIP3    H141849   0.984   6.127  16.732 -0.7129 -1.5024  0.0983
 6786TIP3    H241850   0.996   5.983  16.776  0.1304 -0.7799  2.3505
 6787TIP3   OH241851   0.915   4.830   2.739  0.2907 -0.2021 -0.0488
 6787TIP3    H141852   0.967   4.835   2.659  1.3998  0.2296  0.6735
 6787TIP3    H241853   0.854   4.903   2.732  0.7960  0.2136 -0.2362
 6788TIP3   OH241854   0.820   3.549  14.723 -0.7181  0.0635  0.3276
 6788TIP3    H141855   0.789   3.520  14.809 -0.7663 -0.2380  0.2094
 6788TIP3    H241856   0.906   3.586  14.740 -1.7528  2.3888  0.9423
 6789TIP3   OH241857   0.362   5.010   1.662  0.2340  0.2662 -0.5747
 6789TIP3    H141858   0.350   4.922   1.699  1.2557 -0.7853 -2.5633
 6789TIP3    H241859   0.453   5.011   1.633  0.6093  2.4515  0.4511
 6790TIP3   OH241860   6.397   5.337   3.776  0.1060  0.2145  0.0803
 6790TIP3    H141861   6.412   5.269   3.842  1.0335 -0.3782 -0.7276
 6790TIP3    H241862   6.301   5.347   3.774  0.0879  0.7508  2.0014
 6791TIP3   OH241863   5.031   6.719  14.280  0.6789 -0.0762 -0.0253
 6791TIP3    H141864   4.963   6.722  14.347  0.2236  0.0144 -0.4842
 6791TIP3    H241865   5.036   6.627  14.255 -0.3181  0.1209 -1.0288
 6792TIP3   OH241866   4.254   3.335  15.503  0.2386  0.0987 -0.3845
 6792TIP3    H141867   4.288   3.252  15.536 -0.1309 -0.2023 -0.7518
 6792TIP3    H241868   4.272   3.333  15.410  0.4055  0.5180 -0.3620
 6793TIP3   OH241869   5.009   2.030   0.793 -0.6979  0.7850  0.0724
 6793TIP3    H141870   4.958   1.951   0.776  0.0052  0.1911  0.6589
 6793TIP3    H241871   4.950   2.087   0.842 -1.2593  0.6963 -0.4935
 6794TIP3   OH241872   4.628   0.491   6.648 -0.2124 -0.6813  0.4183
 6794TIP3    H141873   4.657   0.531   6.566 -3.0096 -0.5351 -0.5816
 6794TIP3    H241874   4.655   0.553   6.716  2.6006 -1.0378 -0.2479
 6795TIP3   OH241875   2.401   2.497  15.489  0.1883  0.0981  0.0855
 6795TIP3    H141876   2.396   2.402  15.479 -1.4047  0.3426 -2.3068
 6795TIP3    H241877   2.473   2.524  15.432  0.2172  0.4012  0.2608
 6796TIP3   OH241878   3.234   4.175   1.875  0.3686  0.1638  0.0060
 6796TIP3    H141879   3.289   4.099   1.894 -0.6948 -0.9130 -1.0192
 6796TIP3    H241880   3.173   4.144   1.808 -2.1827  0.9783  1.7851
 6797TIP3   OH241881   3.971   3.444   5.820 -0.2291  0.2253  0.0562
 6797TIP3    H141882   4.062   3.471   5.832 -0.4103  0.6904  0.3961
 6797TIP3    H241883   3.950   3.469   5.730  0.7602 -2.1850 -0.9388
 6798TIP3   OH241884   5.504   1.290  13.852  0.6683 -0.0471  0.0146
 6798TIP3    H141885   5.442   1.363  13.849 -0.7005 -1.0374  1.7321
 6798TIP3    H241886   5.526   1.273  13.760  0.2475  1.8564 -0.4761
 6799TIP3   OH241887   4.695   1.075   5.623  0.4843  0.1492 -0.0472
 6799TIP3    H141888   4.748   1.007   5.581  0.3007  0.6264 -1.0765
 6799TIP3    H241889   4.650   1.118   5.551  0.1596  0.9920  0.6466
 6800TIP3   OH241890   0.518   5.102   1.171 -0.0313  0.3559 -0.0571
 6800TIP3    H141891   0.474   5.075   1.251 -0.7692 -0.1552 -0.6117
 6800TIP3    H241892   0.611   5.087   1.187  0.0751  2.1594  1.4268
 6801TIP3   OH241893   2.567   2.174   2.161 -0.0935  0.2249  0.3141
 6801TIP3    H141894   2.539   2.087   2.131  0.6029 -0.0119  0.3359
 6801TIP3    H241895   2.648   2.158   2.209 -0.1414  0.8504  0.6140
 6802TIP3   OH241896   5.270   6.211   4.958 -0.4844  0.6759 -0.3731
 6802TIP3    H141897   5.326   6.287   4.938  0.9292  0.0688  1.0814
 6802TIP3    H241898   5.315   6.137   4.916 -0.6894  0.3269  0.0170
 6803TIP3   OH241899   5.913   2.281  11.844 -0.0004  0.1056  0.0120
 6803TIP3    H141900   5.901   2.345  11.773  0.5916  1.4182  1.0498
 6803TIP3    H241901   5.824   2.255  11.867 -0.1958 -0.8270 -1.5915
 6804TIP3   OH241902   0.838   1.118  16.968 -0.0536 -0.2220 -0.1587
 6804TIP3    H141903   0.774   1.138  16.900 -0.6654 -1.0812  0.1420
 6804TIP3    H241904   0.901   1.060  16.924 -0.8744 -1.4139  0.1754
 6805TIP3   OH241905   3.943   2.721   0.360 -0.3550 -0.1789 -0.9090
 6805TIP3    H141906   3.862   2.761   0.327 -0.8867 -0.2486  0.2668
 6805TIP3    H241907   3.917   2.632   0.383 -0.2092  0.0947  0.4038
 6806TIP3   OH241908   1.020   0.438  14.146  0.1522  0.0054 -0.6047
 6806TIP3    H141909   0.946   0.497  14.136  1.7996  2.6278  1.3008
 6806TIP3    H241910   1.095   0.487  14.112  1.4517 -1.4346  0.0522
 6807TIP3   OH241911   3.738   4.892   0.106  0.4183  0.1538  0.1323
 6807TIP3    H141912   3.762   4.803   0.081  0.0673  0.4098 -1.2587
 6807TIP3    H241913   3.786   4.948   0.045  0.9515  0.9492  1.2488
 6808TIP3   OH241914   4.889   0.118   4.810 -0.4343 -0.2911 -0.4542
 6808TIP3    H141915   4.925   0.187   4.866  1.8521 -2.9956  1.6844
 6808TIP3    H241916   4.807   0.155   4.776  0.6892  3.4506  0.4364
 6809TIP3   OH241917   4.579   2.634   0.695  0.3719 -0.5647 -0.2371
 6809TIP3    H141918   4.589   2.541   0.678 -2.0964 -1.9039  3.9855
 6809TIP3    H241919   4.491   2.655   0.664  0.9268  0.4186 -1.2062
 6810TIP3   OH241920   2.223   3.207   0.376  0.1301  0.3313  0.6649
 6810TIP3    H141921   2.216   3.296   0.410 -0.3228  0.6295 -0.1795
 6810TIP3    H241922   2.248   3.154   0.452  0.9909  1.2634  1.0531
 6811TIP3   OH241923   2.053   5.546  11.410 -0.1918 -1.0586 -0.1297
 6811TIP3    H141924   2.105   5.466  11.416  1.0742 -0.2124  0.7751
 6811TIP3    H241925   2.109   5.614  11.448 -1.3028  0.2280 -0.7059
 6812TIP3   OH241926   0.150   1.430  11.601  0.6457 -0.2969 -0.0677
 6812TIP3    H141927   0.163   1.374  11.525  0.0017 -0.0242 -0.3874
 6812TIP3    H241928   0.075   1.486  11.578 -1.9563 -2.5597  2.0638
 6813TIP3   OH241929   5.951   3.381  13.817  0.4945  0.0574 -0.0801
 6813TIP3    H141930   5.963   3.287  13.798  0.0677 -0.4480  1.9163
 6813TIP3    H241931   5.926   3.383  13.909 -1.0836  2.0454 -0.4963
 6814TIP3   OH241932   0.695   3.230  15.851  0.2933 -0.0349  0.0387
 6814TIP3    H141933   0.749   3.273  15.917 -0.3641  0.1123  0.4911
 6814TIP3    H241934   0.737   3.145  15.838  1.7206  0.7959 -1.0231
 6815TIP3   OH241935   0.105   6.517   0.874  0.1283  0.4310  0.2696
 6815TIP3    H141936   0.114   6.455   0.946 -0.2777 -2.8020 -2.2581
 6815TIP3    H241937   0.011   6.526   0.861  0.1833 -0.6419 -1.0823
 6816TIP3   OH241938   1.779   3.398  16.200  0.5123 -0.4236  0.0088
 6816TIP3    H141939   1.739   3.472  16.155 -0.2194 -1.0502 -0.4087
 6816TIP3    H241940   1.783   3.329  16.134 -0.5506 -1.3513  0.8730
 6817TIP3   OH241941   3.962   1.803  16.228  0.9713 -0.6314 -0.5513
 6817TIP3    H141942   3.936   1.890  16.199  0.0305 -0.4644  0.7156
 6817TIP3    H241943   3.880   1.759  16.250  1.5281 -1.3015  0.2788
 6818TIP3   OH241944   6.781   4.359  11.621  0.2831  0.0564  0.1968
 6818TIP3    H141945   6.735   4.333  11.701  0.1052 -0.5906 -0.1085
 6818TIP3    H241946   6.828   4.439  11.645  2.0674 -1.3320  1.6326
 6819TIP3   OH241947   4.110   5.800  16.377  0.0882 -0.3878  0.1470
 6819TIP3    H141948   4.161   5.794  16.296 -1.3025 -0.9861 -0.7255
 6819TIP3    H241949   4.053   5.876  16.364 -1.4810 -1.5746 -0.2911
 6820TIP3   OH241950   2.805   2.226  11.529  0.1699  0.1927  0.1553
 6820TIP3    H141951   2.834   2.199  11.442  0.3324 -2.2446  0.8929
 6820TIP3    H241952   2.740   2.294  11.512 -0.0833 -0.4786 -1.8886
 6821TIP3   OH241953   0.684   0.531   5.298  0.1576 -0.1651 -0.0812
 6821TIP3    H141954   0.750   0.509   5.232 -0.1313 -1.7418  0.1196
 6821TIP3    H241955   0.705   0.476   5.373 -0.0203  1.0028  0.8700
 6822TIP3   OH241956   6.325   2.972   4.128  0.4165  0.1820 -0.0723
 6822TIP3    H141957   6.291   2.954   4.040 -1.0310 -1.5837  0.7802
 6822TIP3    H241958   6.257   3.025   4.170  0.4989 -0.0462  0.3633
 6823TIP3   OH241959   3.678   5.034  14.636  0.4510 -0.3561  0.1572
 6823TIP3    H141960   3.732   5.103  14.675 -0.9922  0.6854  0.4053
 6823TIP3    H241961   3.627   5.080  14.568  0.9917 -1.6114 -1.1593
 6824TIP3   OH241962   5.220   0.065  15.595 -0.0874  0.7750  0.0821
 6824TIP3    H141963   5.154   0.133  15.584 -0.1913  0.6537 -0.0722
 6824TIP3    H241964   5.196   0.020  15.676 -0.0099  0.9335  0.1911
 6825TIP3   OH241965   0.520   4.520  17.071  0.0198 -0.1879  0.4958
 6825TIP3    H141966   0.559   4.597  17.032 -0.6394 -0.0413  0.1076
 6825TIP3    H241967   0.594   4.465  17.098  0.4923  0.6148  0.8592
 6826TIP3   OH241968   0.610   4.591   4.234  0.1650  0.2443  0.8392
 6826TIP3    H141969   0.525   4.568   4.196 -0.4606  1.3738  1.4960
 6826TIP3    H241970   0.604   4.562   4.325  1.1725 -1.2748  0.4707
 6827TIP3   OH241971   0.805   2.814   5.275 -0.1230 -0.0109 -0.2431
 6827TIP3    H141972   0.875   2.834   5.337  0.2716  0.0518 -0.7048
 6827TIP3    H241973   0.746   2.757   5.324  0.9122 -1.1269 -0.2656
 6828TIP3   OH241974   3.905   6.124   2.315  0.3024  0.6825 -1.1190
 6828TIP3    H141975   3.842   6.053   2.306 -0.8178  1.6754 -1.3559
 6828TIP3    H241976   3.898   6.150   2.407  2.2222 -0.8428 -0.4886
 6829TIP3   OH241977   6.634   4.765  12.621  0.0828 -0.3759  0.1886
 6829TIP3    H141978   6.612   4.847  12.575  0.8093 -0.7903 -0.9322
 6829TIP3    H241979   6.550   4.719  12.627 -1.1302  1.8273  3.9050
 6830TIP3   OH241980   3.750   0.100   1.711 -0.2741  0.2646  0.2116
 6830TIP3    H141981   3.800   0.179   1.729  0.0416  0.3684 -1.0191
 6830TIP3    H241982   3.814   0.029   1.720 -0.3480  0.2226  0.4271
 6831TIP3   OH241983   6.397   6.601   2.495  0.1006  0.0218  0.3640
 6831TIP3    H141984   6.330   6.651   2.541 -0.8452 -1.6837  0.8946
 6831TIP3    H241985   6.468   6.593   2.558 -0.1696 -0.1910  0.6437
 6832TIP3   OH241986   2.244   0.362   0.769  0.4023  0.3717  0.1871
 6832TIP3    H141987   2.207   0.315   0.843  0.9697  2.1769  1.7118
 6832TIP3    H241988   2.180   0.431   0.750 -1.5528 -2.1052 -3.4837
 6833TIP3   OH241989   3.525   2.456  11.407 -0.1269 -0.0512 -0.0609
 6833TIP3    H141990   3.471   2.388  11.448 -0.8367  0.6250  0.1727
 6833TIP3    H241991   3.610   2.448  11.448 -1.1766  1.5209  2.7238
 6834TIP3   OH241992   4.897   5.387  14.949 -0.5927  0.4401  0.0397
 6834TIP3    H141993   4.842   5.403  15.026  1.2234  0.7598  1.3284
 6834TIP3    H241994   4.976   5.439  14.964  0.6632 -1.0505 -1.0724
 6835TIP3   OH241995   5.254   2.153  11.480 -0.7202  0.4115 -0.1102
 6835TIP3    H141996   5.225   2.068  11.445 -1.3653  0.3359  0.5763
 6835TIP3    H241997   5.246   2.213  11.405  0.1467 -0.2028 -0.7173
 6836TIP3   OH241998   5.882   5.256   1.539  0.0890 -0.1978 -0.4103
 6836TIP3    H141999   5.914   5.194   1.604  0.6150 -0.5900 -1.0347
 6836TIP3    H242000   5.900   5.342   1.577 -0.1820 -0.4205  0.2348
 6837TIP3   OH242001   3.747   5.466  16.147 -0.5865  0.1020 -0.3547
 6837TIP3    H142002   3.773   5.445  16.236 -0.0588 -0.7226 -0.6810
 6837TIP3    H242003   3.817   5.523  16.114  1.1058 -2.3705 -1.3372
 6838TIP3   OH242004   2.471   3.976   3.912  0.0842  0.0296  0.0354
 6838TIP3    H142005   2.445   4.020   3.831  2.0233  1.9262  0.3303
 6838TIP3    H242006   2.552   3.930   3.889  1.8514  2.2956  1.2493
 6839TIP3   OH242007   2.368   4.804   0.873 -0.0543 -0.1062 -0.2332
 6839TIP3    H142008   2.299   4.739   0.887  0.5726 -0.6366  0.4976
 6839TIP3    H242009   2.425   4.764   0.807 -0.1190  0.0746 -0.3999
 6840TIP3   OH242010   5.263   4.055   3.928 -0.5580  0.3153  0.8215
 6840TIP3    H142011   5.219   4.031   4.009 -1.2426  1.5018  0.8270
 6840TIP3    H242012   5.311   4.135   3.950 -0.2585  0.3045  0.2204
 6841TIP3   OH242013   3.928   1.670  13.727 -0.9477  0.1376  0.2051
 6841TIP3    H142014   3.963   1.725  13.797  0.2678 -0.0984 -0.1961
 6841TIP3    H242015   3.845   1.711  13.704  0.3322  2.3668 -0.7124
 6842TIP3   OH242016   0.848   2.998   5.624 -0.0280  0.6219  0.3866
 6842TIP3    H142017   0.754   2.982   5.614  0.2561 -0.5043 -0.5356
 6842TIP3    H242018   0.891   2.933   5.570  1.3260  0.6971  1.3007
 6843TIP3   OH242019   5.897   1.000   3.303  0.4997 -0.1872 -0.0098
 6843TIP3    H142020   5.892   1.096   3.305  0.0508 -0.1974 -0.4035
 6843TIP3    H242021   5.990   0.980   3.298  0.5467  0.2649 -1.3806
 6844TIP3   OH242022   5.074   1.751   0.461  0.1939 -0.0593  0.1162
 6844TIP3    H142023   5.099   1.810   0.390 -0.9946 -0.2130 -0.4633
 6844TIP3    H242024   5.013   1.689   0.420  0.5313 -0.9886  0.9697
 6845TIP3   OH242025   3.751   6.357  15.068  0.7167  0.0446 -0.1633
 6845TIP3    H142026   3.795   6.435  15.036  0.6262 -0.5667 -1.8853
 6845TIP3    H242027   3.742   6.301  14.991 -1.7413 -0.4770  0.4182
 6846TIP3   OH242028   3.420   1.668   3.297  0.6446 -0.0548  0.2853
 6846TIP3    H142029   3.493   1.722   3.329  0.1219  0.4169  0.6926
 6846TIP3    H242030   3.453   1.578   3.304  1.0218  0.1208  0.9334
 6847TIP3   OH242031   2.651   6.287   3.790 -0.2924 -0.1338 -0.6577
 6847TIP3    H142032   2.585   6.219   3.784  0.9164 -1.3424 -0.8197
 6847TIP3    H242033   2.702   6.279   3.709  0.6725  0.0706 -0.0962
 6848TIP3   OH242034   4.851   6.145   1.788  0.8252  0.0581 -0.1796
 6848TIP3    H142035   4.815   6.209   1.849  1.1414  0.0946 -0.0243
 6848TIP3    H242036   4.946   6.163   1.789  0.7068  0.9126 -1.6591
 6849TIP3   OH242037   2.695   3.460   2.111 -0.0839  0.0843  0.0923
 6849TIP3    H142038   2.632   3.388   2.110 -0.0325  0.0426 -0.9860
 6849TIP3    H242039   2.770   3.427   2.060  0.1346  0.7256 -0.0046
 6850TIP3   OH242040   5.742   2.381   4.310 -0.1641 -0.1041 -0.2761
 6850TIP3    H142041   5.730   2.467   4.270 -0.2499 -0.2996 -0.6796
 6850TIP3    H242042   5.751   2.398   4.404 -1.3898  0.2455 -0.2126
 6851TIP3   OH242043   6.463   2.480   2.909 -0.4632 -0.3412 -0.5915
 6851TIP3    H142044   6.555   2.487   2.883 -0.4857 -1.4816 -1.0382
 6851TIP3    H242045   6.452   2.545   2.979 -0.1194  2.1040 -2.6414
 6852TIP3   OH242046   4.718   1.763  16.029  0.0600  0.0370  0.0049
 6852TIP3    H142047   4.772   1.699  15.983  2.7839  0.7701  1.9725
 6852TIP3    H242048   4.654   1.791  15.963  1.7649 -1.2044 -2.3404
 6853TIP3   OH242049   0.456   1.303   3.950  0.4943 -0.9390 -0.0287
 6853TIP3    H142050   0.542   1.262   3.940  1.2894  0.2705  1.5139
 6853TIP3    H242051   0.426   1.276   4.037 -0.0461 -0.2117  0.0208
 6854TIP3   OH242052   6.708   3.614  11.218  0.1603 -0.2322  0.3315
 6854TIP3    H142053   6.665   3.667  11.285 -0.1396  0.9893 -0.7768
 6854TIP3    H242054   6.717   3.674  11.143  0.8523 -1.4313 -0.5714
 6855TIP3   OH242055   0.702   6.749  14.925  0.2734  0.1694  0.1313
 6855TIP3    H142056   0.732   6.814  14.862  0.6437 -1.5404 -1.5592
 6855TIP3    H242057   0.608   6.744  14.912  0.1953  0.5838  0.5057
 6856TIP3   OH242058   2.488   0.532   0.694 -0.4158 -0.7763 -0.0865
 6856TIP3    H142059   2.440   0.554   0.774 -0.2054 -0.2020 -0.1140
 6856TIP3    H242060   2.423   0.488   0.639 -0.3872 -1.7759  0.6575
 6857TIP3   OH242061   5.588   2.641   2.826 -0.4506 -0.5281  0.2419
 6857TIP3    H142062   5.680   2.662   2.838 -1.0685  2.3229  0.7352
 6857TIP3    H242063   5.559   2.695   2.753 -1.7453 -1.3768  0.0770
 6858TIP3   OH242064   5.668   2.692  12.530  0.5836  0.5132  0.6680
 6858TIP3    H142065   5.641   2.645  12.452 -0.0555  4.2606 -1.6307
 6858TIP3    H242066   5.756   2.725  12.509  0.5994  1.1807  1.7051
 6859TIP3   OH242067   1.909   2.260   2.897  0.0370 -0.1978  0.1763
 6859TIP3    H142068   1.959   2.180   2.915 -1.2913 -1.6666 -2.0840
 6859TIP3    H242069   1.931   2.282   2.807  0.2206  1.9410  0.7036
 6860TIP3   OH242070   6.453   2.002  11.678  0.4556  0.3193  0.3980
 6860TIP3    H142071   6.423   2.092  11.694  2.0997  0.5433  2.7658
 6860TIP3    H242072   6.379   1.947  11.703 -0.5087  0.9618 -0.9134
 6861TIP3   OH242073   1.298   5.534   1.258  0.2574 -0.7223  0.0510
 6861TIP3    H142074   1.300   5.505   1.167  0.1634 -1.0737  0.1571
 6861TIP3    H242075   1.389   5.557   1.278  0.8035 -3.0668  0.6222
 6862TIP3   OH242076   1.199   6.237  13.752  0.0566  0.1361 -0.3025
 6862TIP3    H142077   1.266   6.169  13.758  1.2654  1.2983  0.0179
 6862TIP3    H242078   1.242   6.316  13.787 -0.3035  1.7584 -3.1607
 6863TIP3   OH242079   0.951   1.319  14.110 -0.0696 -0.2888  0.3213
 6863TIP3    H142080   0.884   1.386  14.094 -0.7732 -1.3436 -1.3927
 6863TIP3    H242081   0.950   1.265  14.031  1.9559 -1.0809  0.7844
 6864TIP3   OH242082   3.550   1.433  11.289 -0.3485 -0.1649  0.0311
 6864TIP3    H142083   3.520   1.342  11.285 -1.4764  0.2272 -0.7413
 6864TIP3    H242084   3.475   1.483  11.321  0.3517  0.4739  0.7276
 6865TIP3   OH242085   4.372   3.460  15.161 -0.1170 -0.1665  0.1438
 6865TIP3    H142086   4.313   3.392  15.194  0.7027 -0.9542  0.0192
 6865TIP3    H242087   4.316   3.516  15.108 -0.8453 -0.6378  0.3955
 6866TIP3   OH242088   3.818   5.820   4.547  0.2305  0.6071  0.3093
 6866TIP3    H142089   3.788   5.755   4.483  0.1680 -0.5993  1.5127
 6866TIP3    H242090   3.911   5.801   4.559  0.5044  1.5522 -0.2308
 6867TIP3   OH242091   0.789   0.631   0.589 -0.0016 -0.3983  0.2473
 6867TIP3    H142092   0.748   0.713   0.562 -1.1194 -0.9254  0.2732
 6867TIP3    H242093   0.790   0.635   0.684 -1.1480 -0.8894  0.3061
 6868TIP3   OH242094   2.793   6.790   3.024 -0.2148 -0.3988  0.0047
 6868TIP3    H142095   2.720   6.770   2.966 -0.1379 -0.5241 -0.0496
 6868TIP3    H242096   2.826   6.704   3.052  0.6510 -0.3737 -0.8926
 6869TIP3   OH242097   5.189   0.794   5.240 -0.2734  0.2733 -0.1609
 6869TIP3    H142098   5.205   0.744   5.160  0.7966 -1.7846  1.2361
 6869TIP3    H242099   5.101   0.766   5.268 -0.2524  0.2547 -0.1143
 6870TIP3   OH242100   3.201   4.900  11.516 -0.0261 -0.2050  0.0190
 6870TIP3    H142101   3.282   4.874  11.560  1.1111  1.7053 -0.8458
 6870TIP3    H242102   3.223   4.899  11.423 -1.0467  0.2056 -0.2372
 6871TIP3   OH242103   5.731   4.354  16.293 -0.2636  0.0483 -0.3753
 6871TIP3    H142104   5.732   4.290  16.222 -0.0001 -0.9630  0.5153
 6871TIP3    H242105   5.771   4.308  16.367  1.9186  1.9332 -0.2823
 6872TIP3   OH242106   5.935   6.787   2.817  0.7132  0.2515  0.0288
 6872TIP3    H142107   5.851   6.805   2.859 -0.5376  0.8606 -2.5595
 6872TIP3    H242108   5.988   6.865   2.835  0.4530  0.2345  0.9474
 6873TIP3   OH242109   4.139   4.032  13.270 -0.0262  0.2186  0.6899
 6873TIP3    H142110   4.147   3.936  13.269 -0.5181  0.1561 -1.3798
 6873TIP3    H242111   4.048   4.048  13.294 -0.2662  0.1156 -0.1310
 6874TIP3   OH242112   4.580   6.827   6.644 -0.2181 -0.2565  0.0017
 6874TIP3    H142113   4.672   6.820   6.621 -0.3709 -0.4384 -0.5666
 6874TIP3    H242114   4.579   6.880   6.724  0.3447  0.1096 -0.2302
 6875TIP3   OH242115   1.782   3.145  15.504 -0.7262  0.1138  0.0302
 6875TIP3    H142116   1.724   3.142  15.429 -0.9221  0.9610  0.1376
 6875TIP3    H242117   1.724   3.157  15.579 -0.6011 -1.4500  0.4250
 6876TIP3   OH242118   1.822   1.586  15.975 -0.4856  1.0057  0.2671
 6876TIP3    H142119   1.737   1.625  15.994 -1.0316 -0.3551  0.6958
 6876TIP3    H242120   1.825   1.507  16.029 -0.6210 -1.1508 -2.6851
 6877TIP3   OH242121   2.557   0.041  10.435 -0.1627  0.1109 -0.0474
 6877TIP3    H142122   2.581   0.077  10.350  0.0598 -0.3713 -0.1964
 6877TIP3    H242123   2.581   0.109  10.498  0.3351  0.1878 -0.3132
 6878TIP3   OH242124   4.119   2.674  15.036  0.5305  0.0352  0.3512
 6878TIP3    H142125   4.142   2.760  15.070 -2.1553  1.4019 -0.9846
 6878TIP3    H242126   4.042   2.647  15.087  0.3019 -0.7768 -0.3806
 6879TIP3   OH242127   3.144   2.006   3.780 -0.3919  0.2147  0.1346
 6879TIP3    H142128   3.112   2.073   3.840  0.8000  1.8167 -0.9415
 6879TIP3    H242129   3.073   1.942   3.777 -1.0288  0.7383  2.1984
 6880TIP3   OH242130   1.099   0.518  14.435 -0.0996  0.5453  0.2154
 6880TIP3    H142131   1.007   0.541  14.437  0.1434  1.4967  1.0538
 6880TIP3    H242132   1.135   0.567  14.361  0.1224  1.7630  1.1071
 6881TIP3   OH242133   6.255   5.138   5.107  0.8189 -0.5771 -0.4076
 6881TIP3    H142134   6.209   5.190   5.173  0.1910  0.4706 -1.6241
 6881TIP3    H242135   6.186   5.096   5.057  1.1138  0.7613 -2.0537
 6882TIP3   OH242136   3.532   0.724  14.424 -0.3436 -0.4580 -0.1810
 6882TIP3    H142137   3.563   0.656  14.485 -2.4342 -1.7675 -0.4722
 6882TIP3    H242138   3.522   0.802  14.479  0.2733 -0.8929  0.5830
 6883TIP3   OH242139   3.421   1.046  13.223  0.3295  0.5618 -0.0459
 6883TIP3    H142140   3.440   1.134  13.193 -2.0178  0.5798 -1.7093
 6883TIP3    H242141   3.350   1.015  13.166  2.1228 -3.0349 -0.6499
 6884TIP3   OH242142   3.515   5.406   3.924 -0.3635 -0.3401 -0.3404
 6884TIP3    H142143   3.465   5.475   3.881 -0.1830 -0.2915 -0.4705
 6884TIP3    H242144   3.451   5.363   3.981  0.1456  1.8756  2.1086
 6885TIP3   OH242145   2.694   0.969  11.093 -0.3423  0.1514  0.4371
 6885TIP3    H142146   2.660   0.901  11.150 -0.7945 -0.1746 -0.2225
 6885TIP3    H242147   2.772   0.930  11.052  1.6859  1.3029  2.8918
 6886TIP3   OH242148   3.735   2.110  10.338 -0.5302 -0.8221  0.2084
 6886TIP3    H142149   3.821   2.075  10.362  0.1141 -0.8146 -1.9142
 6886TIP3    H242150   3.713   2.066  10.256 -2.7401 -1.0691  0.8515
 6887TIP3   OH242151   4.422   6.084   2.364  0.2442  0.5330 -0.5554
 6887TIP3    H142152   4.468   6.002   2.383 -0.2532  0.3411 -0.1634
 6887TIP3    H242153   4.454   6.146   2.430  1.0155  0.8177 -1.1725
 6888TIP3   OH242154   1.912   5.017   2.362 -0.5412  0.4210 -0.5642
 6888TIP3    H142155   1.915   5.020   2.267 -0.9081  2.7828 -0.5592
 6888TIP3    H242156   1.867   5.098   2.387  0.2903  0.2623  1.6353
 6889TIP3   OH242157   0.611   1.794  14.228  0.1210 -0.2667  0.1944
 6889TIP3    H142158   0.636   1.883  14.251 -0.5392  0.2443 -1.0032
 6889TIP3    H242159   0.669   1.770  14.156  0.1918 -0.7578  0.4087
 6890TIP3   OH242160   5.375   1.624  13.211  0.7329  0.0687  0.2804
 6890TIP3    H142161   5.324   1.563  13.265 -0.7037  0.2832 -0.7676
 6890TIP3    H242162   5.365   1.708  13.255 -0.6239  0.2896 -0.3770
 6891TIP3   OH242163   5.305   6.714   4.887  0.0286  0.3062  0.9052
 6891TIP3    H142164   5.293   6.673   4.972 -3.3755  0.9022  0.8678
 6891TIP3    H242165   5.234   6.679   4.833 -0.0996  2.5810 -0.5788
 6892TIP3   OH242166   6.677   4.913  15.855 -0.0753 -0.0317 -0.0205
 6892TIP3    H142167   6.605   4.968  15.823  0.0543  0.3475  0.3330
 6892TIP3    H242168   6.634   4.851  15.914 -0.2078 -0.2585 -0.3479
 6893TIP3   OH242169   3.657   6.556  11.186  0.3265  0.5407 -0.1076
 6893TIP3    H142170   3.747   6.528  11.168 -0.3945 -1.6107 -0.6979
 6893TIP3    H242171   3.638   6.620  11.117  1.0340  0.1514 -0.6784
 6894TIP3   OH242172   6.393   1.705   6.336  0.1531 -0.1537  0.1887
 6894TIP3    H142173   6.320   1.725   6.394 -1.0421 -0.1813 -1.2457
 6894TIP3    H242174   6.364   1.628   6.287  2.0907 -1.5812  1.1608
 6895TIP3   OH242175   3.205   3.410  11.837 -0.4143  0.6003  0.2383
 6895TIP3    H142176   3.292   3.450  11.840  0.1396 -0.5538 -0.0751
 6895TIP3    H242177   3.219   3.326  11.794 -1.6162  0.2006  0.6013
 6896TIP3   OH242178   3.244   3.475   6.039  0.0399  0.1334 -0.2681
 6896TIP3    H142179   3.246   3.415   5.964 -0.4833  0.2107 -0.3524
 6896TIP3    H242180   3.292   3.430   6.108 -1.3115 -0.8944  0.0342
 6897TIP3   OH242181   6.421   0.603   1.473 -0.1789 -0.6053 -0.0922
 6897TIP3    H142182   6.415   0.602   1.569 -0.0503 -2.5781 -0.0561
 6897TIP3    H242183   6.504   0.646   1.454 -1.0187  1.4073  0.5803
 6898TIP3   OH242184   2.393   3.084   4.345 -0.4418  0.1778 -0.1927
 6898TIP3    H142185   2.451   3.148   4.385 -0.7890  0.3223  0.0837
 6898TIP3    H242186   2.372   3.120   4.259  2.1214 -1.1862 -1.4924
 6899TIP3   OH242187   4.207   3.109   0.602  0.3685 -0.1548  0.2012
 6899TIP3    H142188   4.150   3.039   0.571 -0.7999  0.4363  0.9528
 6899TIP3    H242189   4.184   3.118   0.695  1.2439  0.5301  0.3584
 6900TIP3   OH242190   5.317   0.469  11.669 -0.6196  0.3025  0.2444
 6900TIP3    H142191   5.271   0.523  11.733 -2.2713 -1.0145  0.2493
 6900TIP3    H242192   5.269   0.385  11.670  0.5687 -0.4415 -1.2372
 6901TIP3   OH242193   2.453   0.071   1.207 -0.1802  0.4715  0.3218
 6901TIP3    H142194   2.385   0.127   1.243  0.4257  1.1935  0.3758
 6901TIP3    H242195   2.508   0.048   1.282  0.0212  0.4526  0.1709
 6902TIP3   OH242196   1.341   3.594  11.181  0.0426  0.0762  0.1570
 6902TIP3    H142197   1.281   3.669  11.182 -0.2284  0.0040 -2.5308
 6902TIP3    H242198   1.427   3.633  11.161 -0.3532 -0.3233 -2.8442
 6903TIP3   OH242199   6.241   3.508  15.484 -0.5239  0.3336  0.5420
 6903TIP3    H142200   6.328   3.546  15.473  0.1849 -1.3111  0.1086
 6903TIP3    H242201   6.254   3.415  15.466 -2.3816  0.0605  0.4769
 6904TIP3   OH242202   4.586   3.086  11.553 -0.0645  0.0652  0.2893
 6904TIP3    H142203   4.680   3.088  11.533 -0.0419 -0.5040  0.3151
 6904TIP3    H242204   4.568   3.172  11.591 -0.2315  1.3947 -2.5912
 6905TIP3   OH242205   6.452   2.422   0.777  0.2355  0.2369  0.4809
 6905TIP3    H142206   6.485   2.332   0.783 -0.6500 -0.2418 -1.2144
 6905TIP3    H242207   6.468   2.447   0.686  0.5048  1.8298  0.9356
 6906TIP3   OH242208   0.176   5.686  15.521 -0.1936 -0.2185 -0.2547
 6906TIP3    H142209   0.112   5.652  15.585 -0.9513  2.3922  0.4892
 6906TIP3    H242210   0.241   5.732  15.575 -1.7084  3.4657 -1.2591
 6907TIP3   OH242211   4.999   5.146   4.175 -0.0815 -0.1525  0.2552
 6907TIP3    H142212   5.035   5.165   4.089 -0.7464 -2.4373 -0.5871
 6907TIP3    H242213   4.925   5.206   4.184  0.6053  0.8024 -0.2995
 6908TIP3   OH242214   6.272   0.986  12.993  0.3817  0.5670  0.1407
 6908TIP3    H142215   6.303   1.074  12.969  0.4496 -0.0293 -2.1534
 6908TIP3    H242216   6.352   0.937  13.010  0.3461  0.8942  1.3520
 6909TIP3   OH242217   4.111   0.736  12.421  0.1576  0.3657  0.9973
 6909TIP3    H142218   4.033   0.686  12.447 -1.4533  1.8674 -0.6424
 6909TIP3    H242219   4.129   0.792  12.496 -1.2064  0.9370  0.9356
 6910TIP3   OH242220   1.696   2.652  15.992  0.1856  0.0442 -0.0614
 6910TIP3    H142221   1.655   2.684  16.073  1.6229  1.1857  0.2546
 6910TIP3    H242222   1.720   2.562  16.011 -2.0008 -0.6402 -0.2194
 6911TIP3   OH242223   2.324   2.046   4.957 -0.1092 -0.2601  0.3476
 6911TIP3    H142224   2.312   2.141   4.956  1.9629  0.0684  0.5873
 6911TIP3    H242225   2.371   2.029   5.039 -0.0840 -1.4280  0.1046
 6912TIP3   OH242226   0.653   6.344   4.095 -0.6525 -0.6731  0.5922
 6912TIP3    H142227   0.611   6.313   4.015 -0.7519  1.6134 -0.3215
 6912TIP3    H242228   0.585   6.395   4.139  0.6332  1.9427 -0.2417
 6913TIP3   OH242229   3.921   1.739   1.377  0.2910 -0.0856 -0.0587
 6913TIP3    H142230   4.015   1.723   1.386  0.9053  0.6696 -3.5512
 6913TIP3    H242231   3.882   1.651   1.370  0.4767 -0.4471  2.6267
 6914TIP3   OH242232   2.989   3.764   5.276 -0.4736  0.3853  0.1436
 6914TIP3    H142233   2.961   3.705   5.346  0.8825 -0.6538 -0.1512
 6914TIP3    H242234   2.909   3.780   5.225 -1.0089 -0.6482  0.6166
 6915TIP3   OH242235   4.131   5.035  16.487 -0.3482 -0.1271 -0.0856
 6915TIP3    H142236   4.078   4.982  16.547  0.7070 -0.9531  0.1525
 6915TIP3    H242237   4.112   5.125  16.512 -0.6847 -0.4389  0.8367
 6916TIP3   OH242238   4.702   5.546  12.017  0.6148 -0.8363  0.0571
 6916TIP3    H142239   4.683   5.595  11.936  1.2329 -1.0724 -0.2342
 6916TIP3    H242240   4.791   5.513  12.005  1.0473 -0.1502  1.2059
 6917TIP3   OH242241   1.993   0.199   4.116 -0.3743  0.7936 -0.6655
 6917TIP3    H142242   1.963   0.124   4.064  1.5904 -0.8586  0.3939
 6917TIP3    H242243   2.015   0.160   4.201 -0.1698  2.7740  0.2246
 6918TIP3   OH242244   3.757   5.578   4.437 -0.1649  0.3240 -0.3165
 6918TIP3    H142245   3.738   5.518   4.364  3.1049 -0.6793 -0.4864
 6918TIP3    H242246   3.834   5.541   4.479 -0.4018  2.3265  2.1006
 6919TIP3   OH242247   3.290   1.251   2.501  0.1446 -0.0628  0.8569
 6919TIP3    H142248   3.380   1.250   2.469  0.0011  3.8394 -0.1894
 6919TIP3    H242249   3.297   1.274   2.593  0.2111  0.5830  0.6911
 6920TIP3   OH242250   2.116   5.402  10.611  0.0938  0.2077 -0.0329
 6920TIP3    H142251   2.051   5.432  10.548 -0.4710 -1.4850 -0.3102
 6920TIP3    H242252   2.089   5.313  10.633  0.9827  0.3144  1.6724
 6921TIP3   OH242253   4.773   5.033  15.585  0.6890 -0.9526 -0.4294
 6921TIP3    H142254   4.814   5.014  15.670  0.4776 -0.4461 -0.2034
 6921TIP3    H242255   4.682   5.053  15.607  1.0007  0.8299 -0.5411
 6922TIP3   OH242256   3.359   4.639  11.339  0.0815  0.3505 -0.5057
 6922TIP3    H142257   3.369   4.735  11.342 -0.7323  0.4117  1.7905
 6922TIP3    H242258   3.266   4.626  11.322 -0.3509  0.0452  1.7878
 6923TIP3   OH242259   4.750   4.497   2.358  0.0958 -0.1299 -0.2517
 6923TIP3    H142260   4.714   4.454   2.436  0.6189  1.0658  0.6851
 6923TIP3    H242261   4.844   4.497   2.372  0.1786  0.3023 -0.7744
 6924TIP3   OH242262   0.698   3.590   6.305  0.2605 -0.2467  0.4280
 6924TIP3    H142263   0.735   3.512   6.264 -1.5335 -1.3899  0.8757
 6924TIP3    H242264   0.674   3.562   6.393  2.1591  1.6142  1.6338
 6925TIP3   OH242265   4.083   5.669   5.077  0.3981 -1.2733  1.0095
 6925TIP3    H142266   4.031   5.698   5.152 -0.1239 -1.2771  0.6537
 6925TIP3    H242267   4.173   5.680   5.105  0.2373  0.9926  0.8100
 6926TIP3   OH242268   1.326   3.344  16.361 -0.5069 -0.4353 -0.1162
 6926TIP3    H142269   1.344   3.377  16.273  2.3376 -1.8192 -0.1720
 6926TIP3    H242270   1.262   3.405  16.397  0.2899  1.7715 -2.1868
 6927TIP3   OH242271   3.660   4.641   4.951  0.7310  0.1001  0.4752
 6927TIP3    H142272   3.664   4.546   4.955  2.8100  0.1369 -0.0325
 6927TIP3    H242273   3.627   4.660   4.863  0.3425 -0.1267  0.5671
 6928TIP3   OH242274   4.047   5.398  11.075  0.0872  0.0523  0.1947
 6928TIP3    H142275   4.039   5.455  10.999 -0.3646  0.6665  0.6959
 6928TIP3    H242276   4.102   5.325  11.045 -1.1222 -0.3597 -1.0879
 6929TIP3   OH242277   1.058   1.202  13.416  0.2710 -0.3604 -0.0834
 6929TIP3    H142278   1.063   1.295  13.397  3.2025 -0.4314 -0.2166
 6929TIP3    H242279   1.052   1.160  13.329 -3.5909 -0.3647  0.0204
 6930TIP3   OH242280   3.476   6.229   2.852  0.4225  0.3645 -0.2478
 6930TIP3    H142281   3.560   6.271   2.833 -0.8686  3.9673  1.2153
 6930TIP3    H242282   3.423   6.244   2.774 -0.2792  2.2736  0.5523
 6931TIP3   OH242283   5.666   2.175  12.976 -0.1974  0.0486  0.4097
 6931TIP3    H142284   5.748   2.127  12.990 -0.9023 -0.6932  2.3004
 6931TIP3    H242285   5.597   2.110  12.991 -1.1599  0.6454 -1.2266
 6932TIP3   OH242286   5.165   2.572   6.362 -0.3117  0.9400  0.1544
 6932TIP3    H142287   5.205   2.581   6.449  0.6415  1.4771 -0.3263
 6932TIP3    H242288   5.080   2.615   6.371  0.9145  3.5947  0.0904
 6933TIP3   OH242289   5.987   6.663  12.838  0.2610 -0.6544  0.1586
 6933TIP3    H142290   6.017   6.624  12.757  1.3089  0.6228 -0.1023
 6933TIP3    H242291   6.065   6.669  12.893  0.0224  0.4938  0.4095
 6934TIP3   OH242292   2.254   5.164   0.429  0.1257  0.3266 -0.1638
 6934TIP3    H142293   2.268   5.069   0.429  1.2463  0.4693 -0.7597
 6934TIP3    H242294   2.272   5.191   0.339 -0.7211  1.0485 -0.1370
 6935TIP3   OH242295   6.128   6.223  15.696 -0.3433  0.2633  0.0686
 6935TIP3    H142296   6.191   6.206  15.626  1.3336 -0.1092  1.5860
 6935TIP3    H242297   6.144   6.313  15.722 -1.7359  0.7772 -0.7116
 6936TIP3   OH242298   1.740   1.631   1.313 -0.3439 -0.0724  0.1619
 6936TIP3    H142299   1.696   1.623   1.228  0.9054  0.7369 -0.6058
 6936TIP3    H242300   1.744   1.542   1.347 -0.2329 -0.5263 -0.9783
 6937TIP3   OH242301   1.537   5.607   2.721  0.1428  0.3654  0.1996
 6937TIP3    H142302   1.520   5.646   2.635  0.6750 -0.7760 -0.4487
 6937TIP3    H242303   1.526   5.513   2.707 -0.3500  0.2091  1.5346
 6938TIP3   OH242304   0.541   6.379  12.994  0.3381  0.0730 -0.2110
 6938TIP3    H142305   0.585   6.303  13.032 -0.9025 -1.1301 -1.1054
 6938TIP3    H242306   0.502   6.347  12.913 -1.3407  1.3050  0.0465
 6939TIP3   OH242307   2.651   4.387  16.591 -0.1698  0.1544 -0.1802
 6939TIP3    H142308   2.712   4.324  16.630 -0.9589 -0.3985  0.1695
 6939TIP3    H242309   2.705   4.434  16.527  0.3507 -1.1272 -0.7232
 6940TIP3   OH242310   2.713   1.667  15.561  0.3547 -0.1606  0.3802
 6940TIP3    H142311   2.679   1.585  15.525  0.2611  0.0123  0.0761
 6940TIP3    H242312   2.759   1.709  15.488 -0.7123  0.6821  0.1667
 6941TIP3   OH242313   1.792   6.321  16.168 -0.2324 -0.0910  0.7309
 6941TIP3    H142314   1.872   6.273  16.190 -0.4271  0.5459  3.0722
 6941TIP3    H242315   1.823   6.404  16.132  0.1141 -0.5508 -0.0679
 6942TIP3   OH242316   5.029   2.221   0.406  0.7454 -0.4463 -0.6683
 6942TIP3    H142317   4.939   2.204   0.431  0.8544 -2.1081 -1.2676
 6942TIP3    H242318   5.079   2.148   0.443  1.9631  0.7618  0.1793
 6943TIP3   OH242319   1.967   1.130  12.934 -0.3217 -0.0103  0.2258
 6943TIP3    H142320   1.929   1.075  13.002 -0.5735 -0.4253 -0.2398
 6943TIP3    H242321   1.983   1.214  12.977 -1.1558 -0.0320  0.6074
 6944TIP3   OH242322   0.827   2.941  10.972 -0.4016 -0.0518 -0.3523
 6944TIP3    H142323   0.808   2.885  10.897 -0.1799  0.2108 -0.6099
 6944TIP3    H242324   0.760   3.009  10.968 -1.7004 -1.2094  0.9293
 6945TIP3   OH242325   1.349   3.913   4.905 -0.1707  0.0375  0.6064
 6945TIP3    H142326   1.317   3.831   4.942  1.2507 -0.2328  1.3262
 6945TIP3    H242327   1.442   3.898   4.890 -0.6647 -0.0431 -3.6427
 6946TIP3   OH242328   6.231   4.567  17.023 -0.2007  0.3746  0.3432
 6946TIP3    H142329   6.184   4.535  17.100  0.9605 -0.1918  0.8426
 6946TIP3    H242330   6.280   4.643  17.055  0.0184  0.3459  0.0757
 6947TIP3   OH242331   2.176   3.472  13.804  0.0049  0.4091 -0.6560
 6947TIP3    H142332   2.133   3.389  13.823 -1.2204  0.3641 -3.2753
 6947TIP3    H242333   2.106   3.529  13.774  1.0109  2.0568 -0.0367
 6948TIP3   OH242334   5.469   1.060  15.986  0.3276 -0.1961 -0.4211
 6948TIP3    H142335   5.533   0.993  16.012  1.4324  0.9956  0.0687
 6948TIP3    H242336   5.523   1.130  15.949 -0.7654  0.6042 -0.5233
 6949TIP3   OH242337   6.455   3.857  15.366  0.2007  0.1797  0.0455
 6949TIP3    H142338   6.395   3.826  15.298  0.0102  1.6197 -0.4692
 6949TIP3    H242339   6.540   3.866  15.322  0.2651  0.3509  0.2026
 6950TIP3   OH242340   4.725   1.878   3.771 -0.0119 -0.2814 -0.4985
 6950TIP3    H142341   4.765   1.808   3.822  0.5476  0.0319 -0.4968
 6950TIP3    H242342   4.796   1.912   3.716 -0.3690  0.0253 -0.7806
 6951TIP3   OH242343   1.288   0.235   3.574 -0.0153 -0.4376 -0.1571
 6951TIP3    H142344   1.295   0.321   3.616  0.5185 -0.8196  0.5614
 6951TIP3    H242345   1.370   0.225   3.526  0.1835 -0.7966  0.2532
 6952TIP3   OH242346   6.782   5.297  11.058 -0.1502 -0.1071  0.1187
 6952TIP3    H142347   6.821   5.210  11.070  0.3422 -0.1011 -1.2537
 6952TIP3    H242348   6.858   5.356  11.055 -0.4480  0.2921  0.4254
 6953TIP3   OH242349   6.489   5.848  13.443  0.6054  0.2917 -0.4896
 6953TIP3    H142350   6.441   5.913  13.494  0.2074 -0.1959 -0.2267
 6953TIP3    H242351   6.562   5.822  13.500  1.9521  1.9368 -1.3740
 6954TIP3   OH242352   5.169   4.843   1.120  0.6117  0.5785  0.3151
 6954TIP3    H142353   5.153   4.921   1.173 -0.7432 -0.1317  1.0197
 6954TIP3    H242354   5.219   4.874   1.045  3.3415  1.5146  2.3505
 6955TIP3   OH242355   4.712   1.316   5.754  0.4310 -0.1010 -0.4361
 6955TIP3    H142356   4.734   1.375   5.681  1.3086 -1.0048 -0.9142
 6955TIP3    H242357   4.717   1.228   5.717  0.2871 -0.5483  0.5641
 6956TIP3   OH242358   3.458   1.394   1.104  0.4697 -0.0474  0.3349
 6956TIP3    H142359   3.412   1.349   1.175  2.1598 -0.2988  1.3278
 6956TIP3    H242360   3.508   1.324   1.061  0.4582  0.3289 -0.2997
 6957TIP3   OH242361   4.405   6.281  13.629  0.6499  0.2122 -0.3026
 6957TIP3    H142362   4.368   6.265  13.543 -3.0468  0.8669  0.9590
 6957TIP3    H242363   4.403   6.377  13.638  1.0980  0.1598  0.4641
 6958TIP3   OH242364   0.145   4.295  14.813  0.3941 -0.4706 -0.1062
 6958TIP3    H142365   0.215   4.294  14.747 -0.2653 -0.0110 -0.8284
 6958TIP3    H242366   0.073   4.247  14.772 -0.1819  0.2112  0.0980
 6959TIP3   OH242367   4.386   3.182  12.080 -0.3646 -0.3268  0.1125
 6959TIP3    H142368   4.405   3.221  12.166 -2.4552 -1.5272  1.1959
 6959TIP3    H242369   4.345   3.253  12.030  5.3775  2.0760 -2.0021
 6960TIP3   OH242370   0.353   3.761   2.798  0.0407  0.1891  0.3696
 6960TIP3    H142371   0.257   3.763   2.799  0.0406  0.6570  2.1014
 6960TIP3    H242372   0.379   3.851   2.813  0.7817  0.1748 -0.7326
 6961TIP3   OH242373   4.388   5.610   2.097 -0.9092  0.5535 -0.3994
 6961TIP3    H142374   4.481   5.616   2.077 -0.5713 -0.1420  0.8392
 6961TIP3    H242375   4.357   5.700   2.094  0.3311  1.1054  1.3952
 6962TIP3   OH242376   2.191   4.918   0.051  0.2292  0.2145 -0.2423
 6962TIP3    H142377   2.245   4.991   0.022  2.2355 -1.0464  0.1010
 6962TIP3    H242378   2.126   4.957   0.110  0.6550  1.8028 -0.7960
 6963TIP3   OH242379   3.562   2.238   5.225  0.0647 -0.3010  0.2063
 6963TIP3    H142380   3.648   2.250   5.186  1.1862 -0.5019  2.4531
 6963TIP3    H242381   3.551   2.312   5.284 -0.9087 -0.7602  0.6368
 6964TIP3   OH242382   6.495   6.609  15.744  0.5228 -0.2293  0.1223
 6964TIP3    H142383   6.415   6.607  15.692 -1.6338  2.6677  2.8828
 6964TIP3    H242384   6.501   6.522  15.783 -0.4188 -0.9505 -1.2840
 6965TIP3   OH242385   3.837   6.531   0.412  0.0646  0.6705 -0.0554
 6965TIP3    H142386   3.828   6.466   0.482 -0.3416  1.6691  0.8580
 6965TIP3    H242387   3.749   6.543   0.378  0.1843  0.5401 -0.4157
 6966TIP3   OH242388   5.489   0.008   1.362  0.9421  0.4621  0.6403
 6966TIP3    H142389   5.428  -0.019   1.431  2.1620 -1.1357  1.1747
 6966TIP3    H242390   5.486  -0.063   1.298 -0.8252  2.3353 -1.4939
 6967TIP3   OH242391   4.881   4.902   2.665 -0.3963  0.0518  0.3721
 6967TIP3    H142392   4.807   4.962   2.675  0.3578  1.2009 -0.5509
 6967TIP3    H242393   4.903   4.907   2.572 -0.5939 -2.0584  0.1751
 6968TIP3   OH242394   3.163   6.787   2.386  0.2377  0.1758 -0.3165
 6968TIP3    H142395   3.220   6.840   2.443  1.4123  0.2081 -1.4745
 6968TIP3    H242396   3.223   6.734   2.334 -0.8906 -1.7823  0.2709
 6969TIP3   OH242397   5.340   6.230   3.166  0.6849  0.1953  0.1768
 6969TIP3    H142398   5.405   6.232   3.236  0.0837  0.8569  0.7329
 6969TIP3    H242399   5.310   6.139   3.164  1.2489  0.0039  0.2626
 6970TIP3   OH242400   1.444   0.368  17.065  0.2667 -0.7755  0.0315
 6970TIP3    H142401   1.397   0.431  17.120  1.2725  0.4107 -0.4070
 6970TIP3    H242402   1.418   0.282  17.099 -0.4817 -0.1155  1.2149
 6971TIP3   OH242403   2.290   1.951  13.596  0.6974  0.5004  0.5449
 6971TIP3    H142404   2.373   1.926  13.635  0.3841  0.8780  1.4778
 6971TIP3    H242405   2.239   1.987  13.668 -1.4108 -2.3609  0.6605
 6972TIP3   OH242406   0.936   6.654   1.861 -0.0322 -0.8514 -0.1366
 6972TIP3    H142407   1.012   6.605   1.830  1.1056  0.8866 -0.2426
 6972TIP3    H242408   0.914   6.614   1.945  1.2324 -1.1700  0.0672
 6973TIP3   OH242409   5.055   3.318  11.156  0.1131 -0.4996  0.3850
 6973TIP3    H142410   5.143   3.307  11.122  0.2005 -0.8903  0.7357
 6973TIP3    H242411   5.048   3.412  11.176  0.0131 -0.2372 -0.8221
 6974TIP3   OH242412   4.546   3.845  16.521 -0.6266 -0.0104 -0.2897
 6974TIP3    H142413   4.526   3.764  16.569 -0.0263 -0.4008 -0.6746
 6974TIP3    H242414   4.464   3.869  16.479 -0.9899 -0.0303  0.3982
 6975TIP3   OH242415   1.464   0.572   0.659  0.2371  0.1269  0.4761
 6975TIP3    H142416   1.480   0.658   0.621 -0.2102 -0.0682 -0.1759
 6975TIP3    H242417   1.550   0.531   0.662  0.5483  0.8023  1.3382
 6976TIP3   OH242418   1.741   0.451  11.791 -0.0842  0.2438  0.2082
 6976TIP3    H142419   1.722   0.467  11.884 -0.8621 -0.1241  0.1194
 6976TIP3    H242420   1.808   0.516  11.769  0.3526  0.1098  1.1120
 6977TIP3   OH242421   0.730   1.783  16.336  0.0631  0.8263  0.1149
 6977TIP3    H142422   0.693   1.863  16.372 -0.7063 -0.5259  2.6253
 6977TIP3    H242423   0.813   1.772  16.384  0.2448  0.2378 -0.3234
 6978TIP3   OH242424   6.341   1.595   1.742 -0.2246  0.7570  0.7688
 6978TIP3    H142425   6.341   1.613   1.648  0.2200  2.3441  1.0520
 6978TIP3    H242426   6.415   1.536   1.756 -2.0196 -1.9285 -0.2617
 6979TIP3   OH242427   4.639   6.826  12.872  0.1186 -0.2830 -0.1615
 6979TIP3    H142428   4.722   6.850  12.913  0.1724 -1.8696  0.7345
 6979TIP3    H242429   4.613   6.904  12.823  1.5480  0.6406  0.4874
 6980TIP3   OH242430   0.842   0.330   1.764  0.1029 -0.1014  0.2914
 6980TIP3    H142431   0.812   0.314   1.853 -1.9305  3.1150  0.3521
 6980TIP3    H242432   0.933   0.359   1.774  0.9152 -2.5937  0.9011
 6981TIP3   OH242433   4.509   3.804  15.086  0.5680  0.2052 -0.0187
 6981TIP3    H142434   4.443   3.792  15.155  0.5946 -0.8758 -0.1676
 6981TIP3    H242435   4.571   3.733  15.100  1.4590  0.9459 -0.1740
 6982TIP3   OH242436   2.373   3.942   4.190  0.3710  0.7916  0.4268
 6982TIP3    H142437   2.422   3.980   4.118 -0.2936 -0.4599 -0.7352
 6982TIP3    H242438   2.307   3.887   4.148  1.4821 -1.8982  1.9565
 6983TIP3   OH242439   5.264   0.507  15.364  0.3751 -0.0190 -0.4256
 6983TIP3    H142440   5.333   0.542  15.308 -0.2047  1.3200 -0.3374
 6983TIP3    H242441   5.276   0.552  15.447 -0.6544  0.2841 -0.4354
 6984TIP3   OH242442   6.683   2.178   3.631  0.0620 -0.4910  0.1064
 6984TIP3    H142443   6.646   2.208   3.714  0.7700 -0.2256  0.3348
 6984TIP3    H242444   6.645   2.237   3.566  0.1994 -0.1203  0.3545
 6985TIP3   OH242445   4.411   3.304  14.855 -0.1634  0.3467  0.6703
 6985TIP3    H142446   4.458   3.279  14.776 -1.9651 -1.7045  0.1519
 6985TIP3    H242447   4.436   3.395  14.870 -0.5857  1.1903 -2.9017
 6986TIP3   OH242448   6.149   0.783  11.188 -0.7042 -0.2522  0.1112
 6986TIP3    H142449   6.158   0.872  11.222  0.3137 -0.1653 -0.3235
 6986TIP3    H242450   6.154   0.794  11.093  1.5579 -0.9430  0.0915
 6987TIP3   OH242451   4.011   1.561   5.310 -0.1436 -0.1418  0.2700
 6987TIP3    H142452   4.104   1.568   5.326 -0.2221  0.0243  0.6458
 6987TIP3    H242453   3.981   1.492   5.370 -0.2191 -0.3719 -0.0263
 6988TIP3   OH242454   1.941   0.358   0.961  0.0733  0.1472  0.0419
 6988TIP3    H142455   2.011   0.295   0.977 -1.0108 -0.9523  0.6443
 6988TIP3    H242456   1.907   0.379   1.049 -0.5845  0.3783 -0.2593
 6989TIP3   OH242457   3.548   0.293   2.749  0.5043  0.7015 -0.1015
 6989TIP3    H142458   3.568   0.367   2.692 -0.2890  2.7813  2.1345
 6989TIP3    H242459   3.615   0.296   2.817 -0.9957  1.0153  1.4275
 6990TIP3   OH242460   0.640   2.160  14.009  0.4023 -0.1073 -1.1231
 6990TIP3    H142461   0.698   2.214  13.955  0.4166 -0.1813 -1.1819
 6990TIP3    H242462   0.589   2.110  13.946 -2.2072  2.4429 -1.2538
 6991TIP3   OH242463   4.465   0.102  12.570 -0.2769 -0.7417 -0.0475
 6991TIP3    H142464   4.378   0.084  12.534 -0.4843  1.6909 -0.9661
 6991TIP3    H242465   4.448   0.131  12.659 -0.2997 -1.1520  0.0856
 6992TIP3   OH242466   2.419   6.808  13.122 -0.0656  0.1656 -0.1682
 6992TIP3    H142467   2.477   6.879  13.150 -0.3001 -0.3367  1.6724
 6992TIP3    H242468   2.470   6.762  13.055  1.0190  0.7076  0.2567
 6993TIP3   OH242469   5.937   0.195   4.525  0.2281  0.2580 -0.1820
 6993TIP3    H142470   5.927   0.250   4.447 -0.9326 -1.1621 -1.0812
 6993TIP3    H242471   6.017   0.227   4.567  0.8592  1.0662 -1.9315
 6994TIP3   OH242472   4.584   0.106   3.213  0.0985  0.3880  0.3111
 6994TIP3    H142473   4.659   0.165   3.214  0.1872  0.3002  2.2637
 6994TIP3    H242474   4.530   0.134   3.287 -0.2131 -1.5001  0.8536
 6995TIP3   OH242475   5.584   0.330   4.254 -0.1638  0.5090  0.2223
 6995TIP3    H142476   5.650   0.265   4.230  0.2907  0.4168  1.6291
 6995TIP3    H242477   5.504   0.302   4.208  1.0674  1.4599 -2.7309
 6996TIP3   OH242478   2.709   4.086  15.227 -0.2922 -0.1391 -0.2831
 6996TIP3    H142479   2.668   4.088  15.141 -1.5464  0.3637  0.3038
 6996TIP3    H242480   2.751   4.171  15.236 -0.0460 -0.2412 -0.4367
 6997TIP3   OH242481   6.008   1.474   4.488 -0.2304 -0.3818 -0.6387
 6997TIP3    H142482   6.074   1.513   4.546  0.7115  0.6336 -2.3087
 6997TIP3    H242483   6.054   1.402   4.445 -0.8803 -1.0289 -0.2794
 6998TIP3   OH242484   1.132   2.245  15.797  0.0541  0.1041  0.2162
 6998TIP3    H142485   1.218   2.278  15.772  0.3157 -1.3044 -0.8148
 6998TIP3    H242486   1.085   2.323  15.828  1.4679  1.0006  0.1880
 6999TIP3   OH242487   6.002   3.978   4.038 -0.0088 -0.3878 -0.4819
 6999TIP3    H142488   5.914   3.949   4.060 -0.1434  1.3808  1.7162
 6999TIP3    H242489   6.059   3.908   4.070 -0.5456 -0.7174 -0.2351
 7000TIP3   OH242490   0.975   5.226   0.917 -0.5169 -0.1647  0.0083
 7000TIP3    H142491   0.914   5.153   0.916  1.1304 -1.6293  0.7561
 7000TIP3    H242492   0.920   5.303   0.932 -2.2122 -1.3381  0.1199
 7001TIP3   OH242493   1.983   2.779   3.658 -0.2563 -0.1253  0.5488
 7001TIP3    H142494   2.047   2.749   3.722  0.1481  0.7310  0.5588
 7001TIP3    H242495   1.929   2.843   3.705  0.0260  0.4919  0.0650
 7002TIP3   OH242496   4.416   2.826  11.133  0.5074 -0.4529  0.0333
 7002TIP3    H142497   4.506   2.820  11.101  0.6559 -0.6821  0.4856
 7002TIP3    H242498   4.425   2.847  11.226  0.0624  1.5300 -0.3305
 7003TIP3   OH242499   1.943   4.647  13.652 -0.2216  1.0589  0.6247
 7003TIP3    H142500   1.917   4.659  13.561 -0.1946  0.3464  0.5197
 7003TIP3    H242501   1.920   4.730  13.695 -2.1122  0.6920  0.4189
 7004TIP3   OH242502   4.398   1.739  14.171  0.1466  0.1182  0.1382
 7004TIP3    H142503   4.390   1.645  14.185  0.1287  0.2442  1.1013
 7004TIP3    H242504   4.461   1.767  14.237  0.5077  0.7121 -0.4540
 7005TIP3   OH242505   2.887   6.825   5.733 -0.3543  0.1445 -0.0343
 7005TIP3    H142506   2.811   6.806   5.788 -2.0715  0.8466 -2.0703
 7005TIP3    H242507   2.905   6.743   5.687  0.2504 -0.0561  0.5300
 7006TIP3   OH242508   2.119   0.653   1.112 -0.4938  0.8389 -0.3286
 7006TIP3    H142509   2.117   0.580   1.173 -0.1826  0.9234 -0.2175
 7006TIP3    H242510   2.045   0.637   1.053  0.2056 -0.1459 -0.9732
 7007TIP3   OH242511   0.559   3.071   3.196 -0.3541 -0.5861 -0.4863
 7007TIP3    H142512   0.603   2.990   3.224  1.2204  0.0465 -1.0193
 7007TIP3    H242513   0.630   3.130   3.173 -1.5157 -0.1723 -3.3344
 7008TIP3   OH242514   0.863   0.053   3.153 -0.5537 -0.4458 -0.0740
 7008TIP3    H142515   0.848   0.077   3.244  1.2994  0.0988  0.1155
 7008TIP3    H242516   0.830   0.127   3.103  0.4403  0.2504  0.2780
 7009TIP3   OH242517   1.868   2.366   3.917 -0.5011  0.3692 -0.2557
 7009TIP3    H142518   1.783   2.322   3.925 -0.5694  0.5024 -0.2558
 7009TIP3    H242519   1.878   2.413   4.000 -0.7058  0.8519 -0.5026
 7010TIP3   OH242520   4.686   3.140  13.765  0.1627 -0.0742  0.1251
 7010TIP3    H142521   4.680   3.186  13.681 -1.0392 -1.6298 -0.6653
 7010TIP3    H242522   4.731   3.203  13.822  0.5545  1.2204 -1.5147
 7011TIP3   OH242523   4.426   1.569  16.654 -0.6003  0.2076  0.8741
 7011TIP3    H142524   4.344   1.615  16.635  0.0677  1.6199  1.2252
 7011TIP3    H242525   4.431   1.500  16.588 -0.8684  1.6854 -0.7805
 7012TIP3   OH242526   6.307   6.241   2.768  0.4061 -0.2782 -0.2207
 7012TIP3    H142527   6.327   6.308   2.833 -0.3315 -1.0919  0.8713
 7012TIP3    H242528   6.332   6.158   2.810  0.1092 -0.8038 -1.0493
 7013TIP3   OH242529   2.850   0.886   0.055  0.2094 -0.1368  0.5828
 7013TIP3    H142530   2.859   0.960  -0.005 -0.9062 -1.6410 -1.5453
 7013TIP3    H242531   2.756   0.871   0.062  0.3841 -0.9450  1.5380
 7014TIP3   OH242532   3.828   0.849   5.630 -0.1223 -0.2618  0.6028
 7014TIP3    H142533   3.841   0.924   5.688  1.5539 -1.2326  1.5676
 7014TIP3    H242534   3.754   0.874   5.575 -1.1207  1.1399  2.4489
 7015TIP3   OH242535   4.713   6.460  11.230 -0.6263  0.2036 -0.5343
 7015TIP3    H142536   4.728   6.366  11.241  0.7984  0.4985  0.4291
 7015TIP3    H242537   4.733   6.477  11.138  0.7723 -0.2011 -0.3381
 7016TIP3   OH242538   6.242   5.837  16.318 -0.1841 -0.5615 -0.7185
 7016TIP3    H142539   6.204   5.904  16.262 -0.4354  1.1909  1.4237
 7016TIP3    H242540   6.333   5.829  16.289  0.1916  1.6076 -0.2687
 7017TIP3   OH242541   5.775   2.597  11.928 -0.3261 -0.0859  0.1093
 7017TIP3    H142542   5.731   2.517  11.958  0.2708  0.5703  3.0924
 7017TIP3    H242543   5.707   2.664  11.931 -0.4311 -0.1466 -0.7705
 7018TIP3   OH242544   3.498   3.903  15.794  0.4859 -0.0535 -0.1020
 7018TIP3    H142545   3.417   3.918  15.745  0.3448 -1.0428 -0.1791
 7018TIP3    H242546   3.473   3.916  15.885  0.1317 -0.7436 -0.0906
 7019TIP3   OH242547   3.739   5.298   5.385 -0.0395  0.0279  0.0448
 7019TIP3    H142548   3.830   5.284   5.411  0.5383 -0.1990 -1.9363
 7019TIP3    H242549   3.717   5.385   5.419  1.0724  0.2811  0.1543
 7020TIP3   OH242550   5.697   0.400  13.795 -0.0364 -0.1315  0.3905
 7020TIP3    H142551   5.703   0.488  13.759  1.0915 -0.6049 -0.6338
 7020TIP3    H242552   5.677   0.344  13.721 -1.1597 -0.7165  1.1000
 7021TIP3   OH242553   2.266   5.586   4.755 -0.0140 -0.1375  0.0445
 7021TIP3    H142554   2.307   5.633   4.682 -0.1665  0.6346  0.4369
 7021TIP3    H242555   2.203   5.649   4.791  1.0847  0.0701  1.7493
 7022TIP3   OH242556   2.622   1.772  13.140 -0.2113 -0.5840 -0.6567
 7022TIP3    H142557   2.608   1.835  13.211  0.4091 -2.1446  0.9390
 7022TIP3    H242558   2.547   1.783  13.082 -1.0024  0.4164  0.5205
 7023TIP3   OH242559   4.985   3.069   0.384  0.0100  0.1528 -0.2639
 7023TIP3    H142560   4.986   3.142   0.322 -1.4669  0.0751 -0.4207
 7023TIP3    H242561   4.912   3.014   0.355  0.7116 -1.0744  0.2221
 7024TIP3   OH242562   3.406   1.803   5.240 -0.0235 -0.1063  0.1843
 7024TIP3    H142563   3.499   1.823   5.251  1.2788 -1.9450 -4.7775
 7024TIP3    H242564   3.400   1.709   5.256 -1.2019  0.0711  0.9083
 7025TIP3   OH242565   4.906   4.330   3.379  0.4495 -0.1403 -0.2753
 7025TIP3    H142566   4.853   4.400   3.340  1.8747  0.3491 -1.3948
 7025TIP3    H242567   4.964   4.376   3.440  0.5457 -0.5143 -0.0819
 7026TIP3   OH242568   6.109   5.609  15.740  0.2816 -0.4821 -0.1513
 7026TIP3    H142569   6.122   5.647  15.653 -3.3865 -0.9322 -1.0735
 7026TIP3    H242570   6.110   5.685  15.799 -0.3511  0.2559 -1.0574
 7027TIP3   OH242571   4.291   5.783  17.077 -0.1020  0.2012 -0.2837
 7027TIP3    H142572   4.349   5.824  17.013 -1.9553  0.8290 -1.6645
 7027TIP3    H242573   4.222   5.847  17.092 -0.0862 -0.2194  1.8730
 7028TIP3   OH242574   0.111   5.136   1.541 -0.2287 -0.4321  0.4401
 7028TIP3    H142575   0.063   5.197   1.596  1.6275  1.9680 -0.4148
 7028TIP3    H242576   0.184   5.107   1.595  0.6235  0.5885 -0.1115
 7029TIP3   OH242577   0.447   6.401   3.597  0.3569 -0.1669  0.2225
 7029TIP3    H142578   0.409   6.459   3.663  3.9925  2.0457  0.6938
 7029TIP3    H242579   0.457   6.457   3.519 -0.1580 -1.5585 -0.8898
 7030TIP3   OH242580   4.041   1.476   4.180  0.0432  0.2657  0.1846
 7030TIP3    H142581   4.130   1.443   4.169 -0.1113  0.3828 -1.7496
 7030TIP3    H242582   3.989   1.398   4.202  0.5588  0.1507  1.0373
 7031TIP3   OH242583   1.438   2.476   3.190  0.1855  0.2909 -0.0726
 7031TIP3    H142584   1.362   2.531   3.209  0.9830  1.7952 -1.1213
 7031TIP3    H242585   1.400   2.390   3.171 -1.0911  0.4396  1.4853
 7032TIP3   OH242586   1.194   0.718   0.614  0.3730  0.7457 -0.1545
 7032TIP3    H142587   1.132   0.774   0.568 -2.3228  0.1114  2.4253
 7032TIP3    H242588   1.220   0.769   0.691  1.5616  0.1997 -0.1686
 7033TIP3   OH242589   3.678   3.527  11.767  0.2795 -0.3230 -0.1947
 7033TIP3    H142590   3.718   3.612  11.784 -2.1611  1.4120 -2.3611
 7033TIP3    H242591   3.693   3.511  11.674  0.9684 -2.4660  0.2382
 7034TIP3   OH242592   3.659   0.667  10.971  0.0473  0.3968 -0.4703
 7034TIP3    H142593   3.606   0.691  10.895 -0.9005  1.2213  0.4273
 7034TIP3    H242594   3.732   0.729  10.969  0.0502  0.3859 -0.7420
 7035TIP3   OH242595   6.815   1.014  13.721  0.2120  0.1273 -0.4266
 7035TIP3    H142596   6.773   0.993  13.804  0.2705 -0.6477 -0.5840
 7035TIP3    H242597   6.828   0.930  13.678  0.7221  0.4639 -0.9640
 7036TIP3   OH242598   0.717   3.970   1.876  0.0943  0.4988  0.3471
 7036TIP3    H142599   0.713   4.020   1.794  2.4813 -0.9775 -0.7779
 7036TIP3    H242600   0.656   3.897   1.862  3.4833 -2.2064 -2.1008
 7037TIP3   OH242601   5.906   0.588   5.565 -0.1034 -0.0193  0.0350
 7037TIP3    H142602   5.926   0.664   5.511  2.0429 -0.4587  0.1251
 7037TIP3    H242603   5.815   0.602   5.594 -0.3984  1.5169 -1.5005
 7038TIP3   OH242604   2.008   5.302   0.202 -0.1974 -0.2270 -0.2278
 7038TIP3    H142605   2.057   5.382   0.184 -3.3443  1.9196 -0.1814
 7038TIP3    H242606   1.994   5.304   0.297  0.1139 -1.1316 -0.1556
 7039TIP3   OH242607   2.766   0.433   2.328 -0.3737 -0.2915 -0.2682
 7039TIP3    H142608   2.821   0.409   2.253  0.5829 -1.5016  0.7759
 7039TIP3    H242609   2.820   0.414   2.404 -2.2890 -1.6180  0.8282
 7040TIP3   OH242610   4.972   0.796   2.435 -0.2495  0.1265 -0.1007
 7040TIP3    H142611   4.955   0.812   2.342  0.8838  0.8074 -0.2130
 7040TIP3    H242612   5.052   0.845   2.454 -1.1802  1.1214  1.5721
 7041TIP3   OH242613   4.795   4.321   2.142  0.3790  0.1862 -0.0979
 7041TIP3    H142614   4.744   4.353   2.067 -0.1531 -0.3134  0.0404
 7041TIP3    H242615   4.798   4.395   2.202  0.9032  0.6244 -0.6551
 7042TIP3   OH242616   2.217   5.604   2.784 -0.5434  0.0692  0.3721
 7042TIP3    H142617   2.186   5.546   2.853 -1.6343  2.0229  1.6118
 7042TIP3    H242618   2.283   5.552   2.737 -1.3852 -2.1005  1.4365
 7043TIP3   OH242619   3.219   2.530  13.001 -0.2417  0.7886 -0.4658
 7043TIP3    H142620   3.145   2.509  12.944 -0.5275 -1.9697  0.7201
 7043TIP3    H242621   3.263   2.603  12.958 -1.5469  0.1301 -3.1533
 7044TIP3   OH242622   1.399   3.308  15.750 -0.0310 -0.5210 -0.2265
 7044TIP3    H142623   1.427   3.362  15.676  0.9088 -0.2172  0.3280
 7044TIP3    H242624   1.322   3.262  15.718 -0.1542  0.2555 -1.1087
 7045TIP3   OH242625   1.924   5.259  17.154 -0.2693 -0.5676 -0.1263
 7045TIP3    H142626   1.933   5.164  17.142 -0.5080 -0.6703  0.4402
 7045TIP3    H242627   1.935   5.272  17.249  0.1289  0.0149 -0.2453
 7046TIP3   OH242628   6.660   1.973  10.804 -0.0702  0.1581 -0.4525
 7046TIP3    H142629   6.644   2.067  10.817  2.5643  0.6634 -0.3586
 7046TIP3    H242630   6.597   1.947  10.736 -2.1470  1.4961  0.8401
 7047TIP3   OH242631   6.367   6.106  11.532  0.0264 -0.1024 -0.1505
 7047TIP3    H142632   6.383   6.141  11.619  1.3546  0.0379 -0.4219
 7047TIP3    H242633   6.419   6.026  11.529 -0.7569 -0.6014 -0.4942
 7048TIP3   OH242634   3.900   0.450  17.078 -0.0295  0.3456 -0.2142
 7048TIP3    H142635   3.895   0.445  17.174  0.6685  0.0670 -0.1885
 7048TIP3    H242636   3.809   0.451  17.050 -0.2451  0.5930  0.4616
 7049TIP3   OH242637   0.822   2.010  15.795  0.4070 -0.2144  0.1640
 7049TIP3    H142638   0.765   1.946  15.751 -1.8174  1.5061  0.3340
 7049TIP3    H242639   0.899   2.017  15.738  0.2741 -2.3078 -0.3429
 7050TIP3   OH242640   4.141   3.256   1.900 -0.2003 -0.2990 -0.2926
 7050TIP3    H142641   4.181   3.344   1.901  0.2169 -0.4613  1.6243
 7050TIP3    H242642   4.157   3.224   1.812  1.0324  0.9503 -0.5754
 7051TIP3   OH242643   5.330   4.363   2.856  0.8504 -0.1822 -0.2558
 7051TIP3    H142644   5.354   4.286   2.803 -2.7722 -1.1068 -0.7933
 7051TIP3    H242645   5.235   4.361   2.859  0.5418  4.4104 -0.3847
 7052TIP3   OH242646   1.129   2.215  16.979  0.2952 -0.5359 -0.2930
 7052TIP3    H142647   1.139   2.137  17.035  2.0032 -0.3668 -0.2817
 7052TIP3    H242648   1.035   2.229  16.973 -0.0982 -2.9275 -0.7323
 7053TIP3   OH242649   1.865   1.078   2.615 -0.0634 -0.4882  0.2250
 7053TIP3    H142650   1.772   1.089   2.592  0.2129  0.6628 -0.3665
 7053TIP3    H242651   1.870   1.106   2.706 -0.3582 -0.9034  0.3731
 7054TIP3   OH242652   2.727   2.855   4.928 -0.2982  0.2528 -0.7256
 7054TIP3    H142653   2.704   2.843   5.020  2.2935 -1.1301 -0.1616
 7054TIP3    H242654   2.650   2.895   4.889 -0.6377  3.2433  2.5306
 7055TIP3   OH242655   2.142   4.378   1.532  0.5368 -0.6984 -0.2239
 7055TIP3    H142656   2.067   4.385   1.472  0.8852 -0.8655 -0.6803
 7055TIP3    H242657   2.206   4.326   1.484  1.6394  0.8820 -0.5259
 7056TIP3   OH242658   3.615   1.753  10.136 -0.0052 -0.1665  0.5207
 7056TIP3    H142659   3.582   1.666  10.160  0.4534 -1.2192 -2.3101
 7056TIP3    H242660   3.674   1.776  10.208 -0.8483 -1.7552  1.8056
 7057TIP3   OH242661   3.647   1.073  15.871 -0.4005 -0.0099  0.2824
 7057TIP3    H142662   3.573   1.113  15.827 -1.1876 -1.6636  0.0057
 7057TIP3    H242663   3.719   1.080  15.809 -0.1732  2.0065  0.7297
 7058TIP3   OH242664   3.037   2.683   5.386  1.0380 -0.1487  0.4506
 7058TIP3    H142665   3.028   2.723   5.472  1.5300 -0.6716  0.7460
 7058TIP3    H242666   3.130   2.689   5.365  0.9442 -0.1415  0.0077
 7059TIP3   OH242667   2.191   4.933   2.242  0.3506  0.1720 -0.1388
 7059TIP3    H142668   2.184   4.931   2.337  0.7764  1.8082 -0.0557
 7059TIP3    H242669   2.108   4.971   2.212  0.6658  0.6865 -0.3593
 7060TIP3   OH242670   1.382   5.224  13.089  0.3311  0.0363 -0.0512
 7060TIP3    H142671   1.317   5.294  13.082 -0.9835 -1.0075  1.2529
 7060TIP3    H242672   1.386   5.187  13.001 -0.8980  0.0803 -0.1416
 7061TIP3   OH242673   3.304   6.568   2.297 -0.1038  0.0689  0.1337
 7061TIP3    H142674   3.338   6.517   2.224  0.9886  1.5627 -0.4614
 7061TIP3    H242675   3.250   6.507   2.347 -3.0561 -0.4151 -3.3126
 7062TIP3   OH242676   4.472   0.289   0.456 -0.4498 -0.0630  0.4460
 7062TIP3    H142677   4.454   0.297   0.363 -2.5610  0.5065  0.8532
 7062TIP3    H242678   4.564   0.315   0.465  0.3037 -1.7390 -1.6521
 7063TIP3   OH242679   2.002   1.067  14.172  0.1552  0.3755 -0.5723
 7063TIP3    H142680   1.949   1.134  14.216  1.7068  0.4544  1.3252
 7063TIP3    H242681   2.049   1.114  14.104  0.0874  0.9226 -0.2477
 7064TIP3   OH242682   4.061   2.829  16.252 -1.3190  0.6845 -0.0396
 7064TIP3    H142683   4.146   2.792  16.274 -2.0202  0.5563  2.8664
 7064TIP3    H242684   4.033   2.781  16.175 -0.2280 -1.6781  0.9509
 7065TIP3   OH242685   2.261   5.868  13.747 -0.0921  0.2325 -0.2548
 7065TIP3    H142686   2.296   5.949  13.784 -0.0797  0.5371 -0.9181
 7065TIP3    H242687   2.324   5.843  13.679  0.2720 -0.7181  0.4176
 7066TIP3   OH242688   1.048   2.011  13.443  0.0039  0.1188 -0.0171
 7066TIP3    H142689   1.018   2.050  13.525 -0.1515 -2.2915  1.1744
 7066TIP3    H242690   1.142   2.003  13.453  0.1367  0.8953 -0.5937
 7067TIP3   OH242691   0.949   2.484  15.319 -0.4717 -0.0605 -0.5730
 7067TIP3    H142692   0.924   2.407  15.269 -0.8684 -0.1754 -0.2055
 7067TIP3    H242693   0.891   2.554  15.287 -0.6505 -0.1075 -0.3550
 7068TIP3   OH242694   5.348   5.878   2.930 -0.5128 -0.0548 -0.2640
 7068TIP3    H142695   5.372   5.811   2.865 -0.7095 -1.1689  0.7718
 7068TIP3    H242696   5.431   5.915   2.958 -0.2599 -1.0275  0.3315
 7069TIP3   OH242697   1.718   6.038   2.055 -0.4620 -0.4028  0.0919
 7069TIP3    H142698   1.759   6.124   2.041 -0.0594 -0.4634  0.8740
 7069TIP3    H242699   1.753   6.008   2.139  0.8062 -2.1466 -0.9910
 7070TIP3   OH242700   1.101   3.748  17.202  0.2553 -0.2294 -0.4846
 7070TIP3    H142701   1.019   3.738  17.152 -0.5829  1.4019  0.5046
 7070TIP3    H242702   1.092   3.686  17.274 -0.1022 -0.0678 -0.3893
 7071TIP3   OH242703   4.932   4.530   3.071  0.0175  0.2806  0.3383
 7071TIP3    H142704   5.001   4.580   3.027 -1.1911  0.0385 -1.9843
 7071TIP3    H242705   4.922   4.451   3.018 -2.1786  0.4324  0.4048
 7072TIP3   OH242706   6.137   0.865   1.147 -0.2725  0.0136  0.3620
 7072TIP3    H142707   6.169   0.813   1.221 -0.2738  0.0150  0.3635
 7072TIP3    H242708   6.206   0.857   1.081 -1.0364 -1.3966 -0.3132
 7073TIP3   OH242709   5.016   6.431   5.603  0.4568  0.2409  0.5205
 7073TIP3    H142710   5.088   6.474   5.651  1.1468  1.2295 -1.3203
 7073TIP3    H242711   4.952   6.500   5.588  0.7082  0.2052 -0.8211
 7074TIP3   OH242712   4.352   2.599   1.032  0.4899 -0.7076  0.1133
 7074TIP3    H142713   4.293   2.554   1.093 -0.0878  0.2310  0.2770
 7074TIP3    H242714   4.356   2.541   0.956 -0.1313 -1.0987  0.3629
 7075TIP3   OH242715   0.598   3.794   6.117  0.4791 -0.0604  0.0833
 7075TIP3    H142716   0.545   3.855   6.169 -1.3172 -1.0351 -0.5023
 7075TIP3    H242717   0.628   3.729   6.180  1.0739  0.5422  0.4371
 7076TIP3   OH242718   3.569   3.651   6.472 -0.5025  0.1693  0.3092
 7076TIP3    H142719   3.639   3.641   6.536 -1.0894 -0.4662  0.8627
 7076TIP3    H242720   3.610   3.632   6.388 -0.4415 -2.2700  0.8274
 7077TIP3   OH242721   5.121   4.580  14.382  0.4866 -0.1060 -0.5534
 7077TIP3    H142722   5.129   4.642  14.455  0.3922 -0.0991 -0.5491
 7077TIP3    H242723   5.137   4.633  14.304 -2.2217  0.5113 -0.7724
 7078TIP3   OH242724   1.142   5.370   5.888 -0.4240 -0.5148  0.2994
 7078TIP3    H142725   1.235   5.383   5.907 -0.2313  1.4725 -1.6144
 7078TIP3    H242726   1.141   5.314   5.811 -0.8083 -0.2343  0.0993
 7079TIP3   OH242727   4.060   5.631  12.055  0.3162  0.0552  0.0636
 7079TIP3    H142728   3.985   5.675  12.015  0.5770 -0.0568 -0.5546
 7079TIP3    H242729   4.129   5.637  11.989  0.1822 -1.8142 -0.2921
 7080TIP3   OH242730   3.003   0.495   0.469  0.1948  0.1349 -0.2656
 7080TIP3    H142731   2.934   0.540   0.519 -0.4734 -0.3196 -0.7570
 7080TIP3    H242732   3.033   0.560   0.406  0.8747  0.6347  0.5439
 7081TIP3   OH242733   5.954   4.540   5.824  0.4908 -0.7455 -0.1508
 7081TIP3    H142734   5.936   4.634   5.821 -0.2226 -0.8601  0.3556
 7081TIP3    H242735   5.872   4.500   5.852  1.6644 -1.2099  3.0357
 7082TIP3   OH242736   5.199   2.210   2.237 -0.5649  0.9412 -0.0677
 7082TIP3    H142737   5.110   2.225   2.270 -0.9131 -0.2021 -0.4507
 7082TIP3    H242738   5.210   2.275   2.168 -0.7341  1.7472  0.6530
 7083TIP3   OH242739   2.229   2.286   3.213  0.2534 -0.3283 -0.6061
 7083TIP3    H142740   2.273   2.371   3.212  0.1731 -0.2894 -1.0037
 7083TIP3    H242741   2.277   2.234   3.149  1.0537 -0.9704  0.4983
 7084TIP3   OH242742   1.346   6.289  16.702 -0.2826  0.5840  0.0277
 7084TIP3    H142743   1.355   6.382  16.683 -2.3053  0.9554  0.5959
 7084TIP3    H242744   1.258   6.267  16.672 -1.2725 -0.2317  3.1131
 7085TIP3   OH242745   3.257   0.972  11.682  0.4840  0.2159 -0.3973
 7085TIP3    H142746   3.273   1.035  11.752  1.3527 -1.5420  1.0801
 7085TIP3    H242747   3.260   0.887  11.725 -0.7348 -0.8636 -2.2933
 7086TIP3   OH242748   6.614   5.749  16.321  0.0061 -0.5525 -0.1850
 7086TIP3    H142749   6.606   5.758  16.416 -0.7756 -0.8814 -0.2129
 7086TIP3    H242750   6.699   5.789  16.301  1.0010 -2.0478  0.8552
 7087TIP3   OH242751   4.443   0.852  12.527 -0.1272 -0.7814 -0.5095
 7087TIP3    H142752   4.481   0.845  12.615  1.3178  0.9781 -0.9356
 7087TIP3    H242753   4.377   0.920  12.535  1.0854  0.4986 -1.0910
 7088TIP3   OH242754   6.316   4.039   0.276  0.0951 -0.0123 -0.3933
 7088TIP3    H142755   6.312   3.990   0.193 -1.4632 -0.3071 -0.1778
 7088TIP3    H242756   6.278   4.124   0.255 -2.3848 -0.8159  0.4469
 7089TIP3   OH242757   2.453   0.247   4.776  0.2672  0.0129 -0.3049
 7089TIP3    H142758   2.395   0.311   4.736 -0.9488 -1.5684 -1.1694
 7089TIP3    H242759   2.534   0.253   4.727 -0.1338  0.2930 -0.9381
 7090TIP3   OH242760   6.762   1.488   3.345  0.7436 -0.7332 -0.3424
 7090TIP3    H142761   6.789   1.452   3.430 -0.2574 -0.2694  0.1889
 7090TIP3    H242762   6.778   1.582   3.353 -1.3849 -0.3649  0.1700
 7091TIP3   OH242763   6.080   6.651  12.577 -0.6695  0.5192  0.4546
 7091TIP3    H142764   6.052   6.736  12.613  2.2036  1.6493  0.3126
 7091TIP3    H242765   6.161   6.671  12.530  0.2233 -2.3598  0.5988
 7092TIP3   OH242766   5.575   0.462  14.591 -0.8879 -0.5661  0.2002
 7092TIP3    H142767   5.643   0.404  14.623 -1.1529  0.2610  2.4299
 7092TIP3    H242768   5.611   0.550  14.600 -2.1364 -0.1261  1.2037
 7093TIP3   OH242769   1.433   4.798  16.922  0.0872 -0.1837  0.3439
 7093TIP3    H142770   1.378   4.863  16.966  0.7175 -0.6275  1.8638
 7093TIP3    H242771   1.371   4.735  16.885 -0.5358  1.2717 -1.2195
 7094TIP3   OH242772   4.334   2.545   0.512  0.2702 -0.2140  0.0605
 7094TIP3    H142773   4.399   2.490   0.470 -0.0526 -0.4074 -0.1936
 7094TIP3    H242774   4.291   2.592   0.440  1.0276  0.9278  0.3212
 7095TIP3   OH242775   1.634   0.359  16.305  0.0911 -0.2993 -0.6364
 7095TIP3    H142776   1.613   0.391  16.392 -0.7330  1.5142 -1.4433
 7095TIP3    H242777   1.715   0.405  16.281  1.5742 -2.4395 -0.0300
 7096TIP3   OH242778   0.332   5.231   1.837 -0.4470 -0.4797  0.7206
 7096TIP3    H142779   0.356   5.282   1.759  0.4824  1.1198  1.9978
 7096TIP3    H242780   0.319   5.142   1.804 -0.3577  0.1998 -1.3009
 7097TIP3   OH242781   0.347   6.129  10.858 -0.7362  0.4096  0.4997
 7097TIP3    H142782   0.340   6.038  10.829  0.1758  0.4350  0.1339
 7097TIP3    H242783   0.359   6.178  10.776 -0.4275  0.7585  0.7529
 7098TIP3   OH242784   6.806   3.620   5.203 -0.5105 -0.3810 -0.1017
 7098TIP3    H142785   6.846   3.579   5.126  2.1388  2.4650 -0.4507
 7098TIP3    H242786   6.718   3.644   5.174  1.0206  2.3101 -3.0916
 7099TIP3   OH242787   6.157   6.644  16.960 -0.1071 -0.1279 -0.5742
 7099TIP3    H142788   6.203   6.605  17.035  1.5372  2.6683  0.0541
 7099TIP3    H242789   6.192   6.599  16.884 -1.6736 -2.9173  0.2243
 7100TIP3   OH242790   5.954   3.320   5.767  0.3710  0.3377 -0.2214
 7100TIP3    H142791   6.008   3.246   5.737  0.5779  0.2993  0.2363
 7100TIP3    H242792   6.015   3.374   5.818 -0.0132  0.3133  0.2664
 7101TIP3   OH242793   3.840   6.592  14.976 -0.1528  0.1907  0.2685
 7101TIP3    H142794   3.889   6.660  15.023  1.2235 -1.2251  0.9663
 7101TIP3    H242795   3.811   6.635  14.896  1.7397  1.2933  0.1041
 7102TIP3   OH242796   1.334   4.290  11.165 -0.2679  0.1290  0.0897
 7102TIP3    H142797   1.356   4.344  11.090 -2.4096 -1.3443 -1.7168
 7102TIP3    H242798   1.415   4.285  11.216  1.0497  1.7365 -1.7317
 7103TIP3   OH242799   1.595   2.194  14.550  0.0212 -0.2845  0.1899
 7103TIP3    H142800   1.569   2.138  14.477  0.8244  0.2235 -0.5028
 7103TIP3    H242801   1.627   2.274  14.509  0.5028  0.0060  1.1032
 7104TIP3   OH242802   0.661   1.191   3.432 -0.0413 -0.7066  0.8957
 7104TIP3    H142803   0.632   1.142   3.355 -2.2442  2.2531 -0.3384
 7104TIP3    H242804   0.645   1.132   3.505 -1.0842 -2.3786 -0.6011
 7105TIP3   OH242805   0.389   3.323  16.899  0.4419 -0.4023 -0.0736
 7105TIP3    H142806   0.418   3.327  16.990 -0.3084 -1.3473  0.2153
 7105TIP3    H242807   0.298   3.294  16.903  0.1121  0.4415 -1.0830
 7106TIP3   OH242808   3.552   6.310  15.988 -0.6675  0.3299 -0.2932
 7106TIP3    H142809   3.463   6.293  16.019 -1.0540  1.0698 -0.9335
 7106TIP3    H242810   3.606   6.310  16.067 -1.0687 -1.0781  0.0031
 7107TIP3   OH242811   6.208   0.978  16.023 -0.3962  0.2716 -0.2748
 7107TIP3    H142812   6.243   0.929  15.950 -0.5717  1.3236 -1.0884
 7107TIP3    H242813   6.275   1.043  16.043 -0.9134  0.8470 -0.3807
 7108TIP3   OH242814   1.225   3.729  15.034 -0.1268  0.3734 -0.2870
 7108TIP3    H142815   1.235   3.675  14.955 -0.3241 -0.3151  0.1447
 7108TIP3    H242816   1.282   3.804  15.019  0.3202 -0.0582 -0.8231
 7109TIP3   OH242817   1.842   1.213   3.629  0.0899  0.0606 -0.0368
 7109TIP3    H142818   1.850   1.118   3.615 -0.7942  0.1404 -1.3076
 7109TIP3    H242819   1.750   1.226   3.651 -0.0220  0.7053 -0.8278
 7110TIP3   OH242820   0.867   6.476  15.764 -0.4300  0.4520 -0.3358
 7110TIP3    H142821   0.905   6.562  15.784 -0.9190  0.8721 -1.1811
 7110TIP3    H242822   0.862   6.473  15.669  2.1899 -1.6718 -0.5262
 7111TIP3   OH242823   4.532   0.733   2.136  0.0755 -0.4807 -0.2185
 7111TIP3    H142824   4.439   0.710   2.142  0.0227 -1.5474 -3.3089
 7111TIP3    H242825   4.578   0.650   2.144  0.8676  0.0893  1.7041
 7112TIP3   OH242826   2.574   2.832   0.947 -0.3478 -0.3495 -0.1512
 7112TIP3    H142827   2.490   2.849   0.905 -0.0735 -0.6288 -0.8490
 7112TIP3    H242828   2.552   2.805   1.036 -1.0011 -0.5378 -0.3619
 7113TIP3   OH242829   2.880   2.386   1.845 -0.2371  0.1102 -0.0086
 7113TIP3    H142830   2.933   2.366   1.768 -0.2585 -0.3532  0.0944
 7113TIP3    H242831   2.790   2.393   1.811 -0.4548 -1.4408  0.1624
 7114TIP3   OH242832   4.909   1.503   3.071 -0.6221 -0.1699 -0.1407
 7114TIP3    H142833   4.858   1.436   3.116  0.2137 -1.4378 -1.0222
 7114TIP3    H242834   4.905   1.579   3.129 -1.3706 -1.0543  1.0122
 7115TIP3   OH242835   4.647   6.343   5.305 -0.3318  0.3223 -0.4041
 7115TIP3    H142836   4.699   6.269   5.337 -0.5648 -0.9772 -2.7740
 7115TIP3    H242837   4.592   6.305   5.237 -3.0357  2.0301  0.6777
 7116TIP3   OH242838   2.739   3.029   2.155  0.2497 -0.1711 -0.2462
 7116TIP3    H142839   2.813   2.970   2.170  0.4984  0.1472 -0.2271
 7116TIP3    H242840   2.728   3.030   2.060  1.0911  0.7859 -0.3469
 7117TIP3   OH242841   5.263   4.282  13.910  0.1415  0.1658  0.4511
 7117TIP3    H142842   5.184   4.264  13.858  1.1238 -1.6109 -0.5083
 7117TIP3    H242843   5.311   4.347  13.860 -0.4599  0.9120  0.8124
 7118TIP3   OH242844   2.303   0.603   3.975 -0.1244 -0.0711  0.1496
 7118TIP3    H142845   2.318   0.621   3.882  1.2807 -0.3693  0.2851
 7118TIP3    H242846   2.349   0.520   3.991 -0.1249  0.1038  1.1579
 7119TIP3   OH242847   5.456   0.260  14.423  0.0049 -0.4176 -0.2424
 7119TIP3    H142848   5.506   0.188  14.460  1.9384 -0.4981 -2.7307
 7119TIP3    H242849   5.496   0.339  14.460 -1.2730 -0.5488  1.4923
 7120TIP3   OH242850   3.305   2.905   4.207  0.2587 -0.1095  0.1932
 7120TIP3    H142851   3.284   2.973   4.144  1.7346  0.0268 -0.1928
 7120TIP3    H242852   3.220   2.873   4.238 -0.5198 -0.4404 -2.1118
 7121TIP3   OH242853   1.169   0.357   3.234 -1.0481  0.2430  0.0568
 7121TIP3    H142854   1.235   0.346   3.165 -1.5644  1.9809 -0.7708
 7121TIP3    H242855   1.161   0.270   3.274 -0.2914 -0.6691 -1.6721
 7122TIP3   OH242856   6.484   5.321   1.852  0.2765 -0.5499 -0.4770
 7122TIP3    H142857   6.405   5.283   1.891 -0.2208  0.7783 -0.1515
 7122TIP3    H242858   6.480   5.414   1.873  1.9213 -0.4330 -0.4826
 7123TIP3   OH242859   3.303   1.172  16.095 -0.4212  0.1595 -0.1236
 7123TIP3    H142860   3.318   1.097  16.038 -1.1702 -1.3000  1.5050
 7123TIP3    H242861   3.219   1.208  16.067 -1.3133 -1.2140  0.7130
 7124TIP3   OH242862   5.327   1.820   3.878  0.4445  0.0713 -0.2132
 7124TIP3    H142863   5.318   1.775   3.794  1.6767  0.6569 -0.6856
 7124TIP3    H242864   5.238   1.823   3.913  0.2068 -2.0879 -0.4729
 7125TIP3   OH242865   4.930   3.921   3.275  0.5667  0.1812 -0.2840
 7125TIP3    H142866   4.993   3.949   3.341 -0.0113  0.7429  0.0361
 7125TIP3    H242867   4.863   3.989   3.275  0.4177  0.0523 -1.2549
 7126TIP3   OH242868   0.080   0.170   6.242  0.3956 -0.3925  0.2231
 7126TIP3    H142869   0.135   0.190   6.317 -0.9382 -0.7380  1.3340
 7126TIP3    H242870  -0.007   0.201   6.267 -0.1849 -1.0187 -0.9519
 7127TIP3   OH242871   3.084   2.182   3.978 -0.3214 -0.0245  0.1393
 7127TIP3    H142872   3.159   2.163   4.034  0.4563 -0.6343 -1.0732
 7127TIP3    H242873   3.055   2.269   4.006  1.0529  0.3804  0.3988
 7128TIP3   OH242874   5.346   1.411   4.988 -0.4185 -0.3138 -0.1452
 7128TIP3    H142875   5.378   1.456   5.067 -0.9445 -0.6113  0.2442
 7128TIP3    H242876   5.257   1.384   5.011 -0.8191  0.1666 -1.0712
 7129TIP3   OH242877   4.889   4.678   6.629  0.3086 -0.1369 -0.1279
 7129TIP3    H142878   4.851   4.766   6.633  0.8356  0.1022 -0.3478
 7129TIP3    H242879   4.842   4.635   6.557  0.9833  0.4128 -0.9024
 7130TIP3   OH242880   2.137   4.847  16.102  0.0338  0.2846 -0.3267
 7130TIP3    H142881   2.217   4.874  16.056 -0.0301 -0.5848 -0.9741
 7130TIP3    H242882   2.160   4.764  16.143 -0.1805  0.6226  0.4910
 7131TIP3   OH242883   3.388   1.882   3.123 -0.3604  0.3514  0.6223
 7131TIP3    H142884   3.320   1.859   3.061 -0.7539  1.9001  0.4347
 7131TIP3    H242885   3.400   1.803   3.176  0.2303 -1.1325 -1.5888
 7132TIP3   OH242886   3.278   2.138   0.948 -0.0299  0.4840 -0.5083
 7132TIP3    H142887   3.364   2.103   0.924  0.2523  1.4253 -0.9094
 7132TIP3    H242888   3.223   2.060   0.958  0.8577 -0.1297 -0.2656
 7133TIP3   OH242889   6.495   0.316  13.123  0.4994  0.1748 -0.1738
 7133TIP3    H142890   6.490   0.225  13.152 -0.1137  0.6797  1.4179
 7133TIP3    H242891   6.436   0.321  13.048  1.4962 -0.9933 -1.0868
 7134TIP3   OH242892   2.047   4.085   1.062 -0.0916  0.0377  0.1966
 7134TIP3    H142893   2.065   4.054   1.151  2.5512  0.7861 -0.0005
 7134TIP3    H242894   2.102   4.030   1.006  0.6435  1.5760 -0.6415
 7135TIP3   OH242895   3.405   1.318  15.516 -0.1350 -0.3730 -0.3295
 7135TIP3    H142896   3.499   1.299  15.516 -0.4895 -2.3593 -0.4560
 7135TIP3    H242897   3.390   1.365  15.434  0.5904 -0.9934 -0.8382
 7136TIP3   OH242898   2.230   2.876   4.464  0.3869 -0.5637  0.1940
 7136TIP3    H142899   2.301   2.935   4.438  1.1794 -1.3566  0.4791
 7136TIP3    H242900   2.159   2.934   4.489  0.9056  0.2594 -0.1750
 7137TIP3   OH242901   4.754   4.788   5.958 -0.3693 -0.0347 -0.4620
 7137TIP3    H142902   4.791   4.700   5.959  0.2395  0.2077  0.7275
 7137TIP3    H242903   4.678   4.782   5.900 -0.2565 -1.3022 -0.5033
 7138TIP3   OH242904   2.780   2.381  16.196  0.1265 -0.3030  0.6038
 7138TIP3    H142905   2.726   2.302  16.192  2.3467 -1.8392 -1.4898
 7138TIP3    H242906   2.737   2.443  16.137 -0.0884 -1.0074  0.0093
 7139TIP3   OH242907   5.757   1.932  11.178 -0.7629 -0.2643 -0.6979
 7139TIP3    H142908   5.705   1.976  11.245 -1.3632 -0.8332 -0.7794
 7139TIP3    H242909   5.833   1.989  11.165  0.0529 -0.7990  1.4284
 7140TIP3   OH242910   0.007   1.730  13.348 -0.2972  0.0935 -0.0908
 7140TIP3    H142911  -0.055   1.688  13.288 -2.8098  1.3963  1.4282
 7140TIP3    H242912   0.016   1.818  13.314  0.1898  0.1083  0.0803
 7141TIP3   OH242913   6.577   2.025   4.990 -0.2778  0.4378  0.4293
 7141TIP3    H142914   6.571   2.105   4.938 -1.5595  0.2845  0.3136
 7141TIP3    H242915   6.569   1.955   4.926  0.2051  0.2133  0.6077
 7142TIP3   OH242916   3.314   1.109  13.668  0.0542  0.1368 -0.6376
 7142TIP3    H142917   3.284   1.029  13.626  0.6542  0.8770 -2.5575
 7142TIP3    H242918   3.239   1.137  13.721 -0.4538 -1.2378 -0.5880
 7143TIP3   OH242919   3.475   1.560  11.896 -0.5290  0.1466 -0.3837
 7143TIP3    H142920   3.493   1.484  11.952 -0.0969  1.1392  0.8739
 7143TIP3    H242921   3.553   1.569  11.842 -0.5766 -0.2850 -0.5312
 7144TIP3   OH242922   6.229   1.463  16.922 -0.1335  0.0239 -0.4046
 7144TIP3    H142923   6.294   1.393  16.921  1.2102  1.1322  1.7627
 7144TIP3    H242924   6.256   1.522  16.851  1.3698  0.5409  0.5596
 7145TIP3   OH242925   4.614   3.008  15.785  0.4758 -0.0621  0.2950
 7145TIP3    H142926   4.626   3.074  15.853  1.6982  0.3790 -0.3025
 7145TIP3    H242927   4.615   3.058  15.703 -1.2088 -0.5539 -0.0562
 7146TIP3   OH242928   5.215   4.132   5.305  0.0099  0.4516  0.1553
 7146TIP3    H142929   5.296   4.154   5.351 -0.8073  2.9707  0.5646
 7146TIP3    H242930   5.148   4.186   5.347 -1.3405  0.5813 -2.0112
 7147TIP3   OH242931   5.111   4.910  14.790  0.0486  0.1127 -0.3073
 7147TIP3    H142932   5.155   4.900  14.874  0.8221 -0.4066 -0.7661
 7147TIP3    H242933   5.056   4.988  14.801  0.8674  0.6057  0.3661
 7148TIP3   OH242934   2.136   5.727  11.590  0.6747  0.7105  0.1697
 7148TIP3    H142935   2.221   5.694  11.619  0.6308  1.2425  0.9514
 7148TIP3    H242936   2.108   5.786  11.661 -0.9304 -0.4171  0.5198
 7149TIP3   OH242937   6.731   6.745  15.708 -0.2598  0.1182 -0.2466
 7149TIP3    H142938   6.642   6.717  15.729  0.0776 -3.3522 -2.6102
 7149TIP3    H242939   6.740   6.729  15.614  3.6987 -2.7365  0.3635
 7150TIP3   OH242940   4.986   4.392   1.220 -0.1901 -0.0977 -0.0535
 7150TIP3    H142941   5.006   4.303   1.190  1.1951  0.3440 -0.5111
 7150TIP3    H242942   5.066   4.422   1.263  0.2712  1.7863 -2.0208
 7151TIP3   OH242943   0.957   0.746   3.350  0.5942 -0.0725  0.1535
 7151TIP3    H142944   0.977   0.670   3.295  0.5092  0.1140 -0.1390
 7151TIP3    H242945   0.862   0.757   3.340  0.6542  0.2578 -0.0461
 7152TIP3   OH242946   3.618   6.105  13.262  0.2424 -0.0563 -0.0124
 7152TIP3    H142947   3.553   6.034  13.257 -0.3802  0.4652  0.4740
 7152TIP3    H242948   3.576   6.171  13.317  1.3008  0.1842  0.5200
 7153TIP3   OH242949   1.394   4.970  13.793 -0.2529  0.2414 -0.1031
 7153TIP3    H142950   1.413   5.056  13.831 -0.1928 -0.6909  2.1316
 7153TIP3    H242951   1.479   4.937  13.764 -0.2672  0.8801 -0.9208
 7154TIP3   OH242952   1.666   6.370   3.277 -0.0468  0.3534 -0.0770
 7154TIP3    H142953   1.695   6.397   3.364  2.8727  0.3690 -0.9548
 7154TIP3    H242954   1.670   6.450   3.224  0.7023 -0.1341 -0.7905
 7155TIP3   OH242955   1.871   6.284  11.929  0.1871 -0.2777  0.6835
 7155TIP3    H142956   1.873   6.242  11.843  1.4299  0.1359  0.4929
 7155TIP3    H242957   1.787   6.330  11.931  0.6928  0.7686 -0.8362
 7156TIP3   OH242958   4.830   5.905  16.417 -0.4455  0.6653 -0.5666
 7156TIP3    H142959   4.766   5.860  16.361 -0.6022 -1.0828  0.9254
 7156TIP3    H242960   4.914   5.867  16.392 -0.5442 -0.3034  0.5091
 7157TIP3   OH242961   4.869   2.546   0.480  0.1834 -0.2101  0.3071
 7157TIP3    H142962   4.906   2.633   0.495 -0.9365  0.2995  0.2132
 7157TIP3    H242963   4.883   2.500   0.563  0.4260  0.1855  0.4916
 7158TIP3   OH242964   1.806   5.470  11.295 -0.2263 -0.2914 -0.2658
 7158TIP3    H142965   1.879   5.486  11.355  0.1124 -1.3210 -0.3874
 7158TIP3    H242966   1.728   5.489  11.347  0.0648 -1.0403  0.4743
 7159TIP3   OH242967   1.340   5.765   3.366 -0.1393  0.0694  0.0764
 7159TIP3    H142968   1.343   5.688   3.310 -1.0124 -0.9661  1.3847
 7159TIP3    H242969   1.265   5.816   3.334 -1.5219 -1.2124  1.0796
 7160TIP3   OH242970   4.089   0.936  12.630  0.5620  0.4830  0.5757
 7160TIP3    H142971   4.098   0.930  12.725 -0.8761  0.9076  0.7627
 7160TIP3    H242972   4.152   1.004  12.605  0.8247  0.4970  1.2408
 7161TIP3   OH242973   5.070   3.849   6.032  0.3658 -0.9576  0.8757
 7161TIP3    H142974   5.145   3.826   6.088  2.2303  1.3706 -0.5063
 7161TIP3    H242975   4.998   3.799   6.069  1.9239 -1.1066  4.1255
 7162TIP3   OH242976   2.843   4.021   0.648 -0.4114  0.0530 -0.1302
 7162TIP3    H142977   2.828   3.987   0.736  0.9161 -2.9693 -0.9571
 7162TIP3    H242978   2.756   4.035   0.613 -0.9759  1.6450  1.6926
 7163TIP3   OH242979   4.719   3.495  12.917  0.4400  0.3611  0.2289
 7163TIP3    H142980   4.662   3.542  12.856  0.2657 -0.6324 -0.4066
 7163TIP3    H242981   4.669   3.491  12.998 -0.8650 -1.3051 -0.5840
 7164TIP3   OH242982   3.753   0.283   4.712 -0.0049  0.0908 -0.4101
 7164TIP3    H142983   3.821   0.230   4.669  0.0932 -0.0763 -0.0582
 7164TIP3    H242984   3.680   0.282   4.651 -0.4873 -1.5598  0.1462
 7165TIP3   OH242985   2.461   3.574   2.377 -0.2971  0.4906  0.8155
 7165TIP3    H142986   2.542   3.567   2.429 -0.2150  0.2626  0.6586
 7165TIP3    H242987   2.464   3.498   2.319  0.4272  1.6365 -0.6962
 7166TIP3   OH242988   3.257   3.546  13.669  0.4889  0.0942  0.4885
 7166TIP3    H142989   3.212   3.537  13.585  2.0156  0.9437 -0.4766
 7166TIP3    H242990   3.311   3.625  13.660  0.7218  0.1929  2.2654
 7167TIP3   OH242991   3.504   0.209  17.083  0.1452  0.2940 -0.3949
 7167TIP3    H142992   3.530   0.246  16.998 -1.3208  2.5994  0.0418
 7167TIP3    H242993   3.511   0.115  17.072 -2.2508  0.3181 -3.9508
 7168TIP3   OH242994   6.053   3.164  15.242 -0.0132  0.2210  0.4420
 7168TIP3    H142995   5.988   3.096  15.261  0.7031 -1.0060 -1.3152
 7168TIP3    H242996   6.056   3.169  15.147 -0.1905  2.9008  0.5053
 7169TIP3   OH242997   3.572   3.932  16.434 -0.1915 -0.1699 -0.3028
 7169TIP3    H142998   3.606   3.944  16.522 -0.6174 -1.2733  0.0359
 7169TIP3    H242999   3.486   3.890  16.447  0.9008 -2.9524 -1.2594
 7170TIP3   OH243000   5.346   5.091  13.554  0.5946  0.5189  0.5411
 7170TIP3    H143001   5.251   5.089  13.566  0.6801 -0.2903  1.1781
 7170TIP3    H243002   5.381   5.075  13.642  1.2882 -1.4367 -0.0520
 7171TIP3   OH243003   0.608   6.542   3.136  0.0652 -0.2709 -0.6913
 7171TIP3    H143004   0.594   6.474   3.070 -0.3077  0.3399 -1.2617
 7171TIP3    H243005   0.587   6.623   3.090 -2.4108  0.0138  0.7872
 7172TIP3   OH243006   3.796   5.622  12.281  0.2164 -0.0278  0.3221
 7172TIP3    H143007   3.716   5.661  12.317 -0.1839 -0.0651 -0.5138
 7172TIP3    H243008   3.861   5.693  12.283 -0.0984  0.2643  0.1511
 7173TIP3   OH243009   4.995   6.083  13.543  0.0712 -0.4141  0.4417
 7173TIP3    H143010   5.018   6.166  13.500 -0.1229 -0.0976  0.9373
 7173TIP3    H243011   5.003   6.102  13.637  0.5279 -1.1115  0.5475
 7174TIP3   OH243012   2.830   3.030  16.984  0.2810 -0.6637 -0.4445
 7174TIP3    H143013   2.819   3.015  17.078  0.1276 -0.2226 -0.3848
 7174TIP3    H243014   2.924   3.022  16.968  0.1632 -2.1596 -0.5209
 7175TIP3   OH243015   5.887   6.412  10.592 -0.2337 -0.2914 -0.0409
 7175TIP3    H143016   5.919   6.458  10.514 -0.2486  0.3898  0.3416
 7175TIP3    H243017   5.963   6.408  10.650 -0.7398  1.1359  0.7825
 7176TIP3   OH243018   5.430   3.732  10.589  0.4069 -0.1144  0.3418
 7176TIP3    H143019   5.436   3.804  10.652 -0.6931 -1.1074  1.6750
 7176TIP3    H243020   5.410   3.656  10.643 -0.2361 -1.0827 -1.1997
 7177TIP3   OH243021   0.498   1.244  12.110 -0.3874 -0.0495 -0.5678
 7177TIP3    H143022   0.411   1.281  12.093  0.4137  1.5197 -1.3742
 7177TIP3    H243023   0.514   1.264  12.202 -0.9074 -0.4313 -0.3870
 7178TIP3   OH243024   4.776   1.397  12.692 -0.3117  0.2773 -0.7127
 7178TIP3    H143025   4.866   1.390  12.723 -0.1358 -0.8648 -1.4354
 7178TIP3    H243026   4.753   1.489  12.705  0.7843  0.4751 -0.0734
 7179TIP3   OH243027   6.629   1.891   2.928  0.1418  0.0571 -0.6236
 7179TIP3    H143028   6.649   1.939   3.008  0.1505 -0.1155 -0.5223
 7179TIP3    H243029   6.715   1.870   2.890  0.1805 -0.9212 -0.0483
 7180TIP3   OH243030   4.597   4.170  13.126  0.0853 -0.5562 -0.4564
 7180TIP3    H143031   4.558   4.144  13.042 -0.5800 -0.9984 -0.0207
 7180TIP3    H243032   4.608   4.088  13.174 -0.1951 -0.2364  0.1628
 7181TIP3   OH243033   1.627   2.731  14.965 -0.3072 -0.2549 -0.6369
 7181TIP3    H143034   1.600   2.746  14.875 -1.0889 -1.4410 -0.6230
 7181TIP3    H243035   1.690   2.801  14.984 -2.2727  1.7670 -1.1279
 7182TIP3   OH243036   6.532   3.709   5.118  0.2519 -0.4423  0.0388
 7182TIP3    H143037   6.552   3.796   5.152  1.2274 -1.3962  2.0494
 7182TIP3    H243038   6.505   3.724   5.027  0.6075  1.9097  0.2736
 7183TIP3   OH243039   0.582   6.274  14.975  0.2293 -0.7995 -0.0515
 7183TIP3    H143040   0.657   6.315  14.932  0.1085 -1.0732 -0.5330
 7183TIP3    H243041   0.579   6.185  14.940 -0.7928 -0.5482 -0.6605
 7184TIP3   OH243042   1.358   3.721  13.781 -0.1072 -0.4386  0.0911
 7184TIP3    H143043   1.406   3.804  13.779  0.6531 -0.8154  1.6784
 7184TIP3    H243044   1.350   3.699  13.874 -2.5006 -0.9080 -0.1491
 7185TIP3   OH243045   3.387   3.842   2.207 -0.6007 -0.0928  0.3125
 7185TIP3    H143046   3.404   3.777   2.276  0.4831 -0.6211 -0.4164
 7185TIP3    H243047   3.474   3.874   2.183 -0.7260 -1.4819 -2.2613
 7186TIP3   OH243048   5.380   4.003  13.249  0.2962 -0.8960 -0.5005
 7186TIP3    H143049   5.439   4.076  13.228  0.5518 -0.6741  0.8726
 7186TIP3    H243050   5.381   3.999  13.345 -0.9514 -1.7021 -0.5027
 7187TIP3   OH243051   2.200   3.791  16.338  0.8999 -0.1841  0.1801
 7187TIP3    H143052   2.188   3.884  16.353 -2.0708 -0.4888  0.3340
 7187TIP3    H243053   2.249   3.760  16.414  0.7665  1.0295  0.7708
 7188TIP3   OH243054   4.177   5.109   3.982  0.2542 -0.1317 -0.6685
 7188TIP3    H143055   4.152   5.094   3.891 -0.6390  0.0871 -0.4632
 7188TIP3    H243056   4.120   5.052   4.032  2.6403 -2.4678 -0.3653
 7189TIP3   OH243057   3.292   4.098   4.871 -0.3754  0.2331 -0.1259
 7189TIP3    H143058   3.287   4.003   4.865 -0.5902  0.1771  0.8214
 7189TIP3    H243059   3.298   4.116   4.965  2.5315  1.0120 -0.3590
 7190TIP3   OH243060   4.427   1.709  15.594  0.0441  0.1090 -0.4144
 7190TIP3    H143061   4.371   1.670  15.662  0.8099 -0.3341 -0.0173
 7190TIP3    H243062   4.471   1.634  15.554 -0.6933  0.3343 -1.6887
 7191TIP3   OH243063   4.637   4.650   5.227 -0.0486  0.2245 -0.2158
 7191TIP3    H143064   4.561   4.688   5.271  0.4415  0.4975  0.4155
 7191TIP3    H243065   4.672   4.588   5.290  0.1810  0.0071 -0.5547
 7192TIP3   OH243066   3.536   4.463   0.767 -0.6766  1.0535  0.1007
 7192TIP3    H143067   3.464   4.492   0.822  0.6757  1.2609  1.8400
 7192TIP3    H243068   3.528   4.368   0.763  0.3623  0.8071  2.4386
 7193TIP3   OH243069   6.765   4.575  13.844 -0.2269  0.3198  0.5756
 7193TIP3    H143070   6.800   4.642  13.903 -0.0522 -0.8852  1.8919
 7193TIP3    H243071   6.739   4.623  13.766 -0.5351  1.9916  1.6602
 7194TIP3   OH243072   6.513   4.126   2.869  0.4072 -0.3047  0.0226
 7194TIP3    H143073   6.452   4.142   2.797  0.4513 -1.1788 -0.2268
 7194TIP3    H243074   6.458   4.109   2.945  0.3588  0.3813  0.1462
 7195TIP3   OH243075   3.687   5.167  12.436 -0.5595 -0.5703  0.7325
 7195TIP3    H143076   3.636   5.110  12.494  0.1061 -0.1656  1.7299
 7195TIP3    H243077   3.772   5.176  12.479  0.3384 -1.1356 -0.8413
 7196TIP3   OH243078   3.999   3.021  14.632 -0.1584 -0.0488 -0.2656
 7196TIP3    H143079   3.957   2.976  14.558 -2.3837 -0.3150  1.0758
 7196TIP3    H243080   4.037   2.951  14.685  0.7902  0.0898 -0.7329
 7197TIP3   OH243081   0.857   2.268  16.767 -0.1369 -0.2134 -0.1255
 7197TIP3    H143082   0.810   2.335  16.716 -0.7382 -0.5117  0.0298
 7197TIP3    H243083   0.933   2.246  16.713 -0.6489 -0.3642 -0.8014
 7198TIP3   OH243084   5.407   4.808  12.950  0.1856 -0.0072  0.3685
 7198TIP3    H143085   5.353   4.733  12.925  0.4759  0.2306 -1.0901
 7198TIP3    H243086   5.345   4.880  12.960  0.1390  0.1086 -0.6438
 7199TIP3   OH243087   1.324   5.322  10.870  0.0034 -0.4770 -0.0469
 7199TIP3    H143088   1.404   5.311  10.819  0.6943 -0.9445  1.1055
 7199TIP3    H243089   1.350   5.377  10.944 -0.7557 -0.5950  0.3205
 7200TIP3   OH243090   5.494   6.270  16.937 -0.6759  0.0233 -0.1050
 7200TIP3    H143091   5.430   6.324  16.891 -0.6130  0.2350  0.0554
 7200TIP3    H243092   5.463   6.267  17.027  0.2726  1.2859  0.3067
 7201TIP3   OH243093   1.353   2.929  16.383  0.0634 -0.3888  0.1399
 7201TIP3    H143094   1.353   2.887  16.297  3.0338 -0.9830  0.3420
 7201TIP3    H243095   1.340   2.857  16.445  1.2450 -0.4776  0.3055
 7202TIP3   OH243096   4.377   2.010   2.471 -0.0400 -0.3330  0.1822
 7202TIP3    H143097   4.347   1.966   2.551 -0.0939  1.5279  1.2311
 7202TIP3    H243098   4.297   2.047   2.433  0.2433  0.3878  0.2839
 7203TIP3   OH243099   0.992   1.157  11.422 -0.3160  0.0548  0.2898
 7203TIP3    H143100   0.967   1.082  11.368  0.4023  0.2733 -0.3655
 7203TIP3    H243101   1.088   1.153  11.425 -0.1937  1.5492 -0.6401
 7204TIP3   OH243102   5.675   6.337  10.738 -0.2194  0.3067 -0.4849
 7204TIP3    H143103   5.760   6.350  10.694  0.3795  0.1322  0.5883
 7204TIP3    H243104   5.642   6.255  10.703  1.0250 -0.6808  0.5463
 7205TIP3   OH243105   3.953   3.064  17.113  0.1876 -0.0117 -0.3214
 7205TIP3    H143106   3.960   2.972  17.139 -0.6428 -0.2141 -0.7957
 7205TIP3    H243107   3.967   3.063  17.018  0.1919  0.3550 -0.3259
 7206TIP3   OH243108   5.157   0.254  11.670  0.4582  0.3458  0.2613
 7206TIP3    H143109   5.137   0.202  11.592  0.2165 -0.1188  0.6238
 7206TIP3    H243110   5.074   0.257  11.718  0.3614  1.4106  0.0524
 7207TIP3   OH243111   4.726   6.385  13.419  0.1140  0.4199 -0.0446
 7207TIP3    H143112   4.681   6.380  13.335  0.7993 -1.1034 -0.3516
 7207TIP3    H243113   4.720   6.296  13.455  1.0551  0.6981  0.8635
 7208TIP3   OH243114   4.071   0.491   4.798  0.3612 -0.2780 -0.2696
 7208TIP3    H143115   4.124   0.571   4.804  0.2803 -0.2040 -0.5145
 7208TIP3    H243116   3.987   0.514   4.837 -0.2608  0.2845 -1.8438
 7209TIP3   OH243117   4.969   4.469   4.061  0.1764 -0.2670  0.8751
 7209TIP3    H143118   5.022   4.466   4.141 -0.0442  1.7835  1.1338
 7209TIP3    H243119   5.007   4.401   4.005  0.6242 -1.4482  2.5126
 7210TIP3   OH243120   6.185   0.741   2.155  0.1960 -0.0680  0.4011
 7210TIP3    H143121   6.157   0.736   2.246  0.0547 -0.6817  0.3298
 7210TIP3    H243122   6.149   0.662   2.115  0.1995  0.2343 -0.2023
 7211TIP3   OH243123   5.954   2.723   1.578  0.3229  0.4654  0.3485
 7211TIP3    H143124   5.907   2.708   1.661  1.4249  1.3891  1.1786
 7211TIP3    H243125   5.948   2.640   1.532 -1.0330  0.1709  0.9758
 7212TIP3   OH243126   2.130   2.141  11.351  0.0361 -0.1214 -0.0807
 7212TIP3    H143127   2.085   2.193  11.284 -0.4746 -0.1469  0.2410
 7212TIP3    H243128   2.216   2.123  11.312  1.3053  3.2004  0.8588
 7213TIP3   OH243129   1.980   4.670  12.959  0.3505 -0.0095 -0.3861
 7213TIP3    H143130   1.977   4.701  12.869  0.9513 -2.0497 -1.1377
 7213TIP3    H243131   1.889   4.657  12.983  0.0176  2.7059  0.1480
 7214TIP3   OH243132   1.007   4.008  13.894  0.5599  0.0241  0.4926
 7214TIP3    H143133   1.039   3.952  13.823  1.0060  1.8027 -0.7808
 7214TIP3    H243134   0.914   3.987  13.901  0.6204 -0.5478 -0.2523
 7215TIP3   OH243135   2.444   0.457  12.546  0.0529  0.2471 -0.1912
 7215TIP3    H143136   2.508   0.503  12.601  2.2625  0.6646 -2.9057
 7215TIP3    H243137   2.468   0.365  12.554  1.2313  0.4210 -1.3789
 7216TIP3   OH243138   3.107   6.465  13.832  0.0773 -0.1993  0.3558
 7216TIP3    H143139   3.114   6.495  13.922 -3.5813 -0.9015  0.9959
 7216TIP3    H243140   3.059   6.535  13.787 -0.3136 -0.9527 -0.4230
 7217TIP3   OH243141   0.293   0.637  11.323  0.1204  0.0083 -0.4255
 7217TIP3    H143142   0.266   0.637  11.231 -0.4089 -1.7390 -0.3098
 7217TIP3    H243143   0.371   0.581  11.325 -1.0420 -1.6642  0.4534
 7218TIP3   OH243144   1.135   0.686   6.292 -0.1718  0.2416  0.1696
 7218TIP3    H143145   1.102   0.761   6.342  0.0536  1.8458 -1.9051
 7218TIP3    H243146   1.088   0.611   6.327 -1.4026  1.5470  1.4708
 7219TIP3   OH243147   5.174   3.407   2.615 -0.5232  0.2325 -0.8543
 7219TIP3    H143148   5.190   3.378   2.705 -0.3439  1.1278 -0.5888
 7219TIP3    H243149   5.183   3.327   2.562 -0.0543 -0.1908 -0.1531
 7220TIP3   OH243150   3.685   6.013   4.065  0.1511 -0.5416  0.0807
 7220TIP3    H143151   3.591   5.997   4.065  0.3410 -1.9060 -0.9737
 7220TIP3    H243152   3.722   5.936   4.109  0.7738 -0.1110  0.3205
 7221TIP3   OH243153   0.578   0.685  16.213  0.3564 -0.3896 -0.1726
 7221TIP3    H143154   0.659   0.709  16.168 -0.6686  3.7725 -0.1977
 7221TIP3    H243155   0.605   0.663  16.302  1.6179 -0.3355 -0.5271
 7222TIP3   OH243156   5.409   3.272   1.969  0.8008 -0.2026  0.2981
 7222TIP3    H143157   5.337   3.218   1.937  0.5394 -0.2637  0.9618
 7222TIP3    H243158   5.473   3.208   2.002  0.6842 -0.1279  0.6811
 7223TIP3   OH243159   3.256   6.393   1.417 -0.1335 -0.4525  0.1859
 7223TIP3    H143160   3.287   6.314   1.372  1.1736  0.4013 -0.4639
 7223TIP3    H243161   3.177   6.418   1.369  1.3415  0.5590 -1.8562
 7224TIP3   OH243162   3.999   5.340   3.957  0.7251 -0.2562 -0.3687
 7224TIP3    H143163   3.923   5.299   3.916  0.2505 -0.7169  0.9144
 7224TIP3    H243164   4.024   5.280   4.026  1.3369  0.6149  0.1919
 7225TIP3   OH243165   3.970   3.418  16.881 -0.1034 -0.4183  0.0783
 7225TIP3    H143166   3.880   3.427  16.850  0.5049 -0.4888 -1.8630
 7225TIP3    H243167   3.980   3.325  16.899  0.0607 -0.7123 -1.4124
 7226TIP3   OH243168   4.498   2.311  14.230  0.6582 -0.6727 -0.2296
 7226TIP3    H143169   4.516   2.219  14.252 -1.0174 -0.9202  0.1946
 7226TIP3    H243170   4.511   2.315  14.135  2.6586 -0.8573 -0.0025
 7227TIP3   OH243171   2.860   2.006  11.695 -0.4898  0.2297  0.0411
 7227TIP3    H143172   2.849   2.093  11.657 -1.5477  0.3655  0.6105
 7227TIP3    H243173   2.950   2.004  11.725 -0.3272  0.9732 -0.3685
 7228TIP3   OH243174   4.820   2.128   3.073 -0.0903  0.0760  0.7144
 7228TIP3    H143175   4.827   2.169   3.160 -0.5994  1.0878  0.2934
 7228TIP3    H243176   4.872   2.048   3.080 -1.4834 -0.7472  2.4629
 7229TIP3   OH243177   6.764   0.514   2.093  0.2426  0.0103 -0.2437
 7229TIP3    H143178   6.812   0.539   2.171  0.5399 -0.7926 -0.1542
 7229TIP3    H243179   6.676   0.548   2.106  0.4912  0.5242  0.0992
 7230TIP3   OH243180   6.305   2.487  12.367 -0.2484 -0.5471 -0.3474
 7230TIP3    H143181   6.383   2.524  12.326  0.0643 -1.2050 -0.3516
 7230TIP3    H243182   6.338   2.448  12.448 -0.9216  1.1526  0.8030
 7231TIP3   OH243183   2.882   1.965   5.219 -0.2261  0.3997 -0.0309
 7231TIP3    H143184   2.797   1.966   5.175  0.4058  1.2525 -1.3024
 7231TIP3    H243185   2.907   2.057   5.226  1.2834  0.1257 -1.1251
 7232TIP3   OH243186   4.115   1.767   0.940  0.5852 -0.2523 -0.0834
 7232TIP3    H143187   4.125   1.709   0.865 -2.5860 -0.1535 -0.7128
 7232TIP3    H243188   4.153   1.850   0.911 -0.6907 -0.1782 -1.7019
 7233TIP3   OH243189   1.224   4.433   4.320 -0.2194 -0.0083 -0.3177
 7233TIP3    H143190   1.304   4.480   4.343 -0.1123 -0.8971  1.3060
 7233TIP3    H243191   1.159   4.463   4.384 -0.6536 -0.6828 -0.4279
 7234TIP3   OH243192   1.627   0.693   5.611  0.1538  0.0091  0.1747
 7234TIP3    H143193   1.692   0.711   5.678  1.6862 -0.4320 -1.1314
 7234TIP3    H243194   1.674   0.702   5.528 -2.0111  2.0795 -0.9809
 7235TIP3   OH243195   5.591   1.001   4.581  0.1825 -0.5146 -0.1063
 7235TIP3    H143196   5.627   1.063   4.644 -0.7927 -1.2657  1.2280
 7235TIP3    H243197   5.658   0.996   4.512  1.8201 -0.5246  1.4000
 7236TIP3   OH243198   5.347   3.575   2.470 -0.6394 -0.3863 -0.3636
 7236TIP3    H143199   5.260   3.547   2.498 -0.2543 -0.2200  1.0895
 7236TIP3    H243200   5.344   3.572   2.375 -2.9317  1.6800 -0.4658
 7237TIP3   OH243201   0.831   0.283  12.669  0.3449  0.0082 -0.4729
 7237TIP3    H143202   0.801   0.197  12.699  2.5295 -0.8692 -0.6747
 7237TIP3    H243203   0.869   0.324  12.746 -2.0277  1.5212  0.0170
 7238TIP3   OH243204   1.873   4.756   2.426 -0.0983  0.3239 -0.2769
 7238TIP3    H143205   1.893   4.849   2.425  0.9873  0.1089 -0.5138
 7238TIP3    H243206   1.820   4.741   2.348 -2.0515  1.0778  0.8431
 7239TIP3   OH243207   0.453   4.139  11.457  0.2181 -0.5492 -0.4629
 7239TIP3    H143208   0.377   4.083  11.470 -1.6503  2.0901  0.8260
 7239TIP3    H243209   0.523   4.095  11.505 -1.0077 -2.0258  0.0607
 7240TIP3   OH243210   5.682   1.511   5.936  0.1010 -0.6363 -0.6426
 7240TIP3    H143211   5.698   1.447   5.867  2.4329 -0.1931 -0.5745
 7240TIP3    H243212   5.611   1.565   5.902 -0.7488 -2.1763 -1.4260
 7241TIP3   OH243213   1.069   5.761  14.835 -0.0728 -0.3348 -0.0266
 7241TIP3    H143214   1.150   5.720  14.806 -0.9300 -0.8305 -1.8873
 7241TIP3    H243215   1.043   5.816  14.762 -1.7493 -0.6872  0.2616
 7242TIP3   OH243216   5.250   6.772   5.909 -0.1922  0.1219  0.0873
 7242TIP3    H143217   5.315   6.814   5.852 -1.0558  1.1785 -0.1636
 7242TIP3    H243218   5.201   6.715   5.850 -0.6273  0.6798 -0.1062
 7243TIP3   OH243219   4.440   5.357  16.632  0.4367  0.1574  0.1713
 7243TIP3    H143220   4.401   5.404  16.705  0.5329 -0.8524  0.9035
 7243TIP3    H243221   4.372   5.356  16.564  0.6999  1.9474 -0.1520
 7244TIP3   OH243222   6.267   0.305  15.509  0.1851 -0.3336  0.1630
 7244TIP3    H143223   6.327   0.323  15.582  1.8132 -2.0536 -0.6636
 7244TIP3    H243224   6.235   0.217  15.525 -1.7418  0.3404  0.2703
 7245TIP3   OH243225   6.237   1.703  11.473  0.5532 -0.9568 -0.1611
 7245TIP3    H143226   6.247   1.772  11.539 -3.2725 -0.0400 -0.2953
 7245TIP3    H243227   6.302   1.725  11.406  1.0516  1.1602  0.9273
 7246TIP3   OH243228   2.216   0.550  15.926  0.3952 -0.5892  0.2107
 7246TIP3    H143229   2.252   0.478  15.874  0.2494 -0.1592 -0.4974
 7246TIP3    H243230   2.284   0.571  15.990  0.1578 -1.8335  0.9190
 7247TIP3   OH243231   2.325   4.799  14.619 -0.2115  0.4950  0.2725
 7247TIP3    H143232   2.232   4.819  14.629 -0.1645  0.3709  0.9647
 7247TIP3    H243233   2.351   4.759  14.702  0.9125  2.2830  0.8359
 7248TIP3   OH243234   1.840   5.305  14.525  0.3715 -0.2761 -1.1754
 7248TIP3    H143235   1.887   5.235  14.480 -1.9229 -1.1572 -2.3571
 7248TIP3    H243236   1.885   5.385  14.499  1.6225 -1.1095 -1.6672
 7249TIP3   OH243237   0.068   5.261  13.511  0.2376  0.3016  0.6804
 7249TIP3    H143238   0.079   5.322  13.438 -1.5852  0.0692  0.1626
 7249TIP3    H243239   0.144   5.203  13.506  0.7820  1.0563 -0.2459
 7250TIP3   OH243240   0.986   3.769   3.096 -0.0366 -0.0966  0.8549
 7250TIP3    H143241   0.940   3.772   3.180 -0.0547  1.0700  0.8253
 7250TIP3    H243242   0.986   3.677   3.071 -0.4704 -0.3872  1.8955
 7251TIP3   OH243243   2.419   2.921  16.418  0.4795  0.4503  0.2924
 7251TIP3    H143244   2.507   2.914  16.382  0.0200 -1.8895 -0.5098
 7251TIP3    H243245   2.426   2.886  16.507  0.5627  1.3640  0.6604
 7252TIP3   OH243246   6.658   0.430   5.879 -0.6630 -0.1004  0.2034
 7252TIP3    H143247   6.609   0.389   5.808 -1.0336  0.1800  0.2917
 7252TIP3    H243248   6.748   0.437   5.846 -0.5220 -1.2703  0.3167
 7253TIP3   OH243249   0.049   5.829   2.385 -0.2255  0.0996 -0.0268
 7253TIP3    H143250   0.074   5.852   2.475  0.5383  2.6758 -0.7958
 7253TIP3    H243251  -0.044   5.807   2.391 -0.3644  0.9306  1.3051
 7254TIP3   OH243252   3.909   5.691   4.864 -0.4618  1.0001  0.1192
 7254TIP3    H143253   3.888   5.783   4.878 -0.9960  0.6293  1.9706
 7254TIP3    H243254   3.981   5.673   4.925 -0.5942  0.1011  0.0283
 7255TIP3   OH243255   5.144   1.801   3.394 -0.0324  0.1599  1.0085
 7255TIP3    H143256   5.223   1.844   3.361 -0.3173  0.7891  1.1505
 7255TIP3    H243257   5.162   1.707   3.382 -0.5773  0.3489 -1.9996
 7256TIP3   OH243258   3.652   6.241   1.017 -0.3466  0.2244  0.4963
 7256TIP3    H143259   3.731   6.279   1.057 -0.0802 -0.3758  0.5590
 7256TIP3    H243260   3.580   6.284   1.062 -0.0504  0.2846  0.9254
 7257TIP3   OH243261   6.712   1.255  12.621 -0.2818  0.5973  0.1346
 7257TIP3    H143262   6.620   1.266  12.643 -0.1296  1.3478  0.4308
 7257TIP3    H243263   6.727   1.315  12.548  0.3161  1.6098  1.0625
 7258TIP3   OH243264   2.133   4.886  10.893  0.3070 -0.4196  0.0491
 7258TIP3    H143265   2.053   4.939  10.896  0.7957  0.6102 -2.4225
 7258TIP3    H243266   2.164   4.885  10.983 -1.6516  0.4653  0.8038
 7259TIP3   OH243267   4.612   1.793   4.088  0.2099  0.4648  0.6227
 7259TIP3    H143268   4.636   1.804   4.180 -1.3160  0.4652  1.0553
 7259TIP3    H243269   4.591   1.700   4.079 -0.5270  0.6390  0.5095
 7260TIP3   OH243270   0.495   2.684  14.824 -0.3038 -0.3129  0.0520
 7260TIP3    H143271   0.560   2.740  14.782  0.4462 -0.4588  0.9655
 7260TIP3    H243272   0.508   2.598  14.785  0.1157 -0.3595  0.2906
 7261TIP3   OH243273   4.756   2.256  16.754 -0.1538 -0.5253 -0.0485
 7261TIP3    H143274   4.772   2.310  16.677  1.1196  0.9885  1.1889
 7261TIP3    H243275   4.840   2.254  16.800 -1.1064 -0.5279  1.7909
 7262TIP3   OH243276   0.234   6.759   5.191  0.3366 -0.2988  0.1496
 7262TIP3    H143277   0.245   6.850   5.217  0.4291 -0.5867  1.1577
 7262TIP3    H243278   0.139   6.746   5.189  0.3298 -0.2768  0.3437
 7263TIP3   OH243279   2.899   6.215   3.996 -0.1826 -0.1130 -0.3234
 7263TIP3    H143280   2.979   6.248   4.038 -0.6882 -0.3607  0.8745
 7263TIP3    H243281   2.903   6.249   3.907  1.9964 -1.3086 -0.7632
 7264TIP3   OH243282   5.613   1.748  15.540 -0.4780 -0.5226 -0.8462
 7264TIP3    H143283   5.672   1.759  15.466  1.0807  1.5164  0.5946
 7264TIP3    H243284   5.588   1.837  15.564 -1.7184 -1.1908  0.4882
 7265TIP3   OH243285   3.977   6.004  15.566 -0.5521  0.5191 -0.0800
 7265TIP3    H143286   3.953   5.962  15.649 -1.8153  1.2196 -0.0681
 7265TIP3    H243287   3.959   6.097  15.580  0.1825  0.7862 -0.8157
 7266TIP3   OH243288   4.589   4.934  11.371 -0.7878 -0.8139  0.3183
 7266TIP3    H143289   4.524   4.981  11.423 -1.7783 -1.4796 -0.2893
 7266TIP3    H243290   4.653   4.902  11.435 -0.2704  1.0312  0.7857
 7267TIP3   OH243291   6.641   5.296  12.233  0.0342  0.6157  0.4233
 7267TIP3    H143292   6.565   5.350  12.209 -0.6587 -0.3615  0.3798
 7267TIP3    H243293   6.654   5.313  12.326 -1.0871 -0.2165  0.7508
 7268TIP3   OH243294   1.011   3.143  11.054  0.0586 -0.1012  0.0622
 7268TIP3    H143295   0.981   3.053  11.043  0.2142  0.0109 -1.3970
 7268TIP3    H243296   1.085   3.151  10.994  0.2688  0.9053  0.4417
 7269TIP3   OH243297   0.301   0.597   3.879  0.6972  0.1743 -0.3429
 7269TIP3    H143298   0.352   0.569   3.955 -0.2909  1.2264  0.7555
 7269TIP3    H243299   0.211   0.601   3.911  0.6175  3.6106 -0.6205
 7270TIP3   OH243300   3.437   5.976   1.941 -0.3801  0.5857 -0.2807
 7270TIP3    H143301   3.497   6.030   1.889  0.8780  0.4008  0.9206
 7270TIP3    H243302   3.356   6.028   1.944  0.7860  2.4742  0.8369
 7271TIP3   OH243303   0.413   2.414   6.574 -0.2955  0.5182  0.0272
 7271TIP3    H143304   0.468   2.450   6.643 -2.7666  2.2027  1.2737
 7271TIP3    H243305   0.427   2.472   6.499  1.0462 -0.2536 -0.3548
 7272TIP3   OH243306   6.640   4.369   5.218  0.2184 -0.2473 -0.0404
 7272TIP3    H143307   6.671   4.370   5.127  0.8524 -1.6618  0.1408
 7272TIP3    H243308   6.715   4.398   5.270  0.4704 -1.2861  0.1870
 7273TIP3   OH243309   3.006   2.962  16.162 -0.1079  0.2345 -0.0512
 7273TIP3    H143310   3.039   2.877  16.135  2.7704  1.3506 -0.4637
 7273TIP3    H243311   3.052   2.981  16.244 -0.9921  1.2198  0.2443
 7274TIP3   OH243312   5.113   3.027   2.605 -0.4518  0.3554  0.5455
 7274TIP3    H143313   5.087   2.936   2.614 -0.3651 -0.1699 -2.9610
 7274TIP3    H243314   5.031   3.075   2.604 -0.7745 -0.1687 -1.0835
 7275TIP3   OH243315   3.878   4.101   3.747  0.1631  0.6222  0.3968
 7275TIP3    H143316   3.786   4.127   3.743  0.5399  2.2481  1.3122
 7275TIP3    H243317   3.876   4.011   3.778 -1.1163  0.7744  0.8267
 7276TIP3   OH243318   5.327   5.835   3.500  0.1445 -0.0358 -0.4254
 7276TIP3    H143319   5.276   5.807   3.576  2.7621 -0.5517  1.2654
 7276TIP3    H243320   5.323   5.760   3.439  0.7747 -1.0346  0.7149
 7277TIP3   OH243321   2.993   4.932  11.217  0.3595 -0.1400 -0.2141
 7277TIP3    H143322   2.973   4.983  11.296  0.6666  0.4153 -0.4965
 7277TIP3    H243323   3.034   4.994  11.157  2.0415 -1.0244 -0.0385
 7278TIP3   OH243324   5.168   5.480  17.125  0.5235  0.7138  0.2087
 7278TIP3    H143325   5.129   5.395  17.149  1.5746 -0.0559 -0.6927
 7278TIP3    H243326   5.193   5.518  17.209 -2.3918  1.4250  0.8829
 7279TIP3   OH243327   4.724   3.218  12.451  0.4333 -0.0275  0.6489
 7279TIP3    H143328   4.740   3.195  12.542 -0.3624 -0.5909  0.6521
 7279TIP3    H243329   4.633   3.194  12.435  1.0591 -1.6701 -0.7990
 7280TIP3   OH243330   4.284   2.851  15.201  0.3520 -0.8232 -0.5532
 7280TIP3    H143331   4.337   2.786  15.246  1.6555  0.3060 -0.3935
 7280TIP3    H243332   4.225   2.885  15.268 -1.2518 -2.6903 -0.9278
 7281TIP3   OH243333   0.511   3.333  16.643 -0.0702 -0.4905 -0.4695
 7281TIP3    H143334   0.504   3.322  16.738 -0.4165  0.0729 -0.4291
 7281TIP3    H243335   0.576   3.268  16.617 -0.3090 -0.9701  0.0885
 7282TIP3   OH243336   2.503   3.052   1.248  0.2634 -0.0820 -0.3079
 7282TIP3    H143337   2.456   2.978   1.209  0.1503 -0.3423  0.3169
 7282TIP3    H243338   2.435   3.115   1.270  0.4446  0.6773 -1.7937
 7283TIP3   OH243339   3.137   4.576  15.275  0.0834  0.0912  1.0312
 7283TIP3    H143340   3.165   4.485  15.260 -3.7585 -1.0120 -0.9463
 7283TIP3    H243341   3.109   4.578  15.366  1.5768 -0.2200  1.5227
 7284TIP3   OH243342   0.732   5.512   3.818 -0.6394  0.4632 -0.5095
 7284TIP3    H143343   0.769   5.456   3.749 -1.1692 -1.3959  0.6520
 7284TIP3    H243344   0.661   5.560   3.774  0.2767  0.7794 -1.7009
 7285TIP3   OH243345   4.225   0.237   2.633  0.7115  0.3575  1.0087
 7285TIP3    H143346   4.297   0.256   2.572  0.8470  0.2408  1.1314
 7285TIP3    H243347   4.257   0.163   2.685 -0.1377 -0.7488 -0.0143
 7286TIP3   OH243348   1.869   2.949   2.494 -0.7994  0.1167 -0.6580
 7286TIP3    H143349   1.797   2.980   2.549 -0.3307  0.4221 -0.2198
 7286TIP3    H243350   1.838   2.964   2.404  0.1121  3.6790 -0.5403
 7287TIP3   OH243351   2.071   1.307   4.236  0.3422 -0.2294 -0.2176
 7287TIP3    H143352   2.004   1.369   4.206 -0.1543 -0.6049  0.0989
 7287TIP3    H243353   2.132   1.300   4.163 -1.3653 -1.9151 -1.5984
 7288TIP3   OH243354   1.947   1.130  14.946 -0.2402  0.0895 -0.0574
 7288TIP3    H143355   1.957   1.092  15.034  2.0415  0.2435 -0.1975
 7288TIP3    H243356   1.933   1.223  14.961 -2.7516 -0.2343  0.1703
 7289TIP3   OH243357   5.813   1.165   3.867 -0.0539 -0.2368  0.4021
 7289TIP3    H143358   5.826   1.245   3.918 -0.5138 -0.2383  0.5298
 7289TIP3    H243359   5.817   1.193   3.776  1.3459 -0.3237  0.4169
 7290TIP3   OH243360   4.315   4.208  10.712  1.2184 -0.4621 -0.3428
 7290TIP3    H143361   4.371   4.244  10.643 -0.7947 -1.5439 -2.6664
 7290TIP3    H243362   4.279   4.128  10.674 -0.1724 -0.9878  1.9150
 7291TIP3   OH243363   3.875   5.125   0.847  0.1212  0.2279  0.3095
 7291TIP3    H143364   3.818   5.160   0.916  0.0040  1.1083 -0.2191
 7291TIP3    H243365   3.903   5.040   0.880  0.2993  0.7542  1.5749
 7292TIP3   OH243366   1.626   3.050  14.149  0.8234 -0.0661  0.6533
 7292TIP3    H143367   1.532   3.033  14.158  1.0903 -1.2569  1.3247
 7292TIP3    H243368   1.636   3.141  14.179 -0.1451  0.1723  0.3005
 7293TIP3   OH243369   2.370   3.740   0.557 -0.1022  0.4570  0.2422
 7293TIP3    H143370   2.329   3.660   0.526  1.6337  0.5601 -2.6426
 7293TIP3    H243371   2.326   3.810   0.508  0.1006  1.0418  0.8838
 7294TIP3   OH243372   4.428   0.919  14.632 -0.0937  0.1972 -0.2047
 7294TIP3    H143373   4.383   0.858  14.573 -0.5567 -1.7748  2.0357
 7294TIP3    H243374   4.481   0.863  14.689  1.7066  2.1441  0.1848
 7295TIP3   OH243375   4.906   5.796   3.968 -0.5838  0.4264 -0.7961
 7295TIP3    H143376   4.950   5.776   3.885 -0.7713 -1.7678 -0.4318
 7295TIP3    H243377   4.913   5.891   3.977  1.2240  0.4931 -2.3151
 7296TIP3   OH243378   6.326   2.470   2.054  0.0101  0.1735  0.6254
 7296TIP3    H143379   6.260   2.500   2.117  0.2768  1.0795  0.4805
 7296TIP3    H243380   6.307   2.518   1.974 -0.2300 -0.8587  0.0451
 7297TIP3   OH243381   0.157   0.155  16.349  0.5277  0.5665  0.6618
 7297TIP3    H143382   0.150   0.166  16.443 -0.3338  1.9373  0.4773
 7297TIP3    H243383   0.067   0.135  16.320  0.8611 -0.2653  0.1820
 7298TIP3   OH243384   6.542   2.147   4.241 -0.6026  0.0513  0.4444
 7298TIP3    H143385   6.457   2.188   4.260  0.8288  1.6028  4.3647
 7298TIP3    H243386   6.606   2.216   4.254  1.4295 -0.6918 -3.6976
 7299TIP3   OH243387   0.496   2.290  12.356  0.4663  0.3196 -0.4488
 7299TIP3    H143388   0.537   2.351  12.295  0.7008 -1.9366 -2.7234
 7299TIP3    H243389   0.403   2.295  12.336  0.4301  0.2988 -0.2852
 7300TIP3   OH243390   5.643   4.079   4.564  0.8126  0.0222  0.2093
 7300TIP3    H143391   5.653   3.993   4.606  0.5102 -1.3949 -2.4145
 7300TIP3    H243392   5.721   4.128   4.591  0.5308 -0.6697  2.5118
 7301TIP3   OH243393   0.158   1.189   0.974 -0.5550 -0.3941 -0.3017
 7301TIP3    H143394   0.170   1.239   0.894  0.1717 -1.5205 -0.9294
 7301TIP3    H243395   0.246   1.178   1.009 -0.8978  0.4039  0.8778
 7302TIP3   OH243396   5.308   4.447  13.227  0.2607 -0.3133 -0.3667
 7302TIP3    H143397   5.328   4.416  13.315  0.3669  0.6272 -0.0506
 7302TIP3    H243398   5.362   4.526  13.216 -2.4950  1.8099  0.1874
 7303TIP3   OH243399   0.891   2.377   1.837  0.1492 -0.6192  0.0696
 7303TIP3    H143400   0.907   2.311   1.904  0.8732  0.4084  0.9424
 7303TIP3    H243401   0.872   2.457   1.885 -2.4360 -0.5043 -0.9479
 7304TIP3   OH243402   1.378   2.975  15.929  0.0465 -0.1514 -0.1793
 7304TIP3    H143403   1.444   2.949  15.864  1.5776 -2.0519  1.9635
 7304TIP3    H243404   1.296   2.939  15.896  0.3095  0.8404 -2.0892
 7305TIP3   OH243405   2.815   5.086  12.938  0.5980 -0.5980  0.4178
 7305TIP3    H143406   2.885   5.138  12.899  0.2042  0.5376  1.1721
 7305TIP3    H243407   2.792   5.022  12.871  1.1294  0.1762 -0.5224
 7306TIP3   OH243408   0.023   3.375   4.976  0.2371 -0.3569 -0.4465
 7306TIP3    H143409   0.052   3.306   4.916  0.2314  0.4062 -1.3608
 7306TIP3    H243410   0.099   3.393   5.030  0.2066 -1.1460 -0.1356
 7307TIP3   OH243411   5.814   1.888   0.167  0.2781 -0.4004  0.1431
 7307TIP3    H143412   5.797   1.816   0.228  0.6292 -0.3137  0.3435
 7307TIP3    H243413   5.741   1.885   0.105  0.0035 -0.5869  0.4762
 7308TIP3   OH243414   1.218   4.326   1.083 -0.2715 -0.1220  0.2102
 7308TIP3    H143415   1.229   4.375   1.001 -2.6061 -0.7625 -0.5697
 7308TIP3    H243416   1.306   4.295   1.105  0.5642  0.9024 -1.5202
 7309TIP3   OH243417   4.230   4.882   4.585 -0.2217 -0.3992 -0.7832
 7309TIP3    H143418   4.249   4.806   4.640 -0.3261  1.1141  1.4694
 7309TIP3    H243419   4.267   4.859   4.499  1.3332 -2.2481  0.3005
 7310TIP3   OH243420   3.271   1.201  15.089 -0.2215 -0.0558 -0.0343
 7310TIP3    H143421   3.181   1.224  15.065 -0.7490 -0.1736  1.6478
 7310TIP3    H243422   3.314   1.285  15.104 -0.7286  0.0023  1.3088
 7311TIP3   OH243423   6.199   2.176   1.962  0.2994  0.0824  0.5268
 7311TIP3    H143424   6.197   2.109   2.030 -2.3306 -0.1969  0.2640
 7311TIP3    H243425   6.204   2.259   2.010 -0.0755 -0.1740  1.0144
 7312TIP3   OH243426   6.466   4.208  14.596  0.0670 -0.2828  0.0132
 7312TIP3    H143427   6.461   4.194  14.691  0.0041 -0.9095 -0.0782
 7312TIP3    H243428   6.470   4.303  14.586  0.1509 -0.2161  0.6483
 7313TIP3   OH243429   2.520   6.434  14.843  0.0477  0.4509 -0.6310
 7313TIP3    H143430   2.615   6.446  14.834  0.1567  0.9514  0.8940
 7313TIP3    H243431   2.484   6.522  14.839 -0.1792  0.4153  0.3507
 7314TIP3   OH243432   4.452   3.248   5.192 -0.2837 -0.6402  0.5164
 7314TIP3    H143433   4.415   3.189   5.126  0.1171  0.2609 -0.5493
 7314TIP3    H243434   4.381   3.259   5.255 -0.6574 -1.5836  0.2859
 7315TIP3   OH243435   2.469   3.174   0.984  0.0703  0.3551 -0.2828
 7315TIP3    H143436   2.521   3.244   1.025  1.3092  0.1779 -1.4647
 7315TIP3    H243437   2.508   3.093   1.017  0.6125  0.2208 -1.1948
 7316TIP3   OH243438   0.117   2.426  15.858 -0.0046 -0.7338  0.6192
 7316TIP3    H143439   0.166   2.378  15.792  1.7795  1.9210 -0.1768
 7316TIP3    H243440   0.034   2.449  15.815  0.6292 -0.0973 -0.3131
 7317TIP3   OH243441   5.876   1.113  16.981 -0.3157  0.4113 -0.7838
 7317TIP3    H143442   5.795   1.137  17.027 -0.1806 -0.5397 -0.0367
 7317TIP3    H243443   5.912   1.197  16.953 -1.2458  0.8937 -0.5936
 7318TIP3   OH243444   1.946   6.751  11.270  0.2325  0.2634 -0.4462
 7318TIP3    H143445   1.922   6.837  11.235 -1.3820 -0.0577 -0.2055
 7318TIP3    H243446   1.910   6.749  11.358  0.5500 -0.5230 -0.3223
 7319TIP3   OH243447   3.141   6.684  12.333  0.5075 -0.4565  0.1586
 7319TIP3    H143448   3.190   6.627  12.393  1.8278  0.8333  0.3810
 7319TIP3    H243449   3.069   6.719  12.387 -0.8080 -2.4706 -0.2063
 7320TIP3   OH243450   1.486   1.188  15.699 -0.6153  0.3501  0.2647
 7320TIP3    H143451   1.472   1.112  15.642 -1.0239  2.4357 -2.6237
 7320TIP3    H243452   1.569   1.170  15.743 -0.6613 -1.7143 -0.3891
 7321TIP3   OH243453   1.579   1.986  15.906  0.4805  0.1183 -0.5984
 7321TIP3    H143454   1.642   1.933  15.955 -0.3150  0.1056  0.4300
 7321TIP3    H243455   1.532   1.923  15.852  0.2424 -0.0862 -0.1538
 7322TIP3   OH243456   4.708   5.322   3.208  0.0944  0.5575 -0.4285
 7322TIP3    H143457   4.626   5.355   3.169 -0.5092  0.8202  0.9979
 7322TIP3    H243458   4.736   5.392   3.266 -0.3182 -0.7340  1.4106
 7323TIP3   OH243459   2.585   4.734  12.692 -0.0210  0.8066  0.7054
 7323TIP3    H143460   2.495   4.716  12.717 -0.5117  1.0831 -0.7769
 7323TIP3    H243461   2.636   4.661  12.729 -0.7764  0.8385  1.8557
 7324TIP3   OH243462   3.162   6.458  15.592 -0.2822 -0.3129 -0.6295
 7324TIP3    H143463   3.098   6.391  15.617  0.4936 -0.8254  0.0336
 7324TIP3    H243464   3.225   6.411  15.537 -0.0551  0.0106 -0.6457
 7325TIP3   OH243465   0.090   4.118  16.654  0.0110 -0.1331 -0.3684
 7325TIP3    H143466   0.180   4.147  16.669 -0.2997  0.1383  1.1460
 7325TIP3    H243467   0.083   4.036  16.701 -1.8025  2.1094  3.7656
 7326TIP3   OH243468   5.988   1.042   0.013 -0.0342 -0.2398 -0.6883
 7326TIP3    H143469   5.909   0.997   0.045  0.4798  0.0653  1.1210
 7326TIP3    H243470   5.972   1.055  -0.081 -1.2000 -2.1051 -0.8022
 7327TIP3   OH243471   2.764   3.688  13.181 -0.0838 -0.2573  0.1967
 7327TIP3    H143472   2.682   3.656  13.142 -0.0551 -1.3727  0.9981
 7327TIP3    H243473   2.746   3.780  13.200 -0.2150  0.2478 -2.0718
 7328TIP3   OH243474   5.829   4.257  15.973 -0.2537 -0.1681 -0.0169
 7328TIP3    H143475   5.814   4.178  15.921 -1.0479 -1.1498  1.6278
 7328TIP3    H243476   5.881   4.314  15.916  1.0222 -2.1918 -0.9746
 7329TIP3   OH243477   6.713   0.698  16.866  0.2780 -0.3081  0.7234
 7329TIP3    H143478   6.641   0.759  16.849  0.3744 -0.4910 -0.3974
 7329TIP3    H243479   6.723   0.649  16.785  2.0451  0.1013  0.6417
 7330TIP3   OH243480   4.137   0.995  12.913 -0.0399  0.0302 -0.0997
 7330TIP3    H143481   4.214   1.052  12.917  0.0090 -0.0930  1.7721
 7330TIP3    H243482   4.149   0.934  12.986 -1.5861 -0.4060 -0.1764
 7331TIP3   OH243483   2.974   1.231   4.957 -0.6798 -0.3555  0.3354
 7331TIP3    H143484   2.947   1.155   4.905 -2.8707 -0.7548  1.9238
 7331TIP3    H243485   2.948   1.209   5.046  0.2605  1.5562  1.1288
 7332TIP3   OH243486   1.954   5.434   3.765  0.2617  0.1013 -0.4279
 7332TIP3    H143487   2.041   5.402   3.787  1.0355  0.6956 -2.4453
 7332TIP3    H243488   1.897   5.357   3.770  0.5833 -0.0501  2.2055
 7333TIP3   OH243489   3.084   3.091  13.874  0.1361 -0.2106 -0.3271
 7333TIP3    H143490   3.052   3.174  13.840  2.3486  0.6620 -0.4783
 7333TIP3    H243491   3.118   3.112  13.961  1.7160 -0.6546 -0.7975
 7334TIP3   OH243492   6.344   3.680  16.096 -0.3573 -0.7676  0.2062
 7334TIP3    H143493   6.363   3.704  16.187 -1.3183 -0.7896  0.4305
 7334TIP3    H243494   6.311   3.590  16.101  1.3764 -1.4819 -0.4044
 7335TIP3   OH243495   4.583   3.979   1.330 -0.3705 -0.3110 -0.2501
 7335TIP3    H143496   4.549   3.957   1.417 -0.6945 -0.3950 -0.3973
 7335TIP3    H243497   4.556   3.907   1.274  2.5407 -1.8669  0.1913
 7336TIP3   OH243498   4.169   5.378   4.224  0.3404 -0.1323  0.1596
 7336TIP3    H143499   4.089   5.386   4.172  0.1118  0.4507  0.5916
 7336TIP3    H243500   4.158   5.442   4.294  0.7025 -0.8257  0.8550
 7337TIP3   OH243501   3.761   2.006  16.159 -0.2126 -0.3611  0.7855
 7337TIP3    H143502   3.692   1.969  16.105 -0.9676 -0.8506  2.0553
 7337TIP3    H243503   3.724   2.010  16.247  1.4809 -0.9701  1.5715
 7338TIP3   OH243504   0.085   3.193  16.980  0.1067 -0.6914  0.3895
 7338TIP3    H143505   0.066   3.231  16.894 -0.8238 -1.2217  0.3387
 7338TIP3    H243506   0.137   3.115  16.961  1.8786  0.4239  0.4837
 7339TIP3   OH243507   5.115   0.396   2.809  0.1718 -0.8686  0.4596
 7339TIP3    H143508   5.100   0.353   2.894 -1.9678 -0.7703  0.1858
 7339TIP3    H243509   5.117   0.324   2.746  2.2171 -0.9827  0.5896
 7340TIP3   OH243510   4.132   0.695  16.482  0.1569 -0.0765 -0.1968
 7340TIP3    H143511   4.103   0.783  16.459  0.1087 -0.1295 -0.3376
 7340TIP3    H243512   4.070   0.667  16.550  0.9448  0.4919  0.7817
 7341TIP3   OH243513   2.083   1.795   2.251 -0.2412 -0.1207  0.0938
 7341TIP3    H143514   2.163   1.742   2.243  0.7356  1.4770 -1.7084
 7341TIP3    H243515   2.085   1.829   2.340  2.2179  1.4489 -0.4489
 7342TIP3   OH243516   5.937   0.050   4.242  0.9463  0.1257 -0.5746
 7342TIP3    H143517   5.949  -0.045   4.239  0.3652  0.0671 -1.8479
 7342TIP3    H243518   6.019   0.084   4.275  1.1822 -0.8209 -0.1520
 7343TIP3   OH243519   3.800   2.883  14.068 -0.3502 -0.3753  0.0083
 7343TIP3    H143520   3.861   2.836  14.011  0.2010  0.1992  0.1228
 7343TIP3    H243521   3.855   2.941  14.121 -0.6223 -2.1718  2.4473
 7344TIP3   OH243522   0.229   5.194   5.626  0.2699  0.4027 -0.5531
 7344TIP3    H143523   0.294   5.219   5.692  1.0783 -0.2672 -1.0849
 7344TIP3    H243524   0.156   5.160   5.678 -0.1468  2.1535  0.1050
 7345TIP3   OH243525   6.167   0.414  17.191  0.1464  0.5436 -0.0180
 7345TIP3    H143526   6.111   0.490  17.175 -0.7739 -0.1055 -0.0101
 7345TIP3    H243527   6.215   0.402  17.110 -0.6170  0.4091 -0.4651
 7346TIP3   OH243528   0.563   4.843  12.268 -0.3363 -0.5342  0.1064
 7346TIP3    H143529   0.474   4.809  12.271 -0.2623 -0.6929  0.7829
 7346TIP3    H243530   0.614   4.774  12.226 -0.6672 -0.1108 -1.0104
 7347TIP3   OH243531   2.833   0.645   0.662  0.0387 -0.1333 -0.9125
 7347TIP3    H143532   2.781   0.716   0.625  0.5271  0.1757 -1.0167
 7347TIP3    H243533   2.895   0.688   0.721 -0.0265 -0.5248 -0.5481
 7348TIP3   OH243534   6.736   5.966  12.048  0.3956  0.1171 -0.3036
 7348TIP3    H143535   6.704   6.029  11.985  0.3218 -0.6388 -1.0448
 7348TIP3    H243536   6.752   5.887  11.997 -0.1460 -0.6770  0.7074
 7349TIP3   OH243537   5.895   3.688   5.623 -0.6484 -0.3312  0.2371
 7349TIP3    H143538   5.880   3.626   5.552  0.2593 -0.6188  0.2901
 7349TIP3    H243539   5.852   3.769   5.594 -1.9602 -0.9933  0.2216
 7350TIP3   OH243540   5.237   5.391   0.543 -0.3832  0.2167 -0.5688
 7350TIP3    H143541   5.318   5.343   0.558  0.8016  1.6543 -1.9266
 7350TIP3    H243542   5.209   5.365   0.455 -1.0678  0.1989 -0.3566
 7351TIP3   OH243543   4.798   1.869  13.268 -0.7990 -0.0180  0.2393
 7351TIP3    H143544   4.764   1.958  13.275  1.5977  1.0583 -0.6844
 7351TIP3    H243545   4.863   1.873  13.197 -1.1151 -2.6846 -0.3279
 7352TIP3   OH243546   2.472   5.197   4.603  0.0505  0.5100  0.2245
 7352TIP3    H143547   2.397   5.137   4.596 -0.3283  0.5319  3.0283
 7352TIP3    H243548   2.445   5.275   4.555 -0.5284 -0.5555 -1.2486
 7353TIP3   OH243549   1.363   1.559   0.374  0.1445  0.0063 -0.5101
 7353TIP3    H143550   1.365   1.469   0.343 -0.4928  0.6517 -2.6361
 7353TIP3    H243551   1.454   1.580   0.395  0.3192 -1.0584 -0.1650
 7354TIP3   OH243552   0.880   0.088  13.625  0.2234  0.3791  0.7461
 7354TIP3    H143553   0.787   0.113  13.631 -0.3904 -1.8254  1.1482
 7354TIP3    H243554   0.920   0.126  13.703 -0.7834 -0.3631  1.6386
 7355TIP3   OH243555   2.973   4.204  14.427 -0.7059  0.2858  0.6495
 7355TIP3    H143556   2.980   4.298  14.441  0.5743  0.8353 -2.6960
 7355TIP3    H243557   3.028   4.165  14.495 -1.6494  1.8655  2.3944
 7356TIP3   OH243558   1.394   3.274  11.437  0.0018  0.3477 -0.2580
 7356TIP3    H143559   1.400   3.193  11.488 -0.5754  0.6418  0.2929
 7356TIP3    H243560   1.483   3.290  11.407  0.4856  0.5069  1.1972
 7357TIP3   OH243561   3.629   3.654  17.009  0.4893 -0.8804 -0.0423
 7357TIP3    H143562   3.702   3.665  17.070  0.5729  1.5532 -0.5139
 7357TIP3    H243563   3.658   3.584  16.950  2.6863  0.3402 -0.5123
 7358TIP3   OH243564   2.739   0.285  15.916 -0.2966  0.1742  0.6546
 7358TIP3    H143565   2.695   0.336  15.984 -2.4978  0.3338 -0.7745
 7358TIP3    H243566   2.678   0.214  15.896  0.1301  0.3122 -1.3405
 7359TIP3   OH243567   6.587   0.013  12.700 -0.3222  0.8623  0.2125
 7359TIP3    H143568   6.592  -0.061  12.759  0.5990  0.4787 -0.3223
 7359TIP3    H243569   6.666   0.064  12.719 -0.7119  1.4608  0.2533
 7360TIP3   OH243570   2.400   2.220   1.417 -0.0466 -0.0669 -0.1301
 7360TIP3    H143571   2.414   2.267   1.335  0.2641  2.6620  1.3778
 7360TIP3    H243572   2.488   2.194   1.445 -0.1381 -0.8650 -0.5531
 7361TIP3   OH243573   1.770   0.022   2.757  0.2875 -0.0626  0.0969
 7361TIP3    H143574   1.808   0.108   2.739  0.6970 -0.4650 -1.0031
 7361TIP3    H243575   1.733   0.031   2.845 -0.0099  1.3524 -0.1439
 7362TIP3   OH243576   3.911   3.195  15.201 -0.1928  0.5582 -0.0235
 7362TIP3    H143577   3.879   3.154  15.120 -1.4253  1.0433  0.1950
 7362TIP3    H243578   3.886   3.134  15.270  1.9999 -0.4977 -0.0647
 7363TIP3   OH243579   5.967   5.472   4.047 -0.6755 -0.8078  0.7633
 7363TIP3    H143580   5.890   5.442   4.094  0.5548  0.5256  3.9254
 7363TIP3    H243581   5.948   5.563   4.024 -0.1187 -0.4890  1.5107
 7364TIP3   OH243582   5.280   4.226  14.302  0.3005 -0.1836  0.5129
 7364TIP3    H143583   5.210   4.291  14.299  1.7177  1.4405  1.0533
 7364TIP3    H243584   5.336   4.255  14.374  1.8056 -1.1271 -0.2406
 7365TIP3   OH243585   2.827   5.085   0.614 -0.3143 -0.2211 -0.2382
 7365TIP3    H143586   2.865   5.057   0.530  0.3308  0.9408 -0.3630
 7365TIP3    H243587   2.901   5.119   0.664 -1.1363  2.2436 -0.5469
 7366TIP3   OH243588   3.375   1.454   3.729  1.1284  0.4552 -0.4243
 7366TIP3    H143589   3.313   1.525   3.711  0.0783 -0.4013 -0.2836
 7366TIP3    H243590   3.334   1.376   3.691  3.8772  0.4397 -3.9229
 7367TIP3   OH243591   5.645   2.605   4.131 -0.6389  0.5041 -0.4141
 7367TIP3    H143592   5.610   2.691   4.156 -0.0450  0.6089  0.0775
 7367TIP3    H243593   5.739   2.620   4.119 -0.2664 -0.3886  1.1585
 7368TIP3   OH243594   3.669   0.392  12.444 -0.2741  0.0874  0.2770
 7368TIP3    H143595   3.649   0.373  12.352  1.0608  0.8310 -0.2133
 7368TIP3    H243596   3.630   0.478  12.459 -0.7265 -0.1554  0.4889
 7369TIP3   OH243597   2.412   5.442   4.452  0.5476  0.0103  0.0045
 7369TIP3    H143598   2.421   5.523   4.501 -0.9159  0.6241 -0.6812
 7369TIP3    H243599   2.319   5.436   4.432  0.8497 -1.0543 -1.2777
 7370TIP3   OH243600   3.183   2.547  15.986  0.0378 -0.2309  0.2413
 7370TIP3    H143601   3.202   2.461  16.025  0.3388 -0.1571  0.2574
 7370TIP3    H243602   3.243   2.554  15.912 -0.0628 -0.0787  0.1737
 7371TIP3   OH243603   3.343   2.303  15.327  0.1035  0.9651  0.2113
 7371TIP3    H143604   3.411   2.366  15.305 -0.1121  1.3655  0.6454
 7371TIP3    H243605   3.379   2.252  15.399  0.9728 -0.6253 -1.2938
 7372TIP3   OH243606   0.788   3.607   5.521 -0.1488  0.5700 -0.3363
 7372TIP3    H143607   0.805   3.607   5.615 -1.0066  2.3908 -0.1417
 7372TIP3    H243608   0.819   3.692   5.491  0.2848 -0.0655 -1.7436
 7373TIP3   OH243609   2.939   6.596   1.067 -0.0919  0.0920  0.3231
 7373TIP3    H143610   2.850   6.568   1.085  0.8048 -2.5797  1.2032
 7373TIP3    H243611   2.930   6.670   1.007 -2.8431 -1.4821 -1.4312
 7374TIP3   OH243612   3.153   2.844   4.568  0.3209 -0.6151  0.6492
 7374TIP3    H143613   3.133   2.795   4.488  1.1063 -4.2659  2.4843
 7374TIP3    H243614   3.080   2.826   4.627  0.4418  0.8375  1.2930
 7375TIP3   OH243615   4.601   2.281   1.580  0.2190 -0.1979 -0.3941
 7375TIP3    H143616   4.518   2.271   1.625  0.1796  0.5951 -0.2670
 7375TIP3    H243617   4.663   2.231   1.633  0.0660  0.2667  0.2341
 7376TIP3   OH243618   5.564   5.177   0.213  0.3800  0.4797 -0.0066
 7376TIP3    H143619   5.604   5.256   0.250  0.1829  0.5052  0.1534
 7376TIP3    H243620   5.542   5.200   0.123 -0.9998  1.0833  0.4618
 7377TIP3   OH243621   4.270   3.964   2.153 -0.2911  0.0524  0.4247
 7377TIP3    H143622   4.247   3.900   2.086  0.8090  0.6805 -0.5963
 7377TIP3    H243623   4.196   3.963   2.214 -0.1082 -2.4725  0.6991
 7378TIP3   OH243624   2.179   2.575   1.453 -0.0195  0.0093  0.0293
 7378TIP3    H143625   2.137   2.634   1.391  0.4200  0.3712  0.0670
 7378TIP3    H243626   2.245   2.529   1.401 -1.1462 -1.3428 -0.2797
 7379TIP3   OH243627   2.563   6.747  13.587 -0.1692  0.2579  0.3083
 7379TIP3    H143628   2.649   6.770  13.551  0.3114  0.3636  1.4826
 7379TIP3    H243629   2.581   6.723  13.678 -1.4638  0.9032  0.7562
 7380TIP3   OH243630   1.028   4.468  11.611 -0.1366 -0.0925  0.3370
 7380TIP3    H143631   0.973   4.399  11.648 -0.2573 -0.3686 -0.3494
 7380TIP3    H243632   1.101   4.423  11.570 -0.8784  0.0693 -1.2591
 7381TIP3   OH243633   1.615   4.008   1.638  0.2895 -0.2705  0.4726
 7381TIP3    H143634   1.552   4.016   1.567  0.7830  0.2218  0.0874
 7381TIP3    H243635   1.692   3.969   1.597  1.0780  1.2811  0.4182
 7382TIP3   OH243636   6.192   1.736  13.785  0.1316 -0.4241  0.5271
 7382TIP3    H143637   6.168   1.704  13.872  0.7711 -0.7178  0.6005
 7382TIP3    H243638   6.249   1.811  13.801  0.3588 -0.5609  0.3634
 7383TIP3   OH243639   1.290   6.805  13.529 -0.3704  0.2315  0.2711
 7383TIP3    H143640   1.335   6.828  13.448 -0.3732  2.0556  0.7606
 7383TIP3    H243641   1.360   6.774  13.587 -0.1681  0.2638  0.0454
 7384TIP3   OH243642   5.082   4.938  13.647  0.3324  0.1337  0.3042
 7384TIP3    H143643   5.048   4.907  13.563 -0.1232 -0.4906  0.7073
 7384TIP3    H243644   5.097   4.858  13.697 -0.9343  0.5389  1.3984
 7385TIP3   OH243645   5.270   4.966  13.237  0.0314  0.2965 -0.7231
 7385TIP3    H143646   5.336   4.925  13.293 -0.4537  0.3467 -0.1060
 7385TIP3    H243647   5.302   4.952  13.148 -0.3906 -1.9238 -0.5807
 7386TIP3   OH243648   2.893   4.088  12.761 -0.1252  1.0621  0.1401
 7386TIP3    H143649   2.819   4.140  12.791 -0.5144  1.1976 -1.0137
 7386TIP3    H243650   2.856   4.028  12.696 -0.0641 -1.9581  2.6375
 7387TIP3   OH243651   1.464   2.040   2.482 -0.4059 -0.2513  0.5403
 7387TIP3    H143652   1.484   2.052   2.575 -0.2140  0.5435  0.3983
 7387TIP3    H243653   1.538   2.081   2.436 -0.5768 -0.5042  0.0347
 7388TIP3   OH243654   5.950   1.870  14.581 -0.2597  0.4346 -0.6978
 7388TIP3    H143655   5.969   1.787  14.538 -1.7708  0.2646 -1.1029
 7388TIP3    H243656   6.036   1.910  14.595  0.5490 -1.4464  0.0686
 7389TIP3   OH243657   2.876   6.592  13.967  0.2386 -0.1916  0.2423
 7389TIP3    H143658   2.787   6.570  13.995  0.1709  2.4061  2.4095
 7389TIP3    H243659   2.901   6.519  13.909 -2.7924 -1.6269  0.5312
 7390TIP3   OH243660   4.214   3.912  17.020  0.0524  0.6269  0.1378
 7390TIP3    H143661   4.191   3.887  17.110  1.0088 -1.4213 -0.1387
 7390TIP3    H243662   4.135   3.894  16.970 -0.3995  1.5271  0.5049
 7391TIP3   OH243663   6.371   2.423  14.168  0.2726  0.1230  0.5884
 7391TIP3    H143664   6.279   2.439  14.189 -0.1051 -0.4395 -0.5815
 7391TIP3    H243665   6.418   2.447  14.248 -0.6701  2.5236  0.5276
 7392TIP3   OH243666   0.348   3.661   0.143  0.6156  0.4383  0.2032
 7392TIP3    H143667   0.322   3.750   0.120 -0.7819 -0.1951 -0.7996
 7392TIP3    H243668   0.292   3.605   0.090  0.7039 -1.0648  1.6190
 7393TIP3   OH243669   1.786   3.276  12.500 -0.2753 -0.0843 -0.5490
 7393TIP3    H143670   1.804   3.274  12.594 -0.9366 -1.0165 -0.4321
 7393TIP3    H243671   1.826   3.196  12.467 -0.8592 -0.2329 -0.9075
 7394TIP3   OH243672   2.380   3.882  13.021 -0.1340 -0.8309 -0.0572
 7394TIP3    H143673   2.305   3.822  13.022 -0.7622 -0.0483  0.2430
 7394TIP3    H243674   2.420   3.870  13.107 -0.2003 -0.8880 -0.0331
 7395TIP3   OH243675   3.600   2.756   3.006  0.6490  0.0319 -0.0370
 7395TIP3    H143676   3.580   2.733   2.915 -0.6376 -0.0560  0.2401
 7395TIP3    H243677   3.525   2.722   3.056  0.7568  1.1194  0.9054
 7396TIP3   OH243678   2.182   3.866  13.427  0.4687 -0.2359 -0.2735
 7396TIP3    H143679   2.107   3.815  13.459  0.0903 -0.6127 -1.6558
 7396TIP3    H243680   2.251   3.801  13.415  0.4189 -0.2112 -0.7371
 7397TIP3   OH243681   3.884   0.103  13.957 -0.3225  0.7000  0.7454
 7397TIP3    H143682   3.814   0.070  14.013 -0.3840  1.1652  0.9455
 7397TIP3    H243683   3.839   0.131  13.877 -0.1015 -1.1405 -0.0960
 7398TIP3   OH243684   0.107   2.820  16.639 -0.1514  0.3965  0.0166
 7398TIP3    H143685   0.149   2.770  16.570 -0.6327  1.9303 -1.4655
 7398TIP3    H243686   0.023   2.775  16.654 -1.0425  1.2599 -2.0232
 7399TIP3   OH243687   1.866   3.712  16.254 -0.0882  0.1410  0.2290
 7399TIP3    H143688   1.846   3.714  16.348  1.2692  0.2356  0.5436
 7399TIP3    H243689   1.958   3.739  16.249 -0.1237  0.0743 -1.1300
 7400TIP3   OH243690   6.766   1.574   2.006 -0.5513  0.6209  0.0950
 7400TIP3    H143691   6.709   1.617   1.941 -0.6966  1.6616  0.8824
 7400TIP3    H243692   6.728   1.598   2.091 -0.3589 -0.7062  0.5856
 7401TIP3   OH243693   0.259   0.871  15.154  0.1688  0.0156 -0.1808
 7401TIP3    H143694   0.262   0.957  15.196 -1.8051  0.3591 -0.6456
 7401TIP3    H243695   0.171   0.840  15.170  0.4616 -1.3712 -1.1280
 7402TIP3   OH243696   0.437   6.836  14.652  0.0074 -0.1573  0.6593
 7402TIP3    H143697   0.431   6.764  14.714  1.2495 -0.5509  0.3640
 7402TIP3    H243698   0.363   6.892  14.672 -2.9346 -3.0523 -1.1466
 7403TIP3   OH243699   1.106   0.630  13.893  0.2694 -0.0822  0.3661
 7403TIP3    H143700   1.041   0.560  13.903 -0.3538  0.3700 -0.4130
 7403TIP3    H243701   1.151   0.609  13.811  0.8667 -0.1886  0.7149
 7404TIP3   OH243702   3.294   5.872   2.555  0.2476  0.3549  0.1225
 7404TIP3    H143703   3.220   5.927   2.582  0.0962  0.7048 -0.9318
 7404TIP3    H243704   3.303   5.889   2.461  0.8398 -0.6802 -0.0248
 7405TIP3   OH243705   3.106   6.734  11.924 -0.8378 -0.5684 -0.4422
 7405TIP3    H143706   3.067   6.679  11.856  1.2585 -1.0823 -1.3160
 7405TIP3    H243707   3.200   6.724  11.912 -0.3645  2.3935  0.0726
 7406TIP3   OH243708   2.047   2.037   2.967  0.6855 -0.1314 -0.4203
 7406TIP3    H143709   2.051   1.947   2.935  0.7373  0.2628 -1.5758
 7406TIP3    H243710   2.126   2.078   2.931 -0.6383  1.0634 -2.1665
 7407TIP3   OH243711   6.202   6.686  15.318 -0.0492 -0.2612 -0.1318
 7407TIP3    H143712   6.231   6.615  15.261  2.0590 -0.6474  1.3001
 7407TIP3    H243713   6.231   6.766  15.276  2.5991 -0.5999  0.8599
 7408TIP3   OH243714   6.664   3.134  12.660  0.2209 -0.2434  0.3042
 7408TIP3    H143715   6.593   3.074  12.634  0.7505  0.0603 -2.0620
 7408TIP3    H243716   6.621   3.219  12.667  0.0346 -0.3649  0.7426
 7409TIP3   OH243717   3.303   2.152   5.256 -0.0807 -0.4749  0.4202
 7409TIP3    H143718   3.383   2.197   5.230 -0.2157 -1.4368 -1.8475
 7409TIP3    H243719   3.251   2.219   5.301  0.8994  0.8676 -0.3986
 7410TIP3   OH243720   6.759   1.024  14.534 -0.1496 -0.1350 -0.1762
 7410TIP3    H143721   6.749   1.071  14.617  1.1050 -0.7793  0.3514
 7410TIP3    H243722   6.746   0.932  14.556  2.2890 -0.5553 -0.2546
 7411TIP3   OH243723   3.011   4.192   2.977 -0.5284  0.2464 -0.0394
 7411TIP3    H143724   3.073   4.177   2.905 -0.1720 -0.5087  0.4102
 7411TIP3    H243725   2.939   4.131   2.960 -0.0440 -0.5492  0.6874
 7412TIP3   OH243726   0.339   6.783   3.341 -0.3656 -0.4797 -0.3063
 7412TIP3    H143727   0.322   6.691   3.361 -0.2007 -0.7694 -1.4479
 7412TIP3    H243728   0.401   6.811   3.409 -0.6205 -1.1255  0.2063
 7413TIP3   OH243729   2.288   5.332   1.590 -0.4099 -0.3340 -0.1255
 7413TIP3    H143730   2.326   5.400   1.646 -1.0781  0.2150 -0.3261
 7413TIP3    H243731   2.207   5.308   1.634 -1.0375  0.2396 -0.9494
 7414TIP3   OH243732   5.662   3.283   3.585 -0.4563 -0.0686  0.2794
 7414TIP3    H143733   5.646   3.297   3.492 -2.1142  0.5930  0.6181
 7414TIP3    H243734   5.666   3.371   3.622 -0.1680 -0.3317  0.8871
 7415TIP3   OH243735   6.266   2.153  16.124 -0.4078  0.1406  0.8024
 7415TIP3    H143736   6.287   2.139  16.032  1.2542  0.7711  1.0603
 7415TIP3    H243737   6.265   2.248  16.134 -0.5063  0.0734  1.4533
 7416TIP3   OH243738   2.833   3.091  14.561 -0.0793  0.1525  0.3292
 7416TIP3    H143739   2.826   3.184  14.581 -0.4038  0.5635 -1.4760
 7416TIP3    H243740   2.886   3.055  14.632  0.4168  1.7834  0.8374
 7417TIP3   OH243741   2.943   2.226   5.183  0.1618 -0.0666 -0.7667
 7417TIP3    H143742   2.913   2.317   5.177 -0.0907 -0.2195 -2.0697
 7417TIP3    H243743   3.004   2.226   5.257  0.4923  1.2581 -1.0099
 7418TIP3   OH243744   1.318   2.766  13.084 -0.1090  0.4607  0.3528
 7418TIP3    H143745   1.261   2.708  13.134  0.0623  1.1233  1.3680
 7418TIP3    H243746   1.261   2.837  13.056 -0.1265  0.2768 -0.0765
 7419TIP3   OH243747   3.999   2.732  15.373  0.2941  0.3696  0.1430
 7419TIP3    H143748   4.070   2.672  15.354 -0.0598  0.0754 -0.2835
 7419TIP3    H243749   3.924   2.676  15.391 -0.2022  0.6678 -0.8931
 7420TIP3   OH243750   1.455   1.774   2.469 -0.6134  0.1205  0.3014
 7420TIP3    H143751   1.382   1.818   2.513 -0.5988  0.1843  0.2603
 7420TIP3    H243752   1.515   1.844   2.445  0.2491 -0.0771  1.7740
 7421TIP3   OH243753   6.792   5.407  16.197 -0.1098 -0.2033 -0.0413
 7421TIP3    H143754   6.820   5.360  16.275 -1.7878 -0.0309  0.7148
 7421TIP3    H243755   6.830   5.358  16.124  1.0910 -0.6451  0.8489
 7422TIP3   OH243756   6.589   2.502  16.907  0.5089 -0.1543 -0.1981
 7422TIP3    H143757   6.571   2.487  16.814 -1.0057 -0.3091  0.0932
 7422TIP3    H243758   6.510   2.547  16.939  0.8175 -0.5188  1.1122
 7423TIP3   OH243759   5.106   1.655   2.886  0.0793  0.0463 -0.2431
 7423TIP3    H143760   5.108   1.629   2.978 -0.7238 -0.9181 -0.4792
 7423TIP3    H243761   5.064   1.741   2.886  2.9911  1.5787  0.5834
 7424TIP3   OH243762   3.636   6.344   0.475 -0.2620  0.0297 -0.0283
 7424TIP3    H143763   3.595   6.429   0.460  1.0811  0.5614 -0.9365
 7424TIP3    H243764   3.645   6.337   0.570 -1.6604  0.2506  0.1403
 7425TIP3   OH243765   6.621   3.586  14.325  0.2222  0.2121 -0.7668
 7425TIP3    H143766   6.565   3.663  14.339 -1.0457 -0.5344 -1.5228
 7425TIP3    H243767   6.578   3.516  14.374  1.6489  0.0532  0.3481
 7426TIP3   OH243768   3.979   5.729  12.600 -0.2953 -0.1787  0.3496
 7426TIP3    H143769   4.001   5.720  12.508  0.2491 -0.4381  0.5002
 7426TIP3    H243770   3.885   5.750  12.601 -0.0786  0.9078 -0.3044
 7427TIP3   OH243771   5.748   1.522   4.458 -0.2748 -0.0861  0.5716
 7427TIP3    H143772   5.740   1.436   4.417  2.8455  0.2428 -1.0618
 7427TIP3    H243773   5.843   1.533   4.471 -0.4311  3.5150 -0.3071
 7428TIP3   OH243774   0.904   3.313   1.836  0.1419  0.7342 -0.1717
 7428TIP3    H143775   0.955   3.266   1.902 -2.6662 -3.4973 -0.5946
 7428TIP3    H243776   0.950   3.297   1.754 -1.7933 -3.8831 -0.7086
 7429TIP3   OH243777   1.939   0.067  12.681  0.3483  0.0164 -0.2099
 7429TIP3    H143778   1.919   0.146  12.732  0.0315  1.2204 -2.1070
 7429TIP3    H243779   1.904   0.086  12.594  1.8192 -1.5264 -1.1736
 7430TIP3   OH243780   2.108   2.628  15.305  0.2313 -0.5020 -0.0686
 7430TIP3    H143781   2.169   2.682  15.354  0.5176 -0.7202 -0.1798
 7430TIP3    H243782   2.073   2.566  15.369  1.2939 -1.3901 -0.3120
 7431TIP3   OH243783   1.986   3.303  11.914 -0.4419 -0.7375  0.0054
 7431TIP3    H143784   1.906   3.330  11.959  0.5453 -2.0632  2.7908
 7431TIP3    H243785   2.009   3.220  11.954  2.2725 -0.4653 -0.7899
 7432TIP3   OH243786   3.800   0.393  15.437 -0.1737  0.6047  0.1681
 7432TIP3    H143787   3.790   0.404  15.342 -0.4268 -1.2750 -0.0526
 7432TIP3    H243788   3.826   0.302  15.448 -1.1528  0.5072  1.9817
 7433TIP3   OH243789   4.617   3.333  14.623 -0.0806  0.0314  0.3413
 7433TIP3    H143790   4.623   3.428  14.639 -0.8574 -0.1110  1.6793
 7433TIP3    H243791   4.639   3.322  14.531 -1.2546  1.6580 -0.1678
 7434TIP3   OH243792   0.222   2.947  15.956 -0.4099  0.1076  0.0219
 7434TIP3    H143793   0.180   2.968  15.873  0.0797 -0.8546 -0.4847
 7434TIP3    H243794   0.203   2.854  15.969  0.3239  0.0235  0.5159
 7435TIP3   OH243795   4.783   1.648  11.937 -0.5716 -0.0738 -0.0913
 7435TIP3    H143796   4.699   1.605  11.955 -0.7895  0.3012 -0.1858
 7435TIP3    H243797   4.789   1.716  12.004 -0.5770  0.2214 -0.3887
 7436TIP3   OH243798   6.650   4.156  15.313 -0.2618  0.3353 -0.1548
 7436TIP3    H143799   6.698   4.074  15.306  0.6578  0.8872 -0.4814
 7436TIP3    H243800   6.712   4.217  15.354 -0.6485  1.0771 -0.6512
 7437TIP3   OH243801   3.915   5.547   4.125 -0.1218 -0.1772  0.3773
 7437TIP3    H143802   3.846   5.481   4.118  0.7280 -0.9921 -0.9674
 7437TIP3    H243803   3.946   5.558   4.035  1.6142  0.0359  0.9608
 7438TIP3   OH243804   5.393   3.275  14.770  0.5120 -0.0515 -0.2202
 7438TIP3    H143805   5.365   3.186  14.790  3.1465 -0.7142  0.9842
 7438TIP3    H243806   5.341   3.300  14.694 -2.9684 -1.1446  1.5998
 7439TIP3   OH243807   3.347   4.426   1.378  0.1139 -0.3677  0.4734
 7439TIP3    H143808   3.442   4.423   1.391  0.0563  0.2093  1.0911
 7439TIP3    H243809   3.335   4.409   1.285  0.7131 -2.1532  0.6654
 7440TIP3   OH243810   1.168   2.567  12.320  0.4719 -0.0916  0.4642
 7440TIP3    H143811   1.177   2.617  12.239 -1.7560  0.5809  0.5458
 7440TIP3    H243812   1.142   2.480  12.292 -0.0925  0.0833  0.4272
 7441TIP3   OH243813   6.031   2.661   5.240  0.3733  0.0456 -0.5223
 7441TIP3    H143814   5.996   2.592   5.297  0.8105 -0.0492 -0.3575
 7441TIP3    H243815   5.957   2.690   5.188  0.0426 -0.1127 -0.1449
 7442TIP3   OH243816   6.254   6.131  13.980  0.4565  0.0121 -0.2564
 7442TIP3    H143817   6.269   6.211  14.030  1.8993  1.6800 -3.1108
 7442TIP3    H243818   6.214   6.070  14.042 -0.1753  2.7419  2.1745
 7443TIP3   OH243819   1.816   5.438  12.044  0.5302 -0.1738 -0.3356
 7443TIP3    H143820   1.788   5.392  11.965 -0.7641  0.3927 -0.2343
 7443TIP3    H243821   1.858   5.371  12.097  2.4139 -0.3489 -1.9357
 7444TIP3   OH243822   1.235   4.440   6.148  0.2687  0.4459 -0.5865
 7444TIP3    H143823   1.262   4.475   6.233  0.9362  1.7036 -1.2918
 7444TIP3    H243824   1.235   4.345   6.161  0.0039  0.6155  0.9145
 7445TIP3   OH243825   4.548   6.602   6.266 -0.4706  0.1204  0.0633
 7445TIP3    H143826   4.491   6.661   6.217  0.1379  0.0235 -0.7684
 7445TIP3    H243827   4.526   6.619   6.358 -2.2934 -0.3710 -0.2417
 7446TIP3   OH243828   5.984   1.263   5.702  0.3853  0.5008 -0.5539
 7446TIP3    H143829   5.967   1.210   5.624 -0.1718 -0.1506 -0.0029
 7446TIP3    H243830   5.905   1.254   5.755  0.7170  1.0191  0.0482
 7447TIP3   OH243831   0.586   2.301   0.180 -0.3646  0.7919 -0.3710
 7447TIP3    H143832   0.506   2.251   0.193 -0.3778  0.6825 -0.8386
 7447TIP3    H243833   0.603   2.343   0.264  1.1197 -2.1207  0.9003
 7448TIP3   OH243834   2.578   3.979  12.315  1.0456 -0.3635 -0.1538
 7448TIP3    H143835   2.641   4.015  12.252  0.8552 -0.4703 -0.4105
 7448TIP3    H243836   2.518   4.051  12.334  0.5564 -0.5796 -0.8058
 7449TIP3   OH243837   1.076   2.989  14.142  0.1242  0.6504 -0.2120
 7449TIP3    H143838   1.053   3.067  14.091  1.1099  0.5263 -0.8739
 7449TIP3    H243839   1.171   2.981  14.133  0.0250 -0.7492 -0.3490
 7450TIP3   OH243840   0.112   0.019  16.678  0.0159 -0.1490 -0.3439
 7450TIP3    H143841   0.086  -0.012  16.765  0.4464 -0.7954 -0.4358
 7450TIP3    H243842   0.037   0.069  16.647  0.2570  1.0217  0.8460
 7451TIP3   OH243843   6.557   0.843  11.896  0.5628  0.0298  0.1436
 7451TIP3    H143844   6.523   0.917  11.845 -0.7826 -0.1309  0.7697
 7451TIP3    H243845   6.651   0.860  11.902  0.7055  0.2860 -1.9864
 7452TIP3   OH243846   5.025   3.469   1.651 -0.0646  0.3347  0.3390
 7452TIP3    H143847   5.083   3.481   1.726  0.5443  0.9410 -0.2149
 7452TIP3    H243848   4.939   3.453   1.690  0.4138 -0.3132  1.1708
 7453TIP3   OH243849   4.469   2.060  14.845 -0.5690 -0.0037  0.2229
 7453TIP3    H143850   4.486   1.969  14.821  1.5702  0.2611  0.5464
 7453TIP3    H243851   4.466   2.107  14.761  0.0487 -0.1163  0.1358
 7454TIP3   OH243852   4.391   6.417   0.571 -0.3851  0.4639  0.8210
 7454TIP3    H143853   4.369   6.335   0.616  0.1300 -0.7531 -1.0513
 7454TIP3    H243854   4.445   6.391   0.497 -1.0622  2.3994 -0.4372
 7455TIP3   OH243855   3.444   0.897  11.164 -0.3595 -0.0014 -0.2256
 7455TIP3    H143856   3.448   0.990  11.141 -0.0086  0.7935  2.6082
 7455TIP3    H243857   3.372   0.862  11.111 -1.7496  2.3497 -0.0261
 7456TIP3   OH243858   2.183   5.853   0.660  0.0415  0.0748  0.3178
 7456TIP3    H143859   2.185   5.850   0.756  1.5724 -1.1095  0.2821
 7456TIP3    H243860   2.120   5.923   0.640 -2.8161 -1.7677  2.1251
 7457TIP3   OH243861   5.997   3.614   0.150 -0.0884 -0.8018  0.6980
 7457TIP3    H143862   5.977   3.567   0.069  0.1334  0.8337 -0.3682
 7457TIP3    H243863   6.086   3.649   0.136 -1.6350  3.3205 -0.4157
 7458TIP3   OH243864   4.010   2.718  11.595  0.1941 -0.2059 -0.2914
 7458TIP3    H143865   4.026   2.781  11.665 -0.5763 -2.3638  1.9783
 7458TIP3    H243866   4.092   2.669  11.587  0.2425 -0.0431 -0.8527
 7459TIP3   OH243867   3.861   2.069   0.823 -0.7099  0.1183 -0.2573
 7459TIP3    H143868   3.847   2.164   0.814  0.8859  0.4761  0.6208
 7459TIP3    H243869   3.925   2.061   0.894  1.3760 -1.4237 -2.1556
 7460TIP3   OH243870   2.046   5.495   1.149  0.6402  0.2419  0.4577
 7460TIP3    H143871   2.069   5.438   1.075  2.3288  2.7120 -1.0839
 7460TIP3    H243872   2.097   5.460   1.222 -0.0494 -1.4849  0.1575
 7461TIP3   OH243873   2.323   0.867   4.604 -0.0271  0.0178 -0.1526
 7461TIP3    H143874   2.316   0.960   4.585 -1.8860 -0.1752 -0.5503
 7461TIP3    H243875   2.370   0.863   4.688 -1.2234  1.4018  0.6365
 7462TIP3   OH243876   3.681   5.344  14.776  0.3012  0.3727 -0.0225
 7462TIP3    H143877   3.724   5.424  14.805 -1.8455  0.6534  2.8477
 7462TIP3    H243878   3.659   5.297  14.857 -0.2032 -2.2104 -1.5335
 7463TIP3   OH243879   0.026   6.630   1.760 -0.1163  1.0727 -0.0733
 7463TIP3    H143880  -0.010   6.680   1.686  0.5459 -0.3045 -1.3676
 7463TIP3    H243881  -0.032   6.555   1.769 -0.2972  1.3250  0.9471
 7464TIP3   OH243882   0.785   6.083   1.042  0.3268 -0.4402  0.3564
 7464TIP3    H143883   0.836   6.003   1.051 -1.5464 -1.8304 -0.7753
 7464TIP3    H243884   0.694   6.054   1.043 -0.4007  1.6046 -0.7829
 7465TIP3   OH243885   4.136   5.161   4.574 -0.1794 -0.1107 -0.7951
 7465TIP3    H143886   4.194   5.198   4.507 -1.3746  1.1592 -1.1838
 7465TIP3    H243887   4.161   5.069   4.580  0.7397  0.0285 -2.1405
 7466TIP3   OH243888   1.153   4.303   2.609 -0.0682 -0.5387  0.1744
 7466TIP3    H143889   1.069   4.343   2.632  0.4372  0.4555  0.3230
 7466TIP3    H243890   1.132   4.210   2.597 -0.8829 -0.6202  1.8712
 7467TIP3   OH243891   3.834   1.810   3.029  0.1339 -0.0701 -0.2453
 7467TIP3    H143892   3.745   1.841   3.014  0.2183  2.1187  2.7239
 7467TIP3    H243893   3.886   1.890   3.040  1.8442 -1.2696  1.0393
 7468TIP3   OH243894   5.319   6.023  12.942 -0.3189  0.0281 -0.3847
 7468TIP3    H143895   5.267   5.947  12.966 -0.5401  0.4570  0.5600
 7468TIP3    H243896   5.255   6.093  12.931  0.0676  0.6441  1.1206
 7469TIP3   OH243897   6.288   2.796  12.917 -0.5215  0.1152  0.5397
 7469TIP3    H143898   6.356   2.729  12.905 -1.2861 -0.2021 -4.1467
 7469TIP3    H243899   6.215   2.765  12.864 -1.7615  3.5664 -0.0000
 7470TIP3   OH243900   4.270   2.578  11.379 -0.3299  0.3596  0.5131
 7470TIP3    H143901   4.351   2.526  11.377 -1.2130 -1.0638 -1.4904
 7470TIP3    H243902   4.201   2.514  11.396 -1.5445  0.6311 -2.7394
 7471TIP3   OH243903   4.774   2.043   2.730 -0.1830 -0.3422 -0.0289
 7471TIP3    H143904   4.854   1.996   2.752  0.7723  1.1529 -0.1316
 7471TIP3    H243905   4.705   1.977   2.732  0.6758 -1.2628  2.2855
 7472TIP3   OH243906   3.322   3.887  15.582 -0.2990 -0.1732 -0.0564
 7472TIP3    H143907   3.289   3.814  15.530 -0.0533  0.0954 -0.5987
 7472TIP3    H243908   3.324   3.961  15.521  1.2705 -0.1657 -0.0346
 7473TIP3   OH243909   6.144   4.116  16.283 -0.4976  0.1666 -0.2674
 7473TIP3    H143910   6.143   4.212  16.279  1.8215  0.3636  1.7841
 7473TIP3    H243911   6.060   4.090  16.244 -0.2970  2.8896 -2.8957
 7474TIP3   OH243912   6.780   4.220  14.375  0.2644 -0.0463  0.0050
 7474TIP3    H143913   6.842   4.249  14.308 -0.8595  0.4367 -0.8719
 7474TIP3    H243914   6.708   4.283  14.369 -0.4116 -0.7132  0.8390
 7475TIP3   OH243915   0.646   0.843   2.431  0.0623  0.4517  0.6996
 7475TIP3    H143916   0.643   0.896   2.352  0.2000 -0.8722 -0.2236
 7475TIP3    H243917   0.739   0.840   2.455  0.3899 -1.1608 -0.5511
 7476TIP3   OH243918   3.827   0.095   0.059  0.2117 -0.0767  0.7161
 7476TIP3    H143919   3.761   0.163   0.074 -0.8085 -0.1681 -2.5342
 7476TIP3    H243920   3.910   0.141   0.060 -0.3092  0.8947  0.4133
 7477TIP3   OH243921   6.675   5.015   0.056  0.0293  0.2819  0.6328
 7477TIP3    H143922   6.689   5.069   0.134 -0.8329 -1.3215  1.9693
 7477TIP3    H243923   6.580   5.020   0.041  0.3400  1.7463 -1.2638
 7478TIP3   OH243924   6.033   1.573  10.398 -0.4144 -0.0028 -0.4860
 7478TIP3    H143925   6.031   1.486  10.359  2.1023 -1.0932  1.4818
 7478TIP3    H243926   6.112   1.614  10.361  0.8694 -0.2971  1.7383
 7479TIP3   OH243927   6.411   4.698   3.588 -0.4775 -0.3328  0.9743
 7479TIP3    H143928   6.492   4.722   3.633 -0.2750  0.4227  0.2192
 7479TIP3    H243929   6.350   4.677   3.659 -0.0947  0.6152  1.6108
 7480TIP3   OH243930   0.064   3.291   1.397  0.5261 -0.3840  0.0757
 7480TIP3    H143931   0.050   3.200   1.424 -0.9769 -0.6959 -1.5341
 7480TIP3    H243932   0.020   3.343   1.464 -0.2801 -0.9609  0.0088
 7481TIP3   OH243933   1.558   2.642  11.937  0.1707 -0.1970  0.1361
 7481TIP3    H143934   1.542   2.669  12.027 -1.2857  0.6104 -0.3239
 7481TIP3    H243935   1.478   2.597  11.911  1.1113 -1.6738 -0.3364
 7482TIP3   OH243936   5.359   0.837   2.724  0.1526  0.1610  0.3620
 7482TIP3    H143937   5.349   0.742   2.735  1.3902  0.1333  1.5398
 7482TIP3    H243938   5.426   0.861   2.788  0.1058  1.7842 -0.1655
 7483TIP3   OH243939   5.593   4.111   1.920  0.0291 -0.7061  0.4249
 7483TIP3    H143940   5.609   4.033   1.973  0.8000  0.1574  1.5323
 7483TIP3    H243941   5.611   4.085   1.830 -0.3281 -1.9556  0.7053
 7484TIP3   OH243942   4.721   4.282   1.192  0.2120  0.4332  0.7202
 7484TIP3    H143943   4.704   4.254   1.282  1.3229  0.3593  0.9204
 7484TIP3    H243944   4.814   4.303   1.191  0.4489 -0.5549 -0.6661
 7485TIP3   OH243945   6.471   0.694  14.333 -0.2521  0.1476  0.0562
 7485TIP3    H143946   6.418   0.771  14.351  1.9105  1.6166  0.4926
 7485TIP3    H243947   6.447   0.631  14.400 -1.1103  0.9409  0.5051
 7486TIP3   OH243948   2.562   5.464  13.267 -0.6723 -0.0054  0.6816
 7486TIP3    H143949   2.619   5.534  13.236 -0.4353  0.0576  1.2375
 7486TIP3    H243950   2.616   5.385  13.263 -1.2860 -0.3777 -1.0116
 7487TIP3   OH243951   3.825   5.827  11.503 -0.5600  0.0454 -0.1075
 7487TIP3    H143952   3.849   5.739  11.533  2.3223  0.6990 -0.1069
 7487TIP3    H243953   3.743   5.816  11.456 -1.8506 -2.1200  2.3781
 7488TIP3   OH243954   1.392   3.308   0.625  0.7604 -0.0536  0.2353
 7488TIP3    H143955   1.485   3.329   0.617  0.4666  0.7345 -1.8845
 7488TIP3    H243956   1.382   3.225   0.579  0.5082 -0.4256  0.9586
 7489TIP3   OH243957   4.091   5.778  15.196 -0.4138 -0.3765 -0.4050
 7489TIP3    H143958   4.097   5.767  15.291 -2.0561 -2.1367 -0.4641
 7489TIP3    H243959   4.171   5.826  15.173  0.8287 -1.3071  1.6527
 7490TIP3   OH243960   5.587   2.364   2.718 -0.4445 -0.0654 -0.1042
 7490TIP3    H143961   5.570   2.376   2.624  0.2603  0.2467 -0.1952
 7490TIP3    H243962   5.577   2.451   2.756  0.1372 -0.0276 -0.0311
 7491TIP3   OH243963   6.208   0.592   2.438  0.9236  0.0693  0.4345
 7491TIP3    H143964   6.127   0.570   2.484  0.7962  0.4880  0.4131
 7491TIP3    H243965   6.234   0.511   2.395  1.2880 -0.4503  1.6036
 7492TIP3   OH243966   2.899   5.968  16.657 -0.1471 -0.1895 -0.4724
 7492TIP3    H143967   2.952   6.045  16.677 -0.7005  0.3086 -0.8726
 7492TIP3    H243968   2.962   5.897  16.645  0.2699 -0.4925  2.7495
 7493TIP3   OH243969   1.668   0.792   1.354  0.0032 -0.5480 -0.7443
 7493TIP3    H143970   1.718   0.835   1.284  1.9039 -0.2406  0.7191
 7493TIP3    H243971   1.723   0.719   1.381  0.3811  0.5977  1.8441
 7494TIP3   OH243972   4.240   4.898   3.335 -0.2322  0.3550 -0.2926
 7494TIP3    H143973   4.324   4.893   3.381 -0.7843  2.6511  1.1188
 7494TIP3    H243974   4.249   4.974   3.278 -1.6508  1.2740  0.6448
 7495TIP3   OH243975   3.277   4.005  14.053  0.2353 -0.9612 -0.2064
 7495TIP3    H143976   3.246   4.087  14.092  0.5076 -1.0922  0.2957
 7495TIP3    H243977   3.207   3.942  14.070  0.5549 -1.1350  0.4943
 7496TIP3   OH243978   2.173   1.508  13.493 -0.1817 -0.3603  0.7603
 7496TIP3    H143979   2.129   1.428  13.524 -0.1025 -0.4588  0.6144
 7496TIP3    H243980   2.173   1.565  13.570 -0.6282 -0.3340  0.7443
 7497TIP3   OH243981   6.489   5.808  14.021  0.2913  0.2582  0.4437
 7497TIP3    H143982   6.541   5.738  13.982 -0.3667 -0.2786  0.5227
 7497TIP3    H243983   6.548   5.848  14.086  0.9462  0.3213 -0.1732
 7498TIP3   OH243984   0.087   4.285   1.418 -0.3083 -0.1913 -0.3342
 7498TIP3    H143985   0.096   4.197   1.380  3.4878 -1.3726  2.6157
 7498TIP3    H243986   0.049   4.270   1.504  0.9466  0.9217  0.4501
 7499TIP3   OH243987   6.787   1.648  14.472  0.8952  0.4700 -0.5251
 7499TIP3    H143988   6.737   1.707  14.529 -0.1487 -0.5537 -0.3616
 7499TIP3    H243989   6.860   1.619  14.526 -0.0307 -0.4154  0.2835
 7500TIP3   OH243990   4.680   3.084  16.522 -0.0849  0.3757  0.5790
 7500TIP3    H143991   4.615   3.017  16.544 -0.1157 -0.1313 -0.9410
 7500TIP3    H243992   4.648   3.163  16.566 -0.9390 -0.2097  1.0406
 7501TIP3   OH243993   0.770   2.972  15.691 -0.2161 -0.4379 -0.2288
 7501TIP3    H143994   0.730   2.966  15.604  2.1745  1.0296 -1.5273
 7501TIP3    H243995   0.834   3.042  15.683 -0.0439 -0.1173  2.8222
 7502TIP3   OH243996   4.188   2.213  10.522  0.1512 -0.4933  0.0946
 7502TIP3    H143997   4.258   2.169  10.569 -1.2801 -2.2036  0.7398
 7502TIP3    H243998   4.194   2.181  10.433  1.0333  0.4773 -0.2203
 7503TIP3   OH243999   3.308   3.485   0.071 -0.1802 -0.0510  0.0106
 7503TIP3    H144000   3.301   3.475  -0.024 -0.1602 -0.4060  0.0471
 7503TIP3    H244001   3.265   3.569   0.089  0.4349  0.3632 -0.3932
 7504TIP3   OH244002   6.457   1.289  14.188  0.7998 -0.7026  0.6738
 7504TIP3    H144003   6.513   1.327  14.121 -0.1316  2.0569  1.3289
 7504TIP3    H244004   6.517   1.241  14.245  2.2391  0.5770  0.2862
 7505TIP3   OH244005   1.194   2.434   3.582  0.2185  0.3357 -0.1092
 7505TIP3    H144006   1.251   2.374   3.534 -0.9314 -0.5079 -0.4444
 7505TIP3    H244007   1.193   2.514   3.529  3.7090  1.6938  1.5300
 7506TIP3   OH244008   1.189   4.948  15.865  0.1433  0.3979  0.0910
 7506TIP3    H144009   1.273   4.920  15.900  0.2783 -0.4376 -0.8863
 7506TIP3    H244010   1.170   5.030  15.912  2.2457  1.4589 -0.7994
 7507TIP3   OH244011   5.848   2.565  16.886  0.0689  0.5954  0.0220
 7507TIP3    H144012   5.880   2.578  16.975  2.8710  0.0033 -0.7969
 7507TIP3    H244013   5.885   2.481  16.859  1.9232  2.1459 -2.7159
 7508TIP3   OH244014   0.376   4.980  14.392  0.1147  0.5963 -0.3764
 7508TIP3    H144015   0.342   4.893  14.374  0.4110  0.2879  0.5199
 7508TIP3    H244016   0.437   4.998  14.320 -0.6258  0.4500 -1.0536
 7509TIP3   OH244017   2.642   6.460  16.236  0.2147  0.0328  0.0729
 7509TIP3    H144018   2.702   6.434  16.307 -0.2425 -0.6861  0.2029
 7509TIP3    H244019   2.695   6.516  16.180  0.9624 -0.4232  0.3015
 7510TIP3   OH244020   2.938   6.598   4.323  0.1825  0.0970 -0.1042
 7510TIP3    H144021   2.925   6.535   4.394 -2.3790  0.9461  0.2932
 7510TIP3    H244022   2.893   6.677   4.353  0.9741  1.2361 -1.7446
 7511TIP3   OH244023   3.107   3.544  12.093 -0.4182  0.4893 -0.0793
 7511TIP3    H144024   3.093   3.485  12.019 -0.8629  0.0179  0.3675
 7511TIP3    H244025   3.112   3.631  12.054  0.2962  0.1529 -0.7528
 7512TIP3   OH244026   3.335   3.459   2.100  0.0206 -0.1446 -0.1696
 7512TIP3    H144027   3.421   3.476   2.060  0.5596 -0.2594  0.9058
 7512TIP3    H244028   3.304   3.380   2.057 -0.0980  0.5536 -1.4220
 7513TIP3   OH244029   1.823   1.475  15.731 -0.6112 -0.5054 -0.1202
 7513TIP3    H144030   1.854   1.508  15.815  0.2727 -0.1582 -0.5766
 7513TIP3    H244031   1.900   1.437  15.689 -1.1614 -1.1953 -0.5380
 7514TIP3   OH244032   3.665   5.628  15.752 -0.3819 -0.1648 -0.1776
 7514TIP3    H144033   3.716   5.548  15.738 -1.0641 -0.5571 -0.4774
 7514TIP3    H244034   3.675   5.677  15.671  1.8357  1.1162  0.7843
 7515TIP3   OH244035   5.611   3.988   4.298  0.0643 -0.1181 -0.5282
 7515TIP3    H144036   5.623   4.044   4.375 -1.4150 -0.9456  0.3346
 7515TIP3    H244037   5.526   4.014   4.262 -0.0296 -0.8929 -0.8916
 7516TIP3   OH244038   6.510   6.809   4.787 -0.3694  0.4458  0.1215
 7516TIP3    H144039   6.603   6.830   4.773 -0.1475 -0.9358 -0.6412
 7516TIP3    H244040   6.479   6.780   4.701 -1.1229 -0.5193  0.7022
 7517TIP3   OH244041   1.099   4.470  11.242 -0.4492 -0.0456  0.2783
 7517TIP3    H144042   1.064   4.446  11.156 -1.0910 -0.6256  0.6835
 7517TIP3    H244043   1.153   4.395  11.267 -2.0048 -0.8878  1.3050
 7518TIP3   OH244044   3.053   5.677  14.561 -0.1324  0.1344  0.0789
 7518TIP3    H144045   3.069   5.740  14.632 -1.8517  1.7737 -0.9039
 7518TIP3    H244046   3.084   5.593  14.596  1.6454  1.3689  1.6894
 7519TIP3   OH244047   0.914   6.054   0.084  0.2495  0.4018 -0.0868
 7519TIP3    H144048   0.861   5.977   0.101  0.2793 -0.3467 -2.9109
 7519TIP3    H244049   0.896   6.113   0.157 -1.6239 -1.2993  0.8968
 7520TIP3   OH244050   0.056   1.835  16.540 -0.9754 -0.3948  0.4139
 7520TIP3    H144051   0.017   1.922  16.532  0.7920  0.3587 -0.6728
 7520TIP3    H244052   0.086   1.814  16.451  1.3182 -0.7749  1.2150
 7521TIP3   OH244053   4.621   3.353   0.747  0.3591 -0.6053  0.1085
 7521TIP3    H144054   4.664   3.317   0.670 -0.4926  1.4332 -1.4199
 7521TIP3    H244055   4.597   3.276   0.799 -0.2355 -2.1745 -2.3075
 7522TIP3   OH244056   2.496   3.843  15.291 -0.2690 -0.1453 -0.2663
 7522TIP3    H144057   2.522   3.818  15.202 -1.5309  0.9289 -0.9579
 7522TIP3    H244058   2.579   3.857  15.337  0.4220  1.4706 -1.9029
 7523TIP3   OH244059   5.770   4.507   6.489 -0.2828  0.2658  0.2804
 7523TIP3    H144060   5.676   4.512   6.505 -0.9854  0.6192 -3.1989
 7523TIP3    H244061   5.796   4.595   6.463 -0.4073 -0.7987 -4.4649
 7524TIP3   OH244062   1.635   1.532   5.777  0.0099  0.7583 -0.1195
 7524TIP3    H144063   1.729   1.538   5.760  0.2619 -1.3140  0.2298
 7524TIP3    H244064   1.595   1.526   5.691  0.2065  1.4731 -0.2645
 7525TIP3   OH244065   0.245   3.619  12.622  0.3656  0.1277  0.2554
 7525TIP3    H144066   0.238   3.633  12.716 -0.3125  1.5342  0.0355
 7525TIP3    H244067   0.288   3.698  12.589 -1.0516  0.5065 -0.8007
 7526TIP3   OH244068   0.975   5.946   2.923 -0.2425  0.0060  0.4885
 7526TIP3    H144069   0.982   5.911   2.834 -1.8253 -0.6261  0.5805
 7526TIP3    H244070   1.041   6.015   2.927  0.3518 -0.4480 -0.9369
 7527TIP3   OH244071   4.207   2.048  13.088 -0.0300 -0.3175 -0.4266
 7527TIP3    H144072   4.203   2.068  12.995 -0.0852 -0.6813 -0.5066
 7527TIP3    H244073   4.167   2.123  13.131  0.0015 -0.1465 -0.6962
 7528TIP3   OH244074   0.859   4.850   1.488 -0.3666  0.0279 -0.4718
 7528TIP3    H144075   0.901   4.929   1.522 -2.5369  0.1045  2.3681
 7528TIP3    H244076   0.932   4.790   1.470  1.1827  0.1348  4.1842
 7529TIP3   OH244077   3.945   6.013   5.145  0.4460 -0.1039 -0.5021
 7529TIP3    H144078   4.039   6.011   5.162  0.2756 -0.4064  0.4803
 7529TIP3    H244079   3.936   5.974   5.058  0.9393 -3.7498  0.9026
 7530TIP3   OH244080   1.042   6.416  14.764 -0.4311 -0.3711  0.2966
 7530TIP3    H144081   1.097   6.490  14.789  0.5067 -0.9211 -0.0605
 7530TIP3    H244082   1.071   6.344  14.821 -1.4131 -0.4416  0.7249
 7531TIP3   OH244083   3.752   4.467   3.032 -0.3057  0.1865  0.0541
 7531TIP3    H144084   3.820   4.439   3.092  0.5779  0.2902 -0.8665
 7531TIP3    H244085   3.795   4.531   2.974 -0.0796 -2.3845 -2.8997
 7532TIP3   OH244086   2.894   2.821   0.547 -0.3756 -0.2133  0.1914
 7532TIP3    H144087   2.848   2.838   0.629  0.9141 -0.5445  1.0217
 7532TIP3    H244088   2.979   2.866   0.557  0.4113 -1.5234 -0.3114
 7533TIP3   OH244089   0.241   1.904  13.666 -0.0205 -0.0179  0.2587
 7533TIP3    H144090   0.157   1.934  13.701 -0.2931 -0.2520 -0.1871
 7533TIP3    H244091   0.231   1.911  13.571  0.3361 -0.3776  0.1920
 7534TIP3   OH244092   1.477   6.063  14.873  0.3039  0.1182  0.2207
 7534TIP3    H144093   1.539   6.025  14.811  1.3052  0.1372  1.1608
 7534TIP3    H244094   1.450   6.146  14.833  0.8129  0.0610 -0.2545
 7535TIP3   OH244095   0.205   5.527  16.970 -0.1748 -0.1902  0.0386
 7535TIP3    H144096   0.142   5.595  16.944 -0.3163 -0.3332  0.0054
 7535TIP3    H244097   0.249   5.503  16.889 -0.8601 -0.8854 -0.1414
 7536TIP3   OH244098   2.518   4.965   0.455  0.1386 -1.0629 -0.6338
 7536TIP3    H144099   2.440   4.921   0.489  0.1855 -1.0989 -0.5735
 7536TIP3    H244100   2.538   4.919   0.373  1.4708 -2.5978  0.4902
 7537TIP3   OH244101   0.075   0.756   2.737  0.5252  0.1441 -0.0476
 7537TIP3    H144102   0.086   0.693   2.808  0.3431  0.9878  0.7495
 7537TIP3    H244103   0.040   0.834   2.780  1.6959  1.1362 -0.8422
 7538TIP3   OH244104   1.867   6.456  14.036  0.4165  0.0836 -0.0716
 7538TIP3    H144105   1.848   6.515  14.109  1.1683  1.0897 -0.6651
 7538TIP3    H244106   1.864   6.368  14.075  0.3231  0.5675  1.0588
 7539TIP3   OH244107   4.882   5.042  14.881  0.0945  0.1053  0.2815
 7539TIP3    H144108   4.862   4.974  14.945  0.3919  0.5273  0.8240
 7539TIP3    H244109   4.859   5.002  14.796 -2.7164  0.4114  0.7895
 7540TIP3   OH244110   4.931   3.891  14.606  0.2459  0.1946 -0.0797
 7540TIP3    H144111   4.873   3.903  14.681  1.0645  0.4420  0.5275
 7540TIP3    H244112   4.966   3.803  14.617  3.1683  1.4415  1.9013
 7541TIP3   OH244113   1.792   5.528   0.002  0.6419 -0.0369 -0.8133
 7541TIP3    H144114   1.711   5.486  -0.027  0.1985  0.4337 -0.2802
 7541TIP3    H244115   1.857   5.458   0.001  0.4432 -0.2397 -2.0834
 7542TIP3   OH244116   4.071   0.450   5.240  0.2943  0.1438 -0.3957
 7542TIP3    H144117   4.120   0.532   5.241 -1.1527  1.0710 -1.2452
 7542TIP3    H244118   4.104   0.404   5.163 -1.5854  1.7434 -2.2786
 7543TIP3   OH244119   5.199   1.906  11.324  0.3201 -0.1692  0.3592
 7543TIP3    H144120   5.135   1.942  11.263 -0.4870 -1.1812  0.5859
 7543TIP3    H244121   5.193   1.811  11.313  0.5055 -0.3570  1.6417
 7544TIP3   OH244122   0.129   1.695   4.344 -0.1051  0.3163  0.1389
 7544TIP3    H144123   0.079   1.776   4.334  1.0526  1.1074  0.6230
 7544TIP3    H244124   0.193   1.714   4.412  1.6381 -0.2812 -1.2671
 7545TIP3   OH244125   2.730   0.991   2.647 -0.4749 -0.3271  0.0110
 7545TIP3    H144126   2.769   0.939   2.718 -0.9431 -0.4703  0.1665
 7545TIP3    H244127   2.636   0.990   2.665 -0.4120  1.5991  0.7248
 7546TIP3   OH244128   3.288   5.323   5.393  0.0393 -0.6219 -0.6401
 7546TIP3    H144129   3.294   5.271   5.473 -0.2684 -1.6331 -1.2571
 7546TIP3    H244130   3.233   5.271   5.335 -2.6675  1.6404 -0.3413
 7547TIP3   OH244131   0.923   0.612  16.152  0.0345 -0.7535 -0.9223
 7547TIP3    H144132   1.001   0.590  16.203 -0.4153  0.7074  0.4830
 7547TIP3    H244133   0.888   0.527  16.125 -0.4501 -1.7778  2.4115
 7548TIP3   OH244134   4.722   2.386  13.338 -0.2575 -0.5559 -0.0410
 7548TIP3    H144135   4.694   2.415  13.425  1.2323 -0.1306  0.3290
 7548TIP3    H244136   4.663   2.431  13.277 -1.8129 -1.4547  0.7548
 7549TIP3   OH244137   3.215   1.080   2.248  0.1193  0.3621 -0.3110
 7549TIP3    H144138   3.144   1.055   2.189  1.6270 -3.4365 -0.7971
 7549TIP3    H244139   3.254   1.158   2.208 -2.3985  1.3399 -1.0909
 7550TIP3   OH244140   0.777   3.306  12.485  0.1209  0.0313 -0.0188
 7550TIP3    H144141   0.750   3.371  12.550  1.3272  0.3622  0.1633
 7550TIP3    H244142   0.698   3.254  12.469 -0.8609  1.5434 -0.1969
 7551TIP3   OH244143   5.287   2.357  16.589  0.0382  0.5212  0.0411
 7551TIP3    H144144   5.363   2.330  16.537  0.7633  2.4553  0.0406
 7551TIP3    H244145   5.318   2.356  16.680 -1.0260 -2.1558  0.4986
 7552TIP3   OH244146   0.997   4.292   2.946  0.0950 -0.4063 -0.9250
 7552TIP3    H144147   1.080   4.278   2.992  1.1300 -0.1096 -2.6083
 7552TIP3    H244148   0.965   4.204   2.926 -1.1147 -0.5984  1.5222
 7553TIP3   OH244149   2.233   2.466  15.048 -0.4699 -0.0846  0.3801
 7553TIP3    H144150   2.251   2.496  15.137  2.2344 -1.0786  0.2801
 7553TIP3    H244151   2.219   2.371  15.058  1.6421 -0.5341 -0.3518
 7554TIP3   OH244152   6.447   5.003  13.328  0.0845  0.3683 -0.6584
 7554TIP3    H144153   6.479   5.078  13.377  0.9451 -1.1966  1.3238
 7554TIP3    H244154   6.521   4.942  13.325 -0.4132 -0.2218 -2.6711
 7555TIP3   OH244155   3.220   6.313   5.104 -0.1594  0.5407  0.2012
 7555TIP3    H144156   3.284   6.308   5.175  1.0567 -0.5905 -0.9393
 7555TIP3    H244157   3.182   6.400   5.113  0.9062  0.9112  1.4421
 7556TIP3   OH244158   3.378   5.868  11.602 -0.5429  0.8533  0.2402
 7556TIP3    H144159   3.405   5.940  11.545  0.8494 -0.4026 -0.7546
 7556TIP3    H244160   3.429   5.793  11.572 -2.2597 -0.6761  0.9591
 7557TIP3   OH244161   3.845   3.312  11.627 -0.8297 -0.6835 -0.5803
 7557TIP3    H144162   3.802   3.363  11.558  0.8231  0.2636 -0.9754
 7557TIP3    H244163   3.776   3.255  11.661 -2.9277  2.0700  0.1869
 7558TIP3   OH244164   0.438   4.739   4.759  0.4039 -0.4916 -0.0834
 7558TIP3    H144165   0.421   4.659   4.809 -0.7655 -0.0836  0.2016
 7558TIP3    H244166   0.363   4.796   4.778  1.1649  0.6392 -0.3516
 7559TIP3   OH244167   4.240   4.228  14.757  0.0635  0.3040  0.3742
 7559TIP3    H144168   4.328   4.222  14.720  0.2236  2.6821  0.2677
 7559TIP3    H244169   4.192   4.157  14.713  1.5171 -0.0708 -0.6975
 7560TIP3   OH244170   0.888   5.690  17.084  0.0844 -0.4725 -0.0536
 7560TIP3    H144171   0.972   5.729  17.060  0.0556 -0.4275 -0.0800
 7560TIP3    H244172   0.825   5.761  17.074 -0.1006 -0.7466 -0.9298
 7561TIP3   OH244173   0.828   3.112  13.885  0.1740 -0.1848  0.0089
 7561TIP3    H144174   0.906   3.141  13.838  0.8414 -2.0489 -0.1151
 7561TIP3    H244175   0.757   3.121  13.821  0.9904 -2.2085 -1.3011
 7562TIP3   OH244176   1.506   3.221   3.958  0.1430  0.2890  0.2253
 7562TIP3    H144177   1.483   3.310   3.933 -2.1251  0.3740  2.1794
 7562TIP3    H244178   1.431   3.190   4.009  1.0798 -2.5644  0.0831
 7563TIP3   OH244179   2.770   3.954  12.548 -0.2172 -0.0864  0.3513
 7563TIP3    H144180   2.756   3.866  12.584 -1.0093  1.0009  2.9519
 7563TIP3    H244181   2.707   3.961  12.477  0.2617 -1.8009 -0.2900
 7564TIP3   OH244182   5.978   1.618   5.764 -0.4112 -0.0381 -0.1255
 7564TIP3    H144183   5.980   1.694   5.823  1.4752  0.1616 -0.3667
 7564TIP3    H244184   6.033   1.553   5.808  0.8834  0.0440 -1.5294
 7565TIP3   OH244185   0.311   6.269   1.789 -0.0308  0.2184 -0.1171
 7565TIP3    H144186   0.328   6.228   1.874  0.5513  2.0767  0.7122
 7565TIP3    H244187   0.219   6.248   1.771  0.1270 -1.0833  0.4469
 7566TIP3   OH244188   1.082   4.265  13.009 -0.2780 -0.0610 -0.1150
 7566TIP3    H144189   1.097   4.221  12.925 -0.9340  1.0831 -0.8509
 7566TIP3    H244190   0.991   4.292  13.006  0.3555  2.2195 -0.1271
 7567TIP3   OH244191   5.980   1.458   1.238  0.0026  0.7262  0.5820
 7567TIP3    H144192   5.961   1.501   1.321  0.2511 -1.3900  1.7931
 7567TIP3    H244193   6.047   1.513   1.197  0.2169  1.5476  1.9755
 7568TIP3   OH244194   2.840   3.481   3.017  0.2466 -0.2297  0.3580
 7568TIP3    H144195   2.884   3.564   3.034  1.2711 -0.5696 -0.5014
 7568TIP3    H244196   2.877   3.451   2.934  1.4894 -2.5822  1.6435
 7569TIP3   OH244197   5.679   6.502  12.473 -0.1140  0.2688  0.7584
 7569TIP3    H144198   5.772   6.483  12.465  0.1540  1.0369  1.7383
 7569TIP3    H244199   5.644   6.489  12.385  0.3202 -2.9688  0.9089
 7570TIP3   OH244200   5.078   0.845   2.130  0.7562  0.7316  0.1701
 7570TIP3    H144201   5.024   0.924   2.130 -2.1513 -1.1175  1.6216
 7570TIP3    H244202   5.029   0.782   2.077  3.0114 -0.1855 -0.9665
 7571TIP3   OH244203   0.881   4.203  11.607  0.1942 -0.9245 -0.3673
 7571TIP3    H144204   0.926   4.161  11.534  1.6176 -2.2607  1.1835
 7571TIP3    H244205   0.802   4.150  11.620 -0.4618 -0.2252 -1.3735
 7572TIP3   OH244206   0.743   0.875   0.452 -1.0737  0.2022 -0.2486
 7572TIP3    H144207   0.730   0.831   0.368 -0.2511  0.4412 -0.5059
 7572TIP3    H244208   0.732   0.968   0.433  1.5935  0.5230 -0.6632
 7573TIP3   OH244209   4.639   2.644   1.684 -0.5639  0.1357  0.2170
 7573TIP3    H144210   4.641   2.616   1.592 -1.0838  1.9078 -0.3943
 7573TIP3    H244211   4.731   2.650   1.709 -0.4306 -1.7586  0.3095
 7574TIP3   OH244212   5.294   2.067  10.281  0.1698  0.4938 -0.0247
 7574TIP3    H144213   5.336   2.152  10.288  1.5485  0.3312 -3.8435
 7574TIP3    H244214   5.366   2.004  10.277 -0.7811 -0.7622  1.3862
 7575TIP3   OH244215   6.742   0.046  16.224 -0.3978 -0.6276 -0.1608
 7575TIP3    H144216   6.772  -0.028  16.276 -1.9742 -1.7413 -0.7531
 7575TIP3    H244217   6.740   0.014  16.134  0.8994  0.8152 -0.7491
 7576TIP3   OH244218   2.766   6.057  15.295  0.1852 -0.4282 -0.6394
 7576TIP3    H144219   2.714   6.124  15.250 -2.3786 -1.2991  0.8030
 7576TIP3    H244220   2.846   6.103  15.321 -0.0802  1.1784 -2.4139
 7577TIP3   OH244221   0.781   6.225  13.117  0.1028  0.1413  0.5227
 7577TIP3    H144222   0.787   6.280  13.195  0.4924  0.5576  0.1993
 7577TIP3    H244223   0.792   6.136  13.151 -0.4811  0.2503  1.0385
 7578TIP3   OH244224   3.812   5.961  16.140 -0.1659 -0.5954 -0.3987
 7578TIP3    H144225   3.827   6.016  16.063 -0.4624 -0.1353 -0.1315
 7578TIP3    H244226   3.718   5.945  16.140 -0.4357  0.7934  0.7845
 7579TIP3   OH244227   4.637   0.382   1.961 -0.3246  0.3808  0.1954
 7579TIP3    H144228   4.585   0.302   1.956  0.3375 -0.0400 -0.1290
 7579TIP3    H244229   4.703   0.363   2.028  0.1004  0.4915 -0.1858
 7580TIP3   OH244230   1.327   3.081  10.942  0.0860 -0.1126 -0.6309
 7580TIP3    H144231   1.323   3.129  10.859  1.2403  0.8793 -0.1484
 7580TIP3    H244232   1.341   3.149  11.008  3.4361 -1.1436 -0.0751
 7581TIP3   OH244233   1.358   0.810   2.546  0.8273 -0.0793  0.4439
 7581TIP3    H144234   1.424   0.854   2.493  0.3250 -0.5503 -0.6192
 7581TIP3    H244235   1.376   0.717   2.534  1.0376 -0.1890  1.5590
 7582TIP3   OH244236   3.109   3.882   0.264 -0.0501 -0.3965 -0.0909
 7582TIP3    H144237   3.059   3.856   0.341 -0.3050 -1.2775 -0.5505
 7582TIP3    H244238   3.119   3.977   0.273 -0.0540 -0.4941  1.0352
 7583TIP3   OH244239   3.729   1.477  11.022 -0.3384 -0.2251 -0.9997
 7583TIP3    H144240   3.778   1.395  11.014  0.5989  0.1439  0.5003
 7583TIP3    H244241   3.759   1.530  10.949  0.3019 -0.6212 -1.0382
 7584TIP3   OH244242   3.037   4.999  13.545 -0.2835  0.7651  0.2605
 7584TIP3    H144243   2.957   4.960  13.579  0.0354  0.1045  0.2626
 7584TIP3    H244244   3.108   4.949  13.586  0.1227  0.8587 -0.3098
 7585TIP3   OH244245   2.515   1.917  13.731 -0.4750 -0.5090 -0.2483
 7585TIP3    H144246   2.558   1.958  13.805 -0.9622  0.6601 -0.5910
 7585TIP3    H244247   2.582   1.914  13.663 -0.6242  0.4014 -0.4549
 7586TIP3   OH244248   6.161   3.307  10.591  0.3554  0.1074 -0.2745
 7586TIP3    H144249   6.212   3.384  10.613 -1.5594  1.1377  0.8018
 7586TIP3    H244250   6.216   3.258  10.529  2.1108  1.6925 -0.0398
 7587TIP3   OH244251   6.658   2.251  14.983 -0.6127  0.1642 -0.3367
 7587TIP3    H144252   6.637   2.274  14.892 -0.9085 -1.6016 -0.7501
 7587TIP3    H244253   6.586   2.196  15.011  0.1730 -0.4567  0.5000
 7588TIP3   OH244254   3.720   6.236  11.213 -0.2405  0.2190  0.1744
 7588TIP3    H144255   3.722   6.156  11.161 -1.9814  0.0434  0.3262
 7588TIP3    H244256   3.762   6.212  11.296 -0.1040 -0.3263 -0.0494
 7589TIP3   OH244257   6.307   3.572  10.592 -0.1427  0.1959  0.2282
 7589TIP3    H144258   6.361   3.644  10.560  1.4708 -0.9029  0.3858
 7589TIP3    H244259   6.225   3.580  10.542 -0.2463  2.4669  0.6871
 7590TIP3   OH244260   6.282   2.276   2.901  0.1251 -0.1190  0.6425
 7590TIP3    H144261   6.366   2.322   2.896 -0.2801  0.5315 -0.6091
 7590TIP3    H244262   6.306   2.184   2.912  0.9804  0.1578  1.2221
 7591TIP3   OH244263   5.523   5.105   5.774  0.3383  0.3064 -0.1238
 7591TIP3    H144264   5.601   5.108   5.831  0.5047 -1.1887 -0.2137
 7591TIP3    H244265   5.470   5.180   5.801  1.5495  1.0326  0.3249
 7592TIP3   OH244266   0.734   3.344   3.976 -0.0328 -0.0974  0.0250
 7592TIP3    H144267   0.727   3.343   3.881 -0.4756  1.5154  0.0164
 7592TIP3    H244268   0.822   3.310   3.994 -0.6562 -2.3424 -0.8205
 7593TIP3   OH244269   2.436   2.486  11.826  0.2731  0.1109  0.3280
 7593TIP3    H144270   2.352   2.523  11.801  0.7048  0.6454 -0.3702
 7593TIP3    H244271   2.499   2.556  11.812  0.9035 -0.4326  0.3787
 7594TIP3   OH244272   3.033   4.558  15.532 -0.1306 -0.1355  0.1056
 7594TIP3    H144273   2.953   4.519  15.566 -0.3716  0.1822 -0.0935
 7594TIP3    H244274   3.022   4.652  15.546  1.2311 -0.2276  2.2756
 7595TIP3   OH244275   3.565   6.278  15.260 -0.3715  0.3590  0.0488
 7595TIP3    H144276   3.630   6.303  15.195 -1.2243  0.1670 -0.9058
 7595TIP3    H244277   3.600   6.197  15.298  0.5642  0.9527  0.4789
 7596TIP3   OH244278   5.575   2.131  15.201  0.1498 -0.2878  0.2190
 7596TIP3    H144279   5.553   2.109  15.291  1.0180  1.5488  0.9421
 7596TIP3    H244280   5.624   2.214  15.208 -2.9282  1.9865 -2.1678
 7597TIP3   OH244281   3.774   6.206   4.228  0.0488 -0.3794 -0.5110
 7597TIP3    H144282   3.742   6.141   4.166 -2.1428 -0.1382  0.2771
 7597TIP3    H244283   3.795   6.157   4.306 -0.3562 -0.3120 -0.3559
 7598TIP3   OH244284   1.288   0.057   5.413  0.0517 -0.2296  0.1785
 7598TIP3    H144285   1.330   0.136   5.379  1.4404 -0.9078  0.2700
 7598TIP3    H244286   1.299  -0.008   5.343  0.0616 -0.7134  0.6298
 7599TIP3   OH244287   2.040   4.628   2.610 -0.0082  0.3650  0.5930
 7599TIP3    H144288   1.980   4.679   2.554 -0.0154  1.6494  1.7145
 7599TIP3    H244289   2.122   4.625   2.560  0.5076  2.9095  1.1236
 7600TIP3   OH244290   0.814   1.255  14.409 -0.3609 -0.2281  0.7843
 7600TIP3    H144291   0.808   1.255  14.314  1.0357  2.8271  0.5999
 7600TIP3    H244292   0.783   1.168  14.435 -1.4796 -0.8844 -2.3705
 7601TIP3   OH244293   1.124   5.593  15.377 -0.0368  0.3100  0.1279
 7601TIP3    H144294   1.198   5.542  15.343 -1.4447 -1.8776  0.1427
 7601TIP3    H244295   1.130   5.584  15.472  0.6036  1.5647  0.2273
 7602TIP3   OH244296   6.516   5.143   4.732  0.1452 -0.4060 -0.2451
 7602TIP3    H144297   6.514   5.093   4.813 -0.4993  0.3002  0.1861
 7602TIP3    H244298   6.555   5.226   4.756  0.6356 -0.4615 -0.8256
 7603TIP3   OH244299   5.511   2.673   3.886  0.3786  0.4259 -0.6044
 7603TIP3    H144300   5.555   2.646   3.966  0.5409 -1.6500 -1.3529
 7603TIP3    H244301   5.418   2.672   3.909  0.4192 -0.2506 -0.4643
 7604TIP3   OH244302   1.274   5.296  11.549 -0.3859 -0.5565  0.6095
 7604TIP3    H144303   1.298   5.210  11.515  1.5909  0.1111  0.1607
 7604TIP3    H244304   1.239   5.343  11.473  0.6697 -0.2456  0.2970
 7605TIP3   OH244305   2.478   4.719  13.204  0.0832 -0.1621 -0.1772
 7605TIP3    H144306   2.460   4.657  13.274  0.3413  0.0001  0.0322
 7605TIP3    H244307   2.456   4.805  13.241 -0.7921 -0.1691 -0.6391
 7606TIP3   OH244308   0.389   3.610  15.740 -0.8539 -0.2997  0.3202
 7606TIP3    H144309   0.392   3.541  15.806 -0.5870 -1.3336 -0.7209
 7606TIP3    H244310   0.412   3.565  15.658  1.0510  1.3605 -0.1382
 7607TIP3   OH244311   3.661   2.027   3.605 -0.2658  0.1577  0.0433
 7607TIP3    H144312   3.680   2.109   3.558  0.1044 -0.5650 -1.1204
 7607TIP3    H244313   3.728   2.022   3.673  1.1936 -0.2749 -1.3407
 7608TIP3   OH244314   4.998   2.220   2.792 -0.2763  0.3646 -0.3667
 7608TIP3    H144315   5.037   2.305   2.814 -1.7560  0.9697  0.0430
 7608TIP3    H244316   4.927   2.209   2.855 -0.5713 -0.8459 -0.8849
 7609TIP3   OH244317   2.723   6.376  15.509 -0.3073  0.5246 -0.0332
 7609TIP3    H144318   2.806   6.358  15.553  0.2836  2.6367 -0.1844
 7609TIP3    H244319   2.663   6.309  15.543  1.6099 -1.5573 -0.5229
 7610TIP3   OH244320   1.106   0.728   5.994  0.3077 -0.2354  0.0853
 7610TIP3    H144321   1.063   0.682   6.066  0.0405  0.3561  0.3151
 7610TIP3    H244322   1.177   0.776   6.036  0.0158  0.2861 -0.0015
 7611TIP3   OH244323   1.593   3.762  15.858  0.5809  0.4529  0.4133
 7611TIP3    H144324   1.540   3.721  15.790  0.6384 -1.7931  1.6249
 7611TIP3    H244325   1.654   3.818  15.811  0.8452 -1.2807 -1.4257
 7612TIP3   OH244326   6.429   0.628   3.474 -0.0108  0.4049 -0.2462
 7612TIP3    H144327   6.521   0.619   3.498 -0.3237 -0.1768  0.7933
 7612TIP3    H244328   6.421   0.719   3.444  0.5984  0.9058  1.0493
 7613TIP3   OH244329   2.133   4.225  14.616  0.2153  0.0416  0.8910
 7613TIP3    H144330   2.224   4.201  14.633  0.4115  0.9658  1.1969
 7613TIP3    H244331   2.094   4.236  14.702 -0.4258 -1.1174  0.7851
 7614TIP3   OH244332   1.676   6.146   3.943 -0.3579  0.2798 -0.2827
 7614TIP3    H144333   1.590   6.186   3.929  0.5359  2.0009 -1.2941
 7614TIP3    H244334   1.681   6.078   3.876 -0.3489  1.2089 -1.2479
 7615TIP3   OH244335   1.894   4.976   2.093 -0.2620  0.2883 -0.5049
 7615TIP3    H144336   1.894   5.043   2.025 -0.8024  1.2694  0.4249
 7615TIP3    H244337   1.863   4.897   2.050  2.2315  0.0797 -2.1199
 7616TIP3   OH244338   1.094   6.251  16.530  0.1709 -0.3057  0.1492
 7616TIP3    H144339   1.024   6.302  16.491  0.4725 -0.0338 -0.0441
 7616TIP3    H244340   1.089   6.166  16.487 -0.7788 -0.6863  0.9693
 7617TIP3   OH244341   3.612   6.381   2.400 -0.1346 -0.0392 -0.3723
 7617TIP3    H144342   3.698   6.379   2.440 -1.4173 -0.7190  2.5809
 7617TIP3    H244343   3.612   6.307   2.339  1.0436 -0.5963  0.2742
 7618TIP3   OH244344   0.601   0.121  12.861 -0.1563 -0.0409 -0.2113
 7618TIP3    H144345   0.585   0.097  12.953 -0.2276 -0.4162 -0.3193
 7618TIP3    H244346   0.516   0.113  12.819  0.0812 -0.9556 -0.5471
 7619TIP3   OH244347   4.918   5.269  15.747 -0.6832 -0.4375 -0.0685
 7619TIP3    H144348   4.847   5.239  15.690 -0.3592 -0.9654 -0.2015
 7619TIP3    H244349   4.997   5.258  15.694 -0.6292  1.4526 -0.4344
 7620TIP3   OH244350   0.677   5.090   4.096 -0.5564 -0.0792 -0.1054
 7620TIP3    H144351   0.749   5.102   4.159 -0.6596 -1.7219  0.3630
 7620TIP3    H244352   0.655   4.998   4.103 -2.3794  0.2909 -0.6347
 7621TIP3   OH244353   4.531   1.801  13.296  0.0312 -0.2796 -0.2284
 7621TIP3    H144354   4.625   1.798  13.278  0.3757 -0.0192  1.3722
 7621TIP3    H244355   4.516   1.888  13.332 -0.6992 -0.5676  0.1871
 7622TIP3   OH244356   1.774   0.877  16.861 -0.0422  0.5083 -0.0546
 7622TIP3    H144357   1.697   0.924  16.831  1.2921  1.8222 -1.5978
 7622TIP3    H244358   1.742   0.788  16.878 -1.7134  0.7579 -1.5533
 7623TIP3   OH244359   1.754   2.740   6.215  0.0383 -0.3149 -0.0901
 7623TIP3    H144360   1.759   2.723   6.309 -0.5467 -0.2104 -0.0320
 7623TIP3    H244361   1.751   2.654   6.174 -1.2442 -0.3808  0.0946
 7624TIP3   OH244362   1.912   1.144  16.020 -0.2366 -0.0833 -0.7287
 7624TIP3    H144363   1.868   1.165  15.938  0.7837  0.6947 -1.0960
 7624TIP3    H244364   1.899   1.050  16.031 -0.0416 -0.2670 -1.9900
 7625TIP3   OH244365   6.755   0.870   0.378  0.1722 -0.0256 -0.8298
 7625TIP3    H144366   6.808   0.930   0.326 -0.5669 -0.8898 -2.6744
 7625TIP3    H244367   6.729   0.801   0.316  0.0379 -1.6272  0.9323
 7626TIP3   OH244368   4.679   2.226  12.780 -0.7588 -0.0938  0.2111
 7626TIP3    H144369   4.710   2.264  12.698 -0.6550  1.1188  0.8018
 7626TIP3    H244370   4.601   2.277  12.802 -1.0437 -0.7046  0.6486
 7627TIP3   OH244371   4.816   2.096   0.975 -0.4598 -0.1764  0.5403
 7627TIP3    H144372   4.737   2.051   0.947 -1.1172  1.0090  0.4530
 7627TIP3    H244373   4.846   2.045   1.051 -1.6211 -0.3069  0.9325
 7628TIP3   OH244374   3.294   3.936  16.078 -0.4771 -0.3139  0.3147
 7628TIP3    H144375   3.279   4.006  16.142  0.1857 -1.5480  1.8815
 7628TIP3    H244376   3.217   3.939  16.022 -0.0300  2.2947 -0.2927
 7629TIP3   OH244377   6.417   2.400   4.061 -0.4037 -0.3475 -0.5550
 7629TIP3    H144378   6.395   2.380   4.152  0.1583  1.6183  0.0715
 7629TIP3    H244379   6.493   2.458   4.068  0.6794 -1.4792 -2.3691
 7630TIP3   OH244380   0.582   0.590   1.826  0.0897  0.2699 -0.8105
 7630TIP3    H144381   0.593   0.576   1.732 -0.0260 -0.8534 -0.6672
 7630TIP3    H244382   0.492   0.563   1.844  0.3580 -0.2761 -0.2478
 7631TIP3   OH244383   6.001   0.784  12.397  0.0543  0.0502 -0.4610
 7631TIP3    H144384   5.932   0.756  12.457 -0.7461  1.5438 -0.6360
 7631TIP3    H244385   5.990   0.879  12.390 -0.6488 -0.1380 -3.8497
 7632TIP3   OH244386   4.261   2.743  12.250 -0.1443 -1.0548 -0.5000
 7632TIP3    H144387   4.256   2.813  12.185 -1.1447 -0.3486  0.3149
 7632TIP3    H244388   4.293   2.786  12.330  1.8197 -2.0572 -0.6904
 7633TIP3   OH244389   3.607   4.983  10.562 -0.0301  0.1536 -0.0756
 7633TIP3    H144390   3.670   4.930  10.612  0.3647  0.4531 -0.2465
 7633TIP3    H244391   3.526   4.977  10.612  0.1185 -0.2800  0.1233
 7634TIP3   OH244392   0.732   6.352  13.366 -0.2184  0.0489  0.0972
 7634TIP3    H144393   0.663   6.307  13.414 -0.3871 -0.6382 -0.7493
 7634TIP3    H244394   0.730   6.442  13.397  0.5038 -0.6248  2.2828
 7635TIP3   OH244395   2.546   4.176   6.579 -0.5349 -0.2311 -0.0649
 7635TIP3    H144396   2.547   4.115   6.653  0.2337  0.1903  0.2905
 7635TIP3    H244397   2.637   4.206   6.573 -0.3172 -1.1378 -1.9220
 7636TIP3   OH244398   0.764   3.565   3.591  0.8459 -0.3640 -0.0944
 7636TIP3    H144399   0.828   3.572   3.662  1.8714 -0.6648 -0.9626
 7636TIP3    H244400   0.803   3.501   3.531  0.4953  0.6593 -1.4317
 7637TIP3   OH244401   5.781   3.373   5.205  0.5939 -0.3578  0.3142
 7637TIP3    H144402   5.816   3.293   5.168 -0.0699 -1.1352  1.3153
 7637TIP3    H244403   5.749   3.348   5.292 -1.6379  0.4943 -0.1889
 7638TIP3   OH244404   4.130   1.640   4.927  0.4594  0.2558  0.1175
 7638TIP3    H144405   4.200   1.683   4.977 -0.1332  0.4537  0.7827
 7638TIP3    H244406   4.073   1.601   4.993  0.0213 -0.0405 -0.4288
 7639TIP3   OH244407   6.132   4.774   1.351  0.7391 -0.4728 -0.2412
 7639TIP3    H144408   6.064   4.780   1.284  1.4576  0.6377 -0.9082
 7639TIP3    H244409   6.145   4.680   1.364 -1.0035 -0.7035  0.0036
 7640TIP3   OH244410   0.023   0.304   3.059 -0.2414 -0.6380 -0.0744
 7640TIP3    H144411   0.072   0.258   2.990  2.4095 -0.8658  1.8440
 7640TIP3    H244412  -0.015   0.234   3.112 -2.0598 -0.4590 -1.0335
 7641TIP3   OH244413   0.312   4.613  15.159  0.4167 -0.3341  0.0689
 7641TIP3    H144414   0.337   4.592  15.249  0.7989  0.1168  0.0742
 7641TIP3    H244415   0.299   4.708  15.159 -0.0321 -0.3913 -0.2451
 7642TIP3   OH244416   4.903   3.042  15.541 -0.4350  0.3117  0.0373
 7642TIP3    H144417   4.944   3.092  15.471 -2.3459  1.4471 -0.3375
 7642TIP3    H244418   4.832   3.098  15.572 -0.9818 -1.0749  1.4295
 7643TIP3   OH244419   2.534   5.459   2.112  0.3017  0.1193  0.3502
 7643TIP3    H144420   2.593   5.439   2.040  0.7855  0.0023  0.7778
 7643TIP3    H244421   2.521   5.376   2.157  2.0585  0.6232  1.9328
 7644TIP3   OH244422   5.653   0.963   3.166  0.0133  0.4773  0.4789
 7644TIP3    H144423   5.626   0.872   3.177 -0.4540  0.4463 -0.8037
 7644TIP3    H244424   5.725   0.974   3.228 -2.6242  0.4876  3.8331
 7645TIP3   OH244425   4.900   2.587   3.042 -0.3492 -0.2242  0.6940
 7645TIP3    H144426   4.816   2.620   3.010 -0.7154 -1.3735  0.4525
 7645TIP3    H244427   4.895   2.596   3.137  0.0616  1.5790  0.5834
 7646TIP3   OH244428   4.677   6.629   4.660  0.6056  0.1882  0.3479
 7646TIP3    H144429   4.602   6.684   4.634 -0.7277 -1.7066  0.0060
 7646TIP3    H244430   4.705   6.665   4.744 -1.8830 -0.1607  1.4042
 7647TIP3   OH244431   1.331   1.832  14.937  0.2104  0.5826  0.0774
 7647TIP3    H144432   1.322   1.760  14.874 -1.3090 -0.2357  1.1486
 7647TIP3    H244433   1.410   1.879  14.910  1.3591 -1.5933 -0.5543
 7648TIP3   OH244434   5.042   2.172  14.301 -0.0400  0.0409  0.0631
 7648TIP3    H144435   5.108   2.156  14.368 -2.0631 -0.1236  2.1417
 7648TIP3    H244436   4.989   2.244  14.336 -0.6179  0.5763 -1.8017
 7649TIP3   OH244437   6.604   3.567  15.208 -0.2779  0.1526 -0.0725
 7649TIP3    H144438   6.531   3.610  15.163 -0.6488 -0.7468 -0.3553
 7649TIP3    H244439   6.680   3.623  15.190 -0.7582  0.7234 -0.3626
 7650TIP3   OH244440   1.194   2.596  10.815 -0.1629 -0.7486  0.0650
 7650TIP3    H144441   1.152   2.647  10.746  0.6802  0.1048  0.1615
 7650TIP3    H244442   1.144   2.615  10.894 -0.6618 -1.1301 -0.1525
 7651TIP3   OH244443   3.167   0.448  16.744  0.5885  0.4548  0.3339
 7651TIP3    H144444   3.206   0.446  16.831  2.7687 -0.5162 -0.5997
 7651TIP3    H244445   3.240   0.466  16.685 -0.4794 -0.7634 -1.4531
 7652TIP3   OH244446   5.740   0.467  15.296 -0.1440 -0.1201  0.6060
 7652TIP3    H144447   5.751   0.486  15.389  1.1167 -0.0524  0.4646
 7652TIP3    H244448   5.797   0.531  15.252 -0.9883  0.0809 -0.2398
 7653TIP3   OH244449   6.317   3.712  13.886 -0.0933  0.1255  0.5364
 7653TIP3    H144450   6.372   3.750  13.955  0.5474  1.9615 -0.9075
 7653TIP3    H244451   6.266   3.786  13.853 -1.0033 -0.8958 -0.3932
 7654TIP3   OH244452   2.038   3.779   3.135  0.0071  0.3121  0.0483
 7654TIP3    H144453   1.944   3.777   3.119 -0.3615  1.5830  1.7811
 7654TIP3    H244454   2.075   3.814   3.053 -0.7107 -2.3178 -1.5196
 7655TIP3   OH244455   1.844   3.234   2.380  0.2645  0.0574  0.0281
 7655TIP3    H144456   1.925   3.184   2.389  0.4718  0.6685  2.6045
 7655TIP3    H244457   1.776   3.169   2.366  1.1070 -0.5141 -1.5809
 7656TIP3   OH244458   0.807   4.277   1.842  0.1121  0.4660  0.6317
 7656TIP3    H144459   0.862   4.349   1.871 -0.9577  2.2840 -1.6074
 7656TIP3    H244460   0.734   4.318   1.795  0.8782 -2.0407 -3.2270
 7657TIP3   OH244461   5.454   0.629  15.209 -0.2539  0.1637  0.4577
 7657TIP3    H144462   5.464   0.656  15.117 -2.1121 -0.0054  0.1673
 7657TIP3    H244463   5.543   0.610  15.238  0.7671  3.1120 -0.3892
 7658TIP3   OH244464   4.136   1.080  13.612  0.1098  0.1132 -0.6070
 7658TIP3    H144465   4.104   1.154  13.560 -1.6635  0.0748  0.3340
 7658TIP3    H244466   4.157   1.118  13.697  0.1750 -0.2894 -0.4403
 7659TIP3   OH244467   1.324   3.716  16.392 -0.4019  0.2815 -0.3362
 7659TIP3    H144468   1.270   3.640  16.415  1.0441 -0.4257  0.8044
 7659TIP3    H244469   1.346   3.702  16.300 -0.2262 -0.6494 -0.1627
 7660TIP3   OH244470   0.889   3.332  13.493  0.1523 -0.2312  0.4228
 7660TIP3    H144471   0.857   3.327  13.583  0.7652  1.0197  0.7353
 7660TIP3    H244472   0.811   3.327  13.439 -0.3229  0.0399  1.0738
 7661TIP3   OH244473   6.090   5.409  14.674 -0.3136  0.5230  0.0018
 7661TIP3    H144474   6.068   5.393  14.582  2.3424  1.2314 -0.8502
 7661TIP3    H244475   6.101   5.322  14.711  1.0141  0.1985 -1.0595
 7662TIP3   OH244476   0.222   0.594  16.381 -0.2210 -0.1024 -0.3172
 7662TIP3    H144477   0.273   0.518  16.353  0.1722  0.4951 -1.3017
 7662TIP3    H244478   0.148   0.596  16.320  0.7451  1.3285 -1.5196
 7663TIP3   OH244479   4.754   1.142  17.197 -0.4194  0.0585 -0.5654
 7663TIP3    H144480   4.763   1.062  17.249  0.8655  0.9008  0.5774
 7663TIP3    H244481   4.660   1.160  17.197 -0.8783 -1.9365 -1.6631
 7664TIP3   OH244482   1.120   3.141  13.776  0.0422  0.0672  0.1781
 7664TIP3    H144483   1.124   3.154  13.681  1.6725  0.0951  0.2183
 7664TIP3    H244484   1.212   3.143  13.804 -0.3508 -0.8875  1.6281
 7665TIP3   OH244485   2.432   3.017   5.739 -0.2615 -0.4413  0.6757
 7665TIP3    H144486   2.417   3.078   5.811  0.3690 -0.4163  0.7978
 7665TIP3    H244487   2.415   2.931   5.776  2.1461 -0.6331  1.5225
 7666TIP3   OH244488   5.872   4.560   1.207 -0.4844 -0.2782 -0.6075
 7666TIP3    H144489   5.847   4.472   1.232 -0.9359  0.0606  0.1535
 7666TIP3    H244490   5.846   4.615   1.281  3.0829  0.0519  0.5521
 7667TIP3   OH244491   1.797   5.408  15.308 -0.2509 -0.7775 -0.2615
 7667TIP3    H144492   1.783   5.498  15.338  1.8262  0.0162 -1.4581
 7667TIP3    H244493   1.715   5.364  15.326 -1.0719  1.1539  1.0859
 7668TIP3   OH244494   6.411   6.164  15.656  0.0927  0.1170 -0.2847
 7668TIP3    H144495   6.474   6.233  15.681 -0.8912  1.2720 -0.8717
 7668TIP3    H244496   6.462   6.103  15.603  1.0861  0.1568  0.5827
 7669TIP3   OH244497   4.765   5.083  16.621  0.5391 -0.0725 -0.1460
 7669TIP3    H144498   4.676   5.080  16.657  0.5727 -1.9141 -0.1441
 7669TIP3    H244499   4.783   5.177  16.609 -1.5459  0.3252 -0.5332
 7670TIP3   OH244500   3.121   3.688   0.076  0.2760  0.1181  0.3164
 7670TIP3    H144501   3.044   3.640   0.048  1.2658 -1.9813  1.0156
 7670TIP3    H244502   3.091   3.742   0.150 -0.6753 -0.0223  0.0368
 7671TIP3   OH244503   4.227   1.067   4.159  0.1476  0.2177  0.2596
 7671TIP3    H144504   4.132   1.053   4.165  0.1421 -0.9732 -1.7393
 7671TIP3    H244505   4.264   0.980   4.148  1.1838  0.8460 -1.8537
 7672TIP3   OH244506   4.294   2.890  15.553 -0.0228 -0.3944  0.5708
 7672TIP3    H144507   4.353   2.824  15.516  0.7900 -1.6507  3.7263
 7672TIP3    H244508   4.238   2.841  15.614 -1.1556  1.4691  1.1314
 7673TIP3   OH244509   4.139   1.446  14.008 -0.0029 -0.2395  0.0629
 7673TIP3    H144510   4.107   1.529  13.972 -2.3427 -1.6232 -1.2854
 7673TIP3    H244511   4.074   1.423  14.075 -0.7187 -2.0672 -1.1997
 7674TIP3   OH244512   5.712   3.033   1.232 -0.8783 -0.3404 -0.1686
 7674TIP3    H144513   5.743   3.115   1.269 -1.6390  0.1415 -0.5893
 7674TIP3    H244514   5.792   2.986   1.208 -0.4290  0.0761  0.4825
 7675TIP3   OH244515   3.503   2.851   1.302  0.1954  0.3064 -0.1152
 7675TIP3    H144516   3.421   2.890   1.270 -0.4523 -0.4471  0.5592
 7675TIP3    H244517   3.563   2.924   1.310 -0.3804  0.8632 -0.7318
 7676TIP3   OH244518   0.953   6.124   6.296 -0.4377  0.0986 -0.4837
 7676TIP3    H144519   0.889   6.147   6.228 -0.0769 -1.2212 -1.3028
 7676TIP3    H244520   1.027   6.086   6.248 -0.6776 -1.9976  0.6936
 7677TIP3   OH244521   4.522   6.749   4.345 -0.6556 -0.5700  0.9989
 7677TIP3    H144522   4.535   6.817   4.280  1.5656 -0.1680  1.7690
 7677TIP3    H244523   4.471   6.791   4.414 -1.1701 -0.3534  0.4911
 7678TIP3   OH244524   0.578   0.794   2.065 -0.0780  0.3665  0.3186
 7678TIP3    H144525   0.637   0.827   1.997 -0.4535 -0.8178 -0.6087
 7678TIP3    H244526   0.593   0.700   2.067 -0.0568  0.3675  1.9237
 7679TIP3   OH244527   2.944   6.183  12.552  0.2899  0.2815 -0.5042
 7679TIP3    H144528   2.898   6.267  12.543  2.3650  1.4754 -0.4611
 7679TIP3    H244529   2.918   6.151  12.639 -2.5409 -0.4823 -1.5072
 7680TIP3   OH244530   3.049   4.110  16.874  0.0018  0.0051  0.8788
 7680TIP3    H144531   3.043   4.026  16.919 -2.2078 -0.2310  0.2708
 7680TIP3    H244532   3.142   4.120  16.854  0.2429 -2.6222  0.3642
 7681TIP3   OH244533   0.391   1.990  12.543 -0.0073 -0.4763  0.1517
 7681TIP3    H144534   0.426   1.953  12.461  2.7316  0.2553  0.8810
 7681TIP3    H244535   0.301   2.013  12.522  1.0388  1.2679 -3.2325
 7682TIP3   OH244536   2.178   0.114  14.532  0.2466 -0.4356  0.2229
 7682TIP3    H144537   2.178   0.136  14.439 -2.4121 -0.9062  0.0307
 7682TIP3    H244538   2.111   0.171  14.570 -1.2890 -2.7012  1.1319
 7683TIP3   OH244539   1.464   6.048   1.884 -0.0305 -0.5181 -0.3030
 7683TIP3    H144540   1.548   6.033   1.927 -0.7971 -1.0657  1.0476
 7683TIP3    H244541   1.410   5.973   1.910 -1.6289  0.8918  0.5943
 7684TIP3   OH244542   3.891   5.180  15.751  0.0595  0.7515 -0.5299
 7684TIP3    H144543   3.850   5.231  15.680  1.5843  0.9861 -1.2820
 7684TIP3    H244544   3.858   5.091  15.739  0.5116  0.7283 -1.7419
 7685TIP3   OH244545   1.022   0.648  15.222  0.3970 -0.1547  0.1672
 7685TIP3    H144546   1.058   0.643  15.133  1.8663 -0.2197  0.7317
 7685TIP3    H244547   1.092   0.615  15.278 -0.4119  0.1136  1.3815
 7686TIP3   OH244548   5.062   6.529  13.110 -0.1317 -0.0637  0.3675
 7686TIP3    H144549   5.118   6.573  13.174 -1.9745  1.9981  0.6942
 7686TIP3    H244550   5.002   6.477  13.163  0.2243 -0.7225  0.1303
 7687TIP3   OH244551   6.170   2.186   3.382 -0.0976 -0.2537  0.3209
 7687TIP3    H144552   6.221   2.252   3.431  1.4180  0.3173 -1.8906
 7687TIP3    H244553   6.227   2.109   3.379  0.3132  0.0824 -1.4071
 7688TIP3   OH244554   2.405   3.808  11.264 -0.2279  0.0703  0.3890
 7688TIP3    H144555   2.428   3.882  11.208 -1.1848 -0.1610 -0.3388
 7688TIP3    H244556   2.446   3.732  11.222  0.4809  0.1362  0.9536
 7689TIP3   OH244557   5.961   6.306   5.994  0.3774  0.0431 -0.1833
 7689TIP3    H144558   6.006   6.240   6.047 -0.1894 -0.7731 -0.7048
 7689TIP3    H244559   5.870   6.277   5.992  0.0205  1.1125 -0.0198
 7690TIP3   OH244560   3.551   1.799  12.096  0.0091 -0.1814  0.1225
 7690TIP3    H144561   3.610   1.837  12.031  0.0791  1.4453  1.0754
 7690TIP3    H244562   3.491   1.744  12.045 -0.3355  1.5240 -1.4407
 7691TIP3   OH244563   5.024   0.042   2.112  0.6853 -0.3289 -0.3105
 7691TIP3    H144564   5.048  -0.017   2.040  0.9335 -1.7735  0.9060
 7691TIP3    H244565   5.087   0.114   2.106  1.3600 -0.9529 -0.8976
 7692TIP3   OH244566   6.798   4.372   4.305  0.2005 -0.0642  0.1542
 7692TIP3    H144567   6.724   4.346   4.360 -0.2651 -0.1533 -0.5037
 7692TIP3    H244568   6.806   4.466   4.319 -2.2137  0.6564 -2.2562
 7693TIP3   OH244569   2.170   6.455  11.977  0.5365 -0.3754 -0.0129
 7693TIP3    H144570   2.096   6.410  11.936  0.5882 -0.2862 -0.2041
 7693TIP3    H244571   2.141   6.472  12.067  0.6829 -1.1781  0.1924
 7694TIP3   OH244572   4.297   4.343   3.994 -0.1339 -0.0444 -0.4629
 7694TIP3    H144573   4.231   4.412   3.998 -1.0077 -0.8902  0.6541
 7694TIP3    H244574   4.380   4.389   3.988 -0.7220  1.0888 -0.1991
 7695TIP3   OH244575   1.962   6.176   6.518 -0.0534  0.7095  0.0012
 7695TIP3    H144576   1.922   6.126   6.447 -0.0144  0.5213  0.1117
 7695TIP3    H244577   1.930   6.265   6.506 -2.0544  0.2213  1.1964
 7696TIP3   OH244578   4.151   6.586  11.475  0.1804  0.0175  0.1978
 7696TIP3    H144579   4.136   6.550  11.388  2.5829 -0.1580 -0.2066
 7696TIP3    H244580   4.171   6.678  11.460 -0.7640  0.3356  0.7417
 7697TIP3   OH244581   2.729   6.304  12.186  0.6674 -0.3664 -0.0294
 7697TIP3    H144582   2.662   6.258  12.236 -2.0749  3.1272 -0.1152
 7697TIP3    H244583   2.757   6.376  12.242  1.7788  0.3185 -1.3846
 7698TIP3   OH244584   2.447   4.270   1.515 -0.2798 -0.1609 -0.0248
 7698TIP3    H144585   2.474   4.205   1.581 -0.9511  1.1727  1.6574
 7698TIP3    H244586   2.476   4.233   1.432  2.0284 -1.2420  1.1360
 7699TIP3   OH244587   6.629   5.990   6.067  0.0823  0.3285  0.0556
 7699TIP3    H144588   6.706   6.004   6.011  1.0465 -0.4645  1.1554
 7699TIP3    H244589   6.658   6.014   6.155 -1.1495  0.6784  0.3875
 7700TIP3   OH244590   5.022   4.760   4.121 -0.9575  0.0480 -0.5352
 7700TIP3    H144591   5.093   4.820   4.099 -2.2891  1.8255 -0.1726
 7700TIP3    H244592   5.045   4.678   4.077  1.2380  0.6024 -0.5112
 7701TIP3   OH244593   3.970   1.136   6.276 -0.5518  0.4114  0.1859
 7701TIP3    H144594   3.937   1.105   6.360 -1.1229  0.8085  0.1208
 7701TIP3    H244595   4.013   1.219   6.296  0.1180  0.0606  0.2178
 7702TIP3   OH244596   3.548   0.842  13.577 -0.3598 -0.4048 -0.0132
 7702TIP3    H144597   3.547   0.937  13.585 -1.6666 -0.2622 -1.3774
 7702TIP3    H244598   3.613   0.824  13.509  0.2201 -0.5479  0.5624
 7703TIP3   OH244599   2.784   3.487   0.238  0.3712 -0.2222 -0.5572
 7703TIP3    H144600   2.703   3.469   0.286  0.5825  0.3973  0.0545
 7703TIP3    H244601   2.850   3.497   0.306  1.0027 -0.8615 -1.0583
 7704TIP3   OH244602   2.956   2.958   3.306 -0.3645 -0.1854  0.0690
 7704TIP3    H144603   2.941   2.942   3.213  3.4871 -2.0809 -0.4108
 7704TIP3    H244604   2.985   3.049   3.310  3.0058 -1.0609 -1.2935
 7705TIP3   OH244605   2.939   1.548  16.615  0.3946 -0.2673 -0.6881
 7705TIP3    H144606   2.915   1.459  16.640 -1.1855  0.7808  1.8372
 7705TIP3    H244607   2.881   1.568  16.541 -3.4890  0.4987  2.2543
 7706TIP3   OH244608   1.309   3.977  16.550  0.1096 -0.3579  0.1406
 7706TIP3    H144609   1.250   3.965  16.624  0.7816 -1.7303  0.4932
 7706TIP3    H244610   1.319   3.889  16.512  0.8662  0.0798 -0.7241
 7707TIP3   OH244611   1.628   2.343   4.047  0.0351 -0.0910 -0.3486
 7707TIP3    H144612   1.537   2.317   4.060 -0.2163  0.8226 -0.2816
 7707TIP3    H244613   1.678   2.262   4.063 -0.8109 -0.8302 -1.2975
 7708TIP3   OH244614   4.845   2.831   5.381  0.5396  0.4572  0.0755
 7708TIP3    H144615   4.770   2.790   5.337  0.5263 -0.7936  1.2149
 7708TIP3    H244616   4.806   2.900   5.434  0.0841 -0.5918  1.1556
 7709TIP3   OH244617   3.523   1.645   5.878  0.7710  0.3897 -0.4846
 7709TIP3    H144618   3.547   1.598   5.958  0.5359 -0.5218 -0.9353
 7709TIP3    H244619   3.591   1.711   5.868  2.4378 -1.3612 -1.0845
 7710TIP3   OH244620   2.431   5.502   2.663  0.2267 -0.0869 -0.1420
 7710TIP3    H144621   2.508   5.484   2.717  0.0023 -1.2168 -0.1843
 7710TIP3    H244622   2.467   5.536   2.581  0.8818 -2.9277 -1.1366
 7711TIP3   OH244623   3.815   4.547  14.377 -0.0521 -0.3131  0.7262
 7711TIP3    H144624   3.771   4.549  14.291 -1.9195  2.1530  1.6313
 7711TIP3    H244625   3.890   4.606  14.367 -2.2016  2.8199  1.5807
 7712TIP3   OH244626   0.627   0.943   5.637  0.3776  0.1007  0.0422
 7712TIP3    H144627   0.612   0.977   5.725  1.3887  1.4257 -0.2534
 7712TIP3    H244628   0.542   0.914   5.607 -0.2746  1.0606  0.8912
 7713TIP3   OH244629   0.409   3.190   1.096 -0.1120  0.5363 -0.0872
 7713TIP3    H144630   0.393   3.250   1.023  2.2839 -0.3627 -1.4938
 7713TIP3    H244631   0.452   3.244   1.162  0.3958  0.7709 -0.5972
 7714TIP3   OH244632   5.326   5.394   2.272  0.2478  0.2261  0.4572
 7714TIP3    H144633   5.354   5.376   2.182 -1.8827  1.6141 -0.5526
 7714TIP3    H244634   5.360   5.481   2.291 -1.7857  1.2278 -0.1835
 7715TIP3   OH244635   6.729   2.675   3.195  0.3133 -0.2839  0.0065
 7715TIP3    H144636   6.729   2.684   3.290  0.8571  2.0141 -0.1376
 7715TIP3    H244637   6.819   2.650   3.173  1.5749  3.5450 -0.0576
 7716TIP3   OH244638   1.885   4.357   4.161  0.2792  0.1343 -0.7554
 7716TIP3    H144639   1.795   4.354   4.129 -0.2949 -0.9015  0.8389
 7716TIP3    H244640   1.881   4.408   4.242  0.9899 -0.4587 -0.3294
 7717TIP3   OH244641   6.353   6.017   6.131 -0.1577 -0.1398 -0.0440
 7717TIP3    H144642   6.412   5.965   6.077  0.0868 -1.0318  1.0446
 7717TIP3    H244643   6.341   6.099   6.082  3.7698  1.0827  0.6701
 7718TIP3   OH244644   4.081   0.335  14.848 -0.6897  0.3490 -1.0878
 7718TIP3    H144645   4.071   0.429  14.833 -1.4394  0.5934  0.6760
 7718TIP3    H244646   3.992   0.304  14.861 -0.2988 -0.2383  0.2617
 7719TIP3   OH244647   0.488   6.461  15.531  0.1297  0.0218  0.3878
 7719TIP3    H144648   0.450   6.399  15.469  0.0705  1.0271 -0.6288
 7719TIP3    H244649   0.526   6.407  15.600  1.6806 -1.2243 -1.3493
 7720TIP3   OH244650   0.331   5.170   4.222  0.6169  0.0300 -0.3488
 7720TIP3    H144651   0.324   5.149   4.129  2.9583 -0.1615 -0.5514
 7720TIP3    H244652   0.370   5.092   4.261  2.7606  1.2724  0.1558
 7721TIP3   OH244653   3.021   3.239  15.622  0.7416 -0.1146  0.6443
 7721TIP3    H144654   3.058   3.202  15.702  0.2435  0.9363  1.3884
 7721TIP3    H244655   2.927   3.237  15.636  0.5776 -1.1757 -0.5061
 7722TIP3   OH244656   1.499   2.157   1.482  0.1037  0.4987 -0.3525
 7722TIP3    H144657   1.512   2.240   1.436 -0.6344 -0.4404 -2.3702
 7722TIP3    H244658   1.520   2.090   1.417  0.3903 -0.9212  1.1330
 7723TIP3   OH244659   5.594   4.703  16.561  0.2639 -0.6739  0.7132
 7723TIP3    H144660   5.615   4.610  16.562  0.8878 -0.5627 -0.5526
 7723TIP3    H244661   5.566   4.722  16.651  0.4174 -2.0041  1.0624
 7724TIP3   OH244662   3.951   1.277  14.914 -0.0318 -0.0971  0.1574
 7724TIP3    H144663   3.876   1.276  14.973 -0.1312  2.1459  0.1310
 7724TIP3    H244664   3.984   1.367  14.918  2.2890 -0.8600 -0.3048
 7725TIP3   OH244665   4.535   1.905  17.129  0.3697 -0.3792  0.0627
 7725TIP3    H144666   4.491   1.902  17.044 -0.3152 -0.2538  0.4047
 7725TIP3    H244667   4.558   1.997  17.141 -1.1084 -0.0763  0.7850
 7726TIP3   OH244668   0.486   3.631  11.240 -0.1460  0.3823  0.2430
 7726TIP3    H144669   0.481   3.583  11.323 -0.3858  0.2338  0.1429
 7726TIP3    H244670   0.398   3.665  11.227  0.6861  3.6291  1.9611
 7727TIP3   OH244671   4.066   4.664  11.737 -0.6664  0.4668  0.5110
 7727TIP3    H144672   4.014   4.679  11.658  1.7825 -0.7180 -1.4718
 7727TIP3    H244673   4.133   4.600  11.710  0.2770 -0.0093  3.5695
 7728TIP3   OH244674   5.464   3.444  16.312 -0.4550 -1.0362  0.2421
 7728TIP3    H144675   5.370   3.427  16.316 -0.1917 -2.7675 -0.1568
 7728TIP3    H244676   5.495   3.392  16.238  0.7208  0.0721 -0.0808
 7729TIP3   OH244677   5.072   1.569  13.870 -0.0437  0.0217 -0.1437
 7729TIP3    H144678   5.077   1.625  13.947  0.0006  0.9202 -0.7845
 7729TIP3    H244679   5.038   1.486  13.903  1.9200 -0.3113  1.2062
 7730TIP3   OH244680   0.967   5.499  14.592 -0.4601 -0.1401  0.0936
 7730TIP3    H144681   0.968   5.407  14.619 -0.4093  0.3068  1.7482
 7730TIP3    H244682   1.041   5.508  14.532 -0.0121 -1.0235  0.4980
 7731TIP3   OH244683   1.020   2.958  13.284 -0.4571  0.2231  0.0524
 7731TIP3    H144684   1.061   2.999  13.207 -1.3920  1.0060 -0.0585
 7731TIP3    H244685   0.926   2.963  13.265 -0.6663 -0.1024  0.9938
 7732TIP3   OH244686   6.192   3.262   2.642  0.0070  0.0578 -0.4469
 7732TIP3    H144687   6.214   3.355   2.645 -0.9451  0.4598 -3.0921
 7732TIP3    H244688   6.105   3.256   2.680  0.8715 -0.1211  1.6077
 7733TIP3   OH244689   6.126   6.127  12.099 -0.2456  0.4512 -0.4128
 7733TIP3    H144690   6.163   6.105  12.184  0.0263  0.9993 -0.3837
 7733TIP3    H244691   6.189   6.091  12.036 -0.6828 -0.3607 -0.3951
 7734TIP3   OH244692   5.787   0.926  14.903  0.2575 -0.0946 -0.4176
 7734TIP3    H144693   5.732   0.991  14.859  2.7739  1.9337 -0.7377
 7734TIP3    H244694   5.759   0.929  14.994 -0.0574  1.0244 -0.5362
 7735TIP3   OH244695   6.820   1.993  14.490 -0.1567 -0.0549 -0.0150
 7735TIP3    H144696   6.824   1.947  14.407 -2.6693 -1.5088  0.5614
 7735TIP3    H244697   6.764   2.069  14.472 -0.6117 -0.3105  0.2848
 7736TIP3   OH244698   4.726   0.985  16.941  0.1164  0.0289 -0.1662
 7736TIP3    H144699   4.637   0.958  16.917 -0.8008  2.2725  0.4155
 7736TIP3    H244700   4.739   0.950  17.029 -0.4087  0.1200 -0.0507
 7737TIP3   OH244701   0.682   0.907  12.393  0.1405  0.5162  0.2259
 7737TIP3    H144702   0.605   0.928  12.445  0.4078 -0.0607  0.8729
 7737TIP3    H244703   0.648   0.892  12.305 -0.9270 -2.3356  0.9941
 7738TIP3   OH244704   1.235   6.222   4.068  0.6364 -0.5072 -0.3789
 7738TIP3    H144705   1.151   6.268   4.066  0.8206 -0.1652 -0.3640
 7738TIP3    H244706   1.292   6.279   4.121  1.0922 -0.3708 -1.0058
 7739TIP3   OH244707   5.780   2.512   6.528  0.0807  0.4886  0.8127
 7739TIP3    H144708   5.822   2.593   6.558  0.4643  0.3602  0.6335
 7739TIP3    H244709   5.687   2.532   6.525  0.3092  1.4668 -0.8937
 7740TIP3   OH244710   6.413   2.217  16.353  0.2736  0.4430 -0.4719
 7740TIP3    H144711   6.459   2.165  16.418  0.9706  1.5136 -0.0712
 7740TIP3    H244712   6.382   2.154  16.288 -0.8355 -0.7135  1.1034
 7741TIP3   OH244713   2.117   4.693   5.125 -0.2545 -0.3190 -0.0188
 7741TIP3    H144714   2.041   4.723   5.074  1.0055 -0.2609 -1.9730
 7741TIP3    H244715   2.105   4.598   5.131 -0.0001 -0.4504 -1.2345
 7742TIP3   OH244716   3.486   2.001  12.255 -0.1147  0.0070 -0.3641
 7742TIP3    H144717   3.565   2.031  12.300  0.8281  0.1973 -2.0681
 7742TIP3    H244718   3.517   1.933  12.196 -1.1069  0.5275 -1.5169
 7743TIP3   OH244719   0.969   2.989   5.087 -0.6769 -0.2882 -0.0772
 7743TIP3    H144720   0.894   3.019   5.036 -1.9069 -0.5216  1.5208
 7743TIP3    H244721   0.931   2.946   5.164  1.0495  1.1583  1.7049
 7744TIP3   OH244722   0.824   2.716  11.789  0.6700 -0.2808 -0.1304
 7744TIP3    H144723   0.762   2.644  11.793 -1.5657  1.5705  3.0418
 7744TIP3    H244724   0.785   2.779  11.729  0.0771  0.3414  0.8865
 7745TIP3   OH244725   4.862   2.390   5.852 -0.4047 -0.1420 -0.1563
 7745TIP3    H144726   4.807   2.389   5.930  1.1768 -1.4527  1.0133
 7745TIP3    H244727   4.820   2.328   5.792 -1.3947  0.5525 -0.2003
 7746TIP3   OH244728   0.467   0.059   0.998 -0.3335 -0.0246 -0.8666
 7746TIP3    H144729   0.475   0.145   0.957 -0.9727  0.4749  0.0215
 7746TIP3    H244730   0.379   0.059   1.035 -0.3977 -1.1343 -1.0098
 7747TIP3   OH244731   5.170   6.064   2.785 -0.0041  0.1386  0.5558
 7747TIP3    H144732   5.100   6.054   2.849  0.8871  1.2263  1.7588
 7747TIP3    H244733   5.238   6.003   2.814  0.2865  0.4270  0.4852
 7748TIP3   OH244734   0.933   6.734   1.087 -0.4628 -0.7394  0.4478
 7748TIP3    H144735   0.860   6.730   1.026  0.7306 -0.0456 -1.1253
 7748TIP3    H244736   0.959   6.826   1.086 -0.5033 -0.6902  2.1501
 7749TIP3   OH244737   1.763   1.620  11.395  0.3502  0.5447 -0.2071
 7749TIP3    H144738   1.690   1.672  11.429  0.6917 -0.4374  2.2459
 7749TIP3    H244739   1.819   1.605  11.472  0.0315 -3.8242 -0.6094
 7750TIP3   OH244740   3.386   0.056   5.301  0.0520  0.1320 -0.6008
 7750TIP3    H144741   3.463   0.112   5.295 -0.1986  0.7714  1.4444
 7750TIP3    H244742   3.389   0.003   5.221  2.0841  0.7815 -1.0209
 7751TIP3   OH244743   5.284   6.800   2.538  0.0095 -0.8539 -0.0004
 7751TIP3    H144744   5.312   6.751   2.461 -1.3874 -0.2768 -0.9105
 7751TIP3    H244745   5.366   6.832   2.577  0.7660 -1.6272 -0.9222
 7752TIP3   OH244746   1.030   0.660  10.351 -0.4126  0.5619  0.3173
 7752TIP3    H144747   1.082   0.584  10.376 -1.6463  0.5041  3.1680
 7752TIP3    H244748   0.965   0.668  10.421 -2.3547  2.3622 -1.5405
 7753TIP3   OH244749   0.171   3.735   5.376 -0.1665 -0.2810  0.1640
 7753TIP3    H144750   0.257   3.708   5.342 -0.1203 -2.9865  2.1003
 7753TIP3    H244751   0.108   3.688   5.320 -0.3889  0.7086 -0.4488
 7754TIP3   OH244752   2.200   5.773   6.292  0.3649 -0.0642  0.1711
 7754TIP3    H144753   2.150   5.711   6.344  1.0987  0.4067  1.4689
 7754TIP3    H244754   2.134   5.826   6.248 -0.2862 -1.8205 -1.0997
 7755TIP3   OH244755   4.132   0.354  16.941  0.2813  0.4102 -0.6165
 7755TIP3    H144756   4.076   0.392  17.008 -0.9397 -0.2354 -1.2461
 7755TIP3    H244757   4.087   0.372  16.858  1.0934  0.0415 -1.1512
 7756TIP3   OH244758   1.912   2.653  10.871  0.4276 -0.0331 -0.1151
 7756TIP3    H144759   1.827   2.650  10.827  1.2180 -1.2817 -1.6484
 7756TIP3    H244760   1.890   2.649  10.964 -1.2228  0.4530 -0.4501
 7757TIP3   OH244761   0.101   6.356  12.015  0.0451  0.2645  0.2226
 7757TIP3    H144762   0.109   6.287  12.081  0.0990  0.1924  0.1399
 7757TIP3    H244763   0.170   6.337  11.952 -1.7665 -1.3326 -1.4093
 7758TIP3   OH244764   0.347   4.414   2.251  0.3561 -0.4589  0.5777
 7758TIP3    H144765   0.403   4.492   2.251  2.4847 -1.7914 -2.1124
 7758TIP3    H244766   0.406   4.342   2.228 -1.7772 -2.6912  1.6210
 7759TIP3   OH244767   4.327   3.398  12.549  0.3393 -0.4510 -0.5225
 7759TIP3    H144768   4.316   3.350  12.631  1.1008  2.0390  1.1712
 7759TIP3    H244769   4.239   3.432  12.529  0.0312 -1.5451 -1.1175
 7760TIP3   OH244770   1.306   3.465  16.977  0.5936  0.6798  0.0482
 7760TIP3    H144771   1.322   3.551  17.016 -1.0600  0.3868  1.4424
 7760TIP3    H244772   1.213   3.465  16.955  0.3385 -1.0757  0.9428
 7761TIP3   OH244773   6.339   4.194   2.638  0.3823  0.1624 -0.1471
 7761TIP3    H144774   6.268   4.141   2.674 -0.4098  0.5281 -1.1122
 7761TIP3    H244775   6.341   4.172   2.545  1.5852  0.1179 -0.1236
 7762TIP3   OH244776   5.293   4.645  16.448  0.1631 -0.4869  0.1356
 7762TIP3    H144777   5.385   4.623  16.456 -0.1031 -1.9112 -0.4454
 7762TIP3    H244778   5.251   4.606  16.524 -0.0181 -0.1264  0.2269
 7763TIP3   OH244779   6.692   6.105  11.807  0.1678 -0.0053  0.4821
 7763TIP3    H144780   6.654   6.035  11.753  1.1782  0.3852 -0.8016
 7763TIP3    H244781   6.787   6.096  11.795  0.3813  0.6063  1.5738
 7764TIP3   OH244782   1.292   3.693  16.708 -0.0031 -0.6659 -0.6846
 7764TIP3    H144783   1.387   3.698  16.695  0.0614 -0.0625 -0.0430
 7764TIP3    H244784   1.277   3.602  16.736  0.1267 -1.3237 -2.6406
 7765TIP3   OH244785   4.731   2.122  13.312 -0.2800 -0.0044 -0.3175
 7765TIP3    H144786   4.757   2.204  13.353  1.1681 -0.0831 -1.0195
 7765TIP3    H244787   4.643   2.140  13.278  0.6290  1.8605 -1.9293
 7766TIP3   OH244788   1.500   2.046  12.288  0.2130  0.3261  0.4089
 7766TIP3    H144789   1.517   1.972  12.345 -1.4284 -0.5247 -0.1316
 7766TIP3    H244790   1.410   2.033  12.257 -0.0912  2.4692  0.1840
 7767TIP3   OH244791   2.901   5.173  10.647 -0.7627 -0.2264  0.8200
 7767TIP3    H144792   2.854   5.249  10.614 -0.3186  0.5328  1.8420
 7767TIP3    H244793   2.863   5.099  10.602 -2.0016  0.4983  0.6293
 7768TIP3   OH244794   4.551   0.517  16.842  0.2555  0.2839 -0.2032
 7768TIP3    H144795   4.597   0.564  16.911  1.3237  0.1638 -0.8160
 7768TIP3    H244796   4.574   0.564  16.762  1.7205 -1.4915 -0.8998
 7769TIP3   OH244797   2.345   2.726  13.873 -0.3693  0.4502  0.3334
 7769TIP3    H144798   2.394   2.804  13.899  0.0680  0.2079  0.2499
 7769TIP3    H244799   2.303   2.696  13.954 -2.3904  2.0291 -0.0339
 7770TIP3   OH244800   4.041   3.297  14.473  0.5008  0.4112  0.1891
 7770TIP3    H144801   4.031   3.354  14.397 -0.3130  1.1499  0.8239
 7770TIP3    H244802   3.962   3.242  14.473  0.8665 -0.1256  0.0729
 7771TIP3   OH244803   6.315   6.136   3.445 -0.2420 -0.2745  0.0085
 7771TIP3    H144804   6.333   6.200   3.514 -0.7564 -0.4571  0.3186
 7771TIP3    H244805   6.346   6.053   3.481  1.1491 -0.0780 -0.7096
 7772TIP3   OH244806   1.465   2.225  16.001  0.4235  0.2415  0.4465
 7772TIP3    H144807   1.497   2.198  16.087 -2.5445 -2.6941  0.8629
 7772TIP3    H244808   1.489   2.153  15.943  0.6798  1.2673 -0.7473
 7773TIP3   OH244809   2.504   5.179   2.259  0.5089 -0.1905  0.2640
 7773TIP3    H144810   2.582   5.206   2.307 -0.1930 -2.0857  2.7045
 7773TIP3    H244811   2.433   5.185   2.324 -1.1827  0.3669 -1.5376
 7774TIP3   OH244812   1.949   2.251  14.433  0.1364  0.0107 -0.2177
 7774TIP3    H144813   1.910   2.337  14.453  0.6089  0.0438  0.5722
 7774TIP3    H244814   1.893   2.216  14.363 -0.5212  0.6300 -0.0213
 7775TIP3   OH244815   4.241   5.939  11.943  0.4728 -0.2303  0.0169
 7775TIP3    H144816   4.295   5.987  12.007  2.0720 -1.2050 -0.5576
 7775TIP3    H244817   4.151   5.951  11.975  0.9469  1.8286  0.7559
 7776TIP3   OH244818   5.678   2.837  16.570 -0.3623  0.0840  0.2561
 7776TIP3    H144819   5.753   2.884  16.532  0.1498  0.1469  1.3129
 7776TIP3    H244820   5.696   2.745  16.549  0.7679 -0.0633  1.6867
 7777TIP3   OH244821   2.090   4.868  12.591 -0.5072 -0.7341 -0.6714
 7777TIP3    H144822   2.038   4.941  12.627 -0.8689 -0.7761 -1.1029
 7777TIP3    H244823   2.070   4.795  12.649  0.5106 -0.2912  0.2773
 7778TIP3   OH244824   5.736   2.073  11.860 -0.2866  0.1085  0.0758
 7778TIP3    H144825   5.664   2.023  11.822 -1.6146  1.2076  1.0437
 7778TIP3    H244826   5.813   2.017  11.847 -0.9499 -0.3246 -2.5666
 7779TIP3   OH244827   3.566   0.426   5.228 -0.2967  0.7756 -0.3192
 7779TIP3    H144828   3.529   0.408   5.142 -2.2398  0.9624  0.4362
 7779TIP3    H244829   3.660   0.433   5.213 -0.3103 -1.7128 -1.9908
 7780TIP3   OH244830   3.796   1.479   0.316 -0.1109  0.1366 -0.3383
 7780TIP3    H144831   3.797   1.485   0.220  1.1109 -1.2482 -0.4318
 7780TIP3    H244832   3.874   1.429   0.339 -0.9966 -0.5942  1.3138
 7781TIP3   OH244833   6.551   0.579  14.660 -0.3688  0.1293 -0.0841
 7781TIP3    H144834   6.586   0.497  14.626  1.8561  0.1086  1.9647
 7781TIP3    H244835   6.492   0.553  14.730 -0.7486  0.2643 -0.3515
 7782TIP3   OH244836   3.431   5.408  17.045  0.5980  0.1401 -0.6338
 7782TIP3    H144837   3.378   5.329  17.038 -1.9338  1.6989 -0.6356
 7782TIP3    H244838   3.462   5.408  17.135 -1.4337  0.2712  0.1315
 7783TIP3   OH244839   1.884   1.298  14.258 -0.0204  0.0660 -0.0547
 7783TIP3    H144840   1.958   1.359  14.258  2.4324 -2.7124 -0.7360
 7783TIP3    H244841   1.846   1.307  14.170  1.0254 -0.1360 -0.5451
 7784TIP3   OH244842   6.570   0.221   2.091  0.3427  0.4568 -0.2427
 7784TIP3    H144843   6.651   0.219   2.040  1.5660  1.0225  1.5769
 7784TIP3    H244844   6.519   0.146   2.059  1.3885  0.3288 -1.6932
 7785TIP3   OH244845   6.206   5.070   0.500  0.0931 -0.1179 -0.1822
 7785TIP3    H144846   6.231   5.162   0.490 -0.9078  0.0757 -1.1377
 7785TIP3    H244847   6.283   5.028   0.538  0.9797  0.8955 -0.7871
 7786TIP3   OH244848   6.549   3.816  12.122 -0.4119 -0.3352 -0.0955
 7786TIP3    H144849   6.524   3.867  12.045 -1.8704 -0.4748  0.2589
 7786TIP3    H244850   6.468   3.776  12.152 -0.0615  0.4380  2.0569
 7787TIP3   OH244851   5.920   2.747  12.430  0.1497  0.2303 -0.2545
 7787TIP3    H144852   5.991   2.735  12.368  0.2526 -0.9397  0.0583
 7787TIP3    H244853   5.963   2.764  12.514  0.0067  2.4596 -0.5842
 7788TIP3   OH244854   3.066   5.143   0.857  0.7335  0.0598 -0.0084
 7788TIP3    H144855   3.113   5.061   0.874  0.1388 -0.1952  0.4171
 7788TIP3    H244856   2.982   5.132   0.901 -0.1195  0.1253 -1.5444
 7789TIP3   OH244857   3.765   0.113   1.036 -0.3864  0.2605  0.4219
 7789TIP3    H144858   3.851   0.095   0.998 -1.4668 -1.0350 -1.5392
 7789TIP3    H244859   3.756   0.208   1.033  0.7672  0.3698  0.1921
 7790TIP3   OH244860   1.869   3.880   1.573 -0.5351  0.5035  0.4121
 7790TIP3    H144861   1.953   3.901   1.531 -0.7620 -0.2504 -0.4606
 7790TIP3    H244862   1.845   3.795   1.536 -0.3166 -0.6477  2.7807
 7791TIP3   OH244863   0.253   6.236   4.898  0.5394  0.3113  0.1841
 7791TIP3    H144864   0.168   6.275   4.919 -0.2469 -2.1096  1.9853
 7791TIP3    H244865   0.266   6.169   4.965  3.4285 -0.1030 -0.6390
 7792TIP3   OH244866   6.403   0.299  11.233  0.1934 -0.8702  0.4236
 7792TIP3    H144867   6.320   0.253  11.219 -0.7451  1.0820 -0.9750
 7792TIP3    H244868   6.458   0.270  11.160 -0.3943  0.1523 -0.4531
 7793TIP3   OH244869   3.464   2.915   4.926 -0.2294  0.1550 -0.0375
 7793TIP3    H144870   3.489   2.869   4.847  1.1903 -1.8220  1.4544
 7793TIP3    H244871   3.369   2.910   4.929 -0.1634 -4.6943  1.0421
 7794TIP3   OH244872   3.906   4.597   4.811  0.6790 -0.1653  0.1225
 7794TIP3    H144873   3.819   4.600   4.850  1.8577  1.5793  2.8936
 7794TIP3    H244874   3.933   4.505   4.821  0.4921 -0.0220  2.6413
 7795TIP3   OH244875   4.214   3.597   5.507  0.4209  0.0936 -0.4367
 7795TIP3    H144876   4.194   3.677   5.458 -0.9187 -0.5001 -0.8988
 7795TIP3    H244877   4.195   3.620   5.598  1.2087  0.6600 -0.4071
 7796TIP3   OH244878   0.157   4.129   3.611  0.3197  0.1699 -0.0631
 7796TIP3    H144879   0.106   4.079   3.674 -1.5156  0.4101 -1.2814
 7796TIP3    H244880   0.225   4.171   3.663 -1.8353  1.3385  1.9873
 7797TIP3   OH244881   1.910   4.317   5.310 -0.1627  0.2071  0.0038
 7797TIP3    H144882   1.838   4.254   5.322  0.9058 -1.8632 -3.1539
 7797TIP3    H244883   1.988   4.270   5.340  0.1963  1.7491  1.6665
 7798TIP3   OH244884   5.864   4.981  14.025  0.0493  0.6673 -0.6612
 7798TIP3    H144885   5.779   4.968  13.983  0.5653 -0.5043 -1.4001
 7798TIP3    H244886   5.920   4.912  13.988  0.6816 -0.0837  1.5679
 7799TIP3   OH244887   1.230   0.496   3.616 -0.4945 -0.2122  0.3510
 7799TIP3    H144888   1.145   0.515   3.655 -0.7698 -2.1573  0.8182
 7799TIP3    H244889   1.291   0.556   3.660 -1.5540  1.0296  0.1808
 7800TIP3   OH244890   3.385   6.355   2.112  0.2817  0.3170 -0.8170
 7800TIP3    H144891   3.481   6.359   2.109  0.3564 -1.1817 -1.0446
 7800TIP3    H244892   3.365   6.277   2.163 -0.8199  0.3290 -1.1972
 7801TIP3   OH244893   1.251   6.805   3.064  0.1633 -0.1913  0.6282
 7801TIP3    H144894   1.162   6.786   3.032 -0.0503  1.4694  0.1490
 7801TIP3    H244895   1.238   6.875   3.128  1.2367  0.9432 -0.3546
 7802TIP3   OH244896   3.216   0.859  10.428  0.0631 -0.7563  0.2329
 7802TIP3    H144897   3.202   0.768  10.453  1.3432 -0.7726  0.9352
 7802TIP3    H244898   3.255   0.899  10.505 -1.3567  0.6380  0.2814
 7803TIP3   OH244899   5.097   5.551  14.581  0.3313  0.1621  0.1675
 7803TIP3    H144900   5.095   5.613  14.509 -0.4549 -0.3879 -0.3097
 7803TIP3    H244901   5.134   5.599  14.655  1.2830  0.6901 -0.6394
 7804TIP3   OH244902   4.638   4.426  13.231  0.1737  0.1195  0.1344
 7804TIP3    H144903   4.555   4.471  13.246  0.5241  1.9813 -2.7769
 7804TIP3    H244904   4.612   4.340  13.197 -0.5465  0.4804 -0.2524
 7805TIP3   OH244905   0.435   4.530  14.205  0.0751  0.2459 -0.7196
 7805TIP3    H144906   0.436   4.438  14.230  1.3087 -0.2401 -2.3965
 7805TIP3    H244907   0.370   4.535  14.134  1.1668  0.3038 -1.7492
 7806TIP3   OH244908   3.557   2.919  15.472 -0.5447  0.9004 -0.1661
 7806TIP3    H144909   3.489   2.976  15.437 -2.4125  0.1775  2.0081
 7806TIP3    H244910   3.509   2.849  15.517  1.5772  0.9115  2.4231
 7807TIP3   OH244911   4.526   2.368   3.495 -0.3953 -0.5667 -0.9995
 7807TIP3    H144912   4.563   2.372   3.407  2.7437  0.2878  0.2412
 7807TIP3    H244913   4.597   2.337   3.550 -2.1593 -0.7504  1.3321
 7808TIP3   OH244914   2.750   5.362  10.516  0.1220  0.3556  0.1791
 7808TIP3    H144915   2.673   5.402  10.475  0.3820 -0.6462 -1.3869
 7808TIP3    H244916   2.781   5.427  10.579 -2.0036  0.7771  0.8903
 7809TIP3   OH244917   1.485   0.304   0.825 -0.5043 -0.2798  0.0152
 7809TIP3    H144918   1.461   0.290   0.733 -1.3944  1.7288 -0.1106
 7809TIP3    H244919   1.451   0.226   0.870 -1.9481 -0.3220 -1.0592
 7810TIP3   OH244920   6.267   3.320  11.622 -0.0510 -0.2008 -0.5784
 7810TIP3    H144921   6.181   3.351  11.594 -1.5425  0.1847  3.7517
 7810TIP3    H244922   6.318   3.400  11.634 -0.4303 -0.1173  0.5774
 7811TIP3   OH244923   5.757   0.889   0.026 -0.6084 -0.3349 -0.3619
 7811TIP3    H144924   5.796   0.822   0.083 -1.5123  0.7482  1.6640
 7811TIP3    H244925   5.705   0.840  -0.037  0.2064 -1.6080 -0.0821
 7812TIP3   OH244926   4.943   1.785  15.557 -0.1382 -0.0520 -0.0297
 7812TIP3    H144927   5.006   1.768  15.626  0.3876  0.2196 -0.4283
 7812TIP3    H244928   4.864   1.815  15.602  0.1170 -0.1165  0.4589
 7813TIP3   OH244929   4.688   3.544  13.466  0.7242  0.0036 -0.2785
 7813TIP3    H144930   4.747   3.524  13.394  1.0858 -0.9023  0.2493
 7813TIP3    H244931   4.738   3.602  13.523  0.3650  0.8862 -0.8504
 7814TIP3   OH244932   0.582   3.006   5.557  0.1840 -0.2440  0.3891
 7814TIP3    H144933   0.554   3.098   5.560 -0.3448 -0.2069 -2.4548
 7814TIP3    H244934   0.545   2.973   5.475  3.4992 -1.9098 -0.6175
 7815TIP3   OH244935   2.382   3.617  12.232 -0.3931 -0.0555  0.3700
 7815TIP3    H144936   2.459   3.651  12.187 -0.3065 -1.4426 -0.5854
 7815TIP3    H244937   2.375   3.671  12.311  1.7237 -0.0884  0.6363
 7816TIP3   OH244938   5.045   3.534  11.858  0.1931 -0.0837  0.0880
 7816TIP3    H144939   5.025   3.466  11.794  0.3826 -2.1045  2.0409
 7816TIP3    H244940   5.134   3.516  11.886  0.2145  0.9282  0.7466
 7817TIP3   OH244941   2.283   0.951   3.169  0.3485 -0.4476  0.1772
 7817TIP3    H144942   2.199   0.916   3.139  0.8867 -1.9090  0.2755
 7817TIP3    H244943   2.261   1.035   3.209 -1.1789 -1.0812  0.7870
 7818TIP3   OH244944   0.126   4.479  13.335 -0.2577 -0.2307 -0.1387
 7818TIP3    H144945   0.122   4.385  13.313  0.1825  0.1899 -2.2245
 7818TIP3    H244946   0.212   4.489  13.376  0.2205 -0.5754 -1.0013
 7819TIP3   OH244947   6.735   2.697  15.247 -0.4694 -0.2587  0.1775
 7819TIP3    H144948   6.788   2.618  15.238 -0.3395 -0.0094 -1.4934
 7819TIP3    H244949   6.798   2.767  15.263 -0.6005 -0.4902  1.8955
 7820TIP3   OH244950   2.522   6.180  14.418  0.1088  0.7987  0.1985
 7820TIP3    H144951   2.494   6.137  14.498  0.0094  0.2294 -0.1351
 7820TIP3    H244952   2.519   6.273  14.438 -3.0450  0.8798 -0.1122
 7821TIP3   OH244953   2.791   2.776  12.081 -0.2587 -0.2889  0.2286
 7821TIP3    H144954   2.722   2.842  12.081  1.0591  1.2036 -0.6431
 7821TIP3    H244955   2.844   2.796  12.158  0.9331  0.6437 -0.7700
 7822TIP3   OH244956   2.362   0.274  17.008 -0.4664 -0.0144  0.1750
 7822TIP3    H144957   2.277   0.247  17.042 -0.7734 -0.1128 -0.6481
 7822TIP3    H244958   2.395   0.337  17.072 -0.9097 -0.3816  0.7776
 7823TIP3   OH244959   5.329   0.851   0.778 -0.2877 -0.0035  0.2141
 7823TIP3    H144960   5.298   0.938   0.801  1.0783  0.1159  1.7708
 7823TIP3    H244961   5.402   0.834   0.838  0.7003 -1.4586 -1.2905
 7824TIP3   OH244962   2.573   4.636   3.904  0.3527 -0.0184  0.9611
 7824TIP3    H144963   2.526   4.620   3.986 -1.2089 -3.1993 -0.3868
 7824TIP3    H244964   2.651   4.580   3.910  0.4053 -0.0097  0.3962
 7825TIP3   OH244965   5.726   0.635  13.318 -0.3115 -0.0444  0.0967
 7825TIP3    H144966   5.639   0.665  13.346  1.0636  2.3432  2.2546
 7825TIP3    H244967   5.762   0.709  13.269  1.0644 -0.3856  0.5474
 7826TIP3   OH244968   6.464   3.835  14.095  0.0307  0.0183 -0.0907
 7826TIP3    H144969   6.547   3.882  14.086 -1.8007  3.3036 -1.1776
 7826TIP3    H244970   6.461   3.811  14.188  0.5214  3.3709  0.9125
 7827TIP3   OH244971   4.794   6.236   0.670 -0.3949  0.1950  0.1162
 7827TIP3    H144972   4.757   6.226   0.758 -0.5070 -0.2439  0.0212
 7827TIP3    H244973   4.777   6.152   0.627 -0.4501  0.4480 -0.3663
 7828TIP3   OH244974   0.229   1.299  12.109 -0.1300  0.1765  0.0021
 7828TIP3    H144975   0.136   1.313  12.088  0.2202  1.6038 -0.7120
 7828TIP3    H244976   0.235   1.314  12.204 -0.6354  0.0344  0.0600
 7829TIP3   OH244977   0.536   3.527  11.492  0.2325  0.1246  0.0371
 7829TIP3    H144978   0.523   3.614  11.529 -2.4083 -0.2067  0.0648
 7829TIP3    H244979   0.592   3.482  11.555 -2.8951  0.0651  3.0455
 7830TIP3   OH244980   4.289   2.323  16.545  0.2003 -0.1104 -0.1140
 7830TIP3    H144981   4.210   2.375  16.532 -0.3013 -0.6295  0.7629
 7830TIP3    H244982   4.317   2.343  16.635  0.3923 -0.8086 -0.0081
 7831TIP3   OH244983   5.118   3.510   5.816 -0.0584 -0.2024  0.3017
 7831TIP3    H144984   5.141   3.488   5.906  1.2311  0.3916  0.1467
 7831TIP3    H244985   5.038   3.561   5.823 -0.1904 -0.5059  1.0748
 7832TIP3   OH244986   2.492   5.365  11.613 -0.1911  0.0061 -0.2773
 7832TIP3    H144987   2.545   5.325  11.544  1.1053 -0.4331  0.9134
 7832TIP3    H244988   2.526   5.327  11.694 -0.9338  1.3062  0.6801
 7833TIP3   OH244989   3.389   1.745   1.784  0.5420  0.3880  0.1010
 7833TIP3    H144990   3.327   1.776   1.850 -0.4739 -0.2251 -0.5281
 7833TIP3    H244991   3.459   1.704   1.834 -0.1697  0.0028  0.8164
 7834TIP3   OH244992   3.467   3.562   3.332 -0.1959 -0.6479  0.2607
 7834TIP3    H144993   3.383   3.607   3.322  0.0441 -0.0875  0.7615
 7834TIP3    H244994   3.517   3.587   3.254 -0.2922 -0.5608  0.2270
 7835TIP3   OH244995   0.182   2.566  11.469 -0.0848  0.6213  0.3590
 7835TIP3    H144996   0.256   2.512  11.496  1.3084  2.3204  0.1122
 7835TIP3    H244997   0.219   2.653  11.456 -1.6740  1.0176 -2.0872
 7836TIP3   OH244998   0.805   0.323   2.040 -0.0399  0.5483  0.1921
 7836TIP3    H144999   0.755   0.245   2.018  1.6497 -0.6265  0.3261
 7836TIP3    H245000   0.830   0.311   2.131  0.0862  1.3382  0.2689
 7837TIP3   OH245001   4.092   2.013   0.180 -0.1495 -0.5285  0.1731
 7837TIP3    H145002   4.166   2.072   0.194  0.2118 -0.7547 -0.7495
 7837TIP3    H245003   4.017   2.061   0.216  0.3710 -0.1332  0.7586
 7838TIP3   OH245004   1.148   1.403  11.235  0.1647  0.0264 -0.4039
 7838TIP3    H145005   1.099   1.419  11.316 -0.7999 -3.1716 -0.2275
 7838TIP3    H245006   1.238   1.428  11.256 -0.6186  2.4541  0.4832
 7839TIP3   OH245007   4.190   1.773  15.433 -0.0533  0.7353  0.1322
 7839TIP3    H145008   4.196   1.678  15.442  0.7307  0.6048 -1.4511
 7839TIP3    H245009   4.208   1.807  15.521  0.4895 -0.5506  0.5373
 7840TIP3   OH245010   4.893   0.056   2.450 -0.1959  0.3376 -0.0644
 7840TIP3    H145011   4.931   0.141   2.428 -0.6353  0.1929 -1.4656
 7840TIP3    H245012   4.801   0.064   2.424 -0.4486 -0.2686  0.6218
 7841TIP3   OH245013   0.658   0.219   3.347 -0.3310 -0.0551 -0.3662
 7841TIP3    H145014   0.657   0.306   3.387 -0.8147  0.2451 -1.0054
 7841TIP3    H245015   0.705   0.164   3.409 -0.7773  0.4699  0.4541
 7842TIP3   OH245016   4.644   1.677  17.014 -0.3784  0.1306  0.3908
 7842TIP3    H145017   4.687   1.748  16.967  0.3744 -0.7310 -0.2551
 7842TIP3    H245018   4.636   1.709  17.103  0.0205  0.9968  0.1295
 7843TIP3   OH245019   0.360   3.890  13.238 -0.6947 -0.3586  0.1482
 7843TIP3    H145020   0.376   3.801  13.267 -0.3114 -0.4579 -0.3645
 7843TIP3    H245021   0.386   3.945  13.312 -0.5443 -0.6532  0.3111
 7844TIP3   OH245022   3.029   0.294   2.792  0.6765  0.3441  0.0130
 7844TIP3    H145023   3.118   0.261   2.799  0.6414  0.2198 -0.1037
 7844TIP3    H245024   2.978   0.218   2.761 -0.0030 -0.4231  2.7751
 7845TIP3   OH245025   0.805   1.331  11.328  0.4626  0.5847  0.5249
 7845TIP3    H145026   0.858   1.408  11.346  0.9237  0.3784  0.0677
 7845TIP3    H245027   0.850   1.260  11.376  0.2027  0.5423  0.7090
 7846TIP3   OH245028   4.693   0.633   0.250 -0.2646  0.0809 -0.4932
 7846TIP3    H145029   4.631   0.606   0.318  0.1703  0.7578  0.1967
 7846TIP3    H245030   4.722   0.551   0.210  0.1258 -0.3987  0.7298
 7847TIP3   OH245031   4.857   5.111  14.042  0.5773 -0.1295  0.3746
 7847TIP3    H145032   4.928   5.145  13.987  1.8621 -2.0355  0.7922
 7847TIP3    H245033   4.852   5.018  14.022 -0.6820 -0.3738  1.6158
 7848TIP3   OH245034   2.833   4.173   0.930 -0.3139  0.1360  0.7662
 7848TIP3    H145035   2.924   4.179   0.902 -0.7550 -0.2902 -0.9049
 7848TIP3    H245036   2.813   4.079   0.924 -1.0638  0.3131  0.4086
 7849TIP3   OH245037   5.869   6.357  11.231  0.0581 -0.1778  0.1327
 7849TIP3    H145038   5.822   6.439  11.243  0.0779 -0.1771  0.2017
 7849TIP3    H245039   5.887   6.352  11.137 -2.5220 -1.4777 -0.3936
 7850TIP3   OH245040   1.281   6.339  17.123  0.2735  0.0055 -0.2506
 7850TIP3    H145041   1.308   6.265  17.069 -0.7350 -0.8952  0.4440
 7850TIP3    H245042   1.230   6.394  17.063  0.9547  0.1099 -0.7455
 7851TIP3   OH245043   4.690   0.932  12.424 -0.8345 -0.4890 -0.2974
 7851TIP3    H145044   4.604   0.893  12.442 -0.1628 -1.4242  1.0695
 7851TIP3    H245045   4.730   0.874  12.360 -0.3178 -1.4143  0.8279
 7852TIP3   OH245046   2.385   5.639  11.658  0.0114  0.7156  0.1010
 7852TIP3    H145047   2.440   5.694  11.603  1.1187  0.7568  1.2003
 7852TIP3    H245048   2.426   5.553  11.657  0.1678  0.7648  0.9959
 7853TIP3   OH245049   5.458   5.065  16.568 -0.0627  0.3804  0.3555
 7853TIP3    H145050   5.537   5.053  16.515 -0.1445  1.1141  0.0628
 7853TIP3    H245051   5.490   5.093  16.654 -0.0139  0.9351  0.1574
 7854TIP3   OH245052   4.282   0.620   2.206  0.0967 -0.4482  0.0971
 7854TIP3    H145053   4.210   0.571   2.167 -0.1648 -0.3037  0.3910
 7854TIP3    H245054   4.275   0.601   2.300 -0.2126  0.4146  0.2537
 7855TIP3   OH245055   3.079   6.662   1.408 -0.9512  0.3000  0.0850
 7855TIP3    H145056   3.017   6.732   1.425  0.2170  1.3866 -0.0235
 7855TIP3    H245057   3.065   6.639   1.316  0.6564  2.4611 -0.7603
 7856TIP3   OH245058   3.630   0.717   0.178  0.0661  0.1965  0.0155
 7856TIP3    H145059   3.586   0.676   0.252  0.7638 -0.2935  0.1661
 7856TIP3    H245060   3.671   0.795   0.215  1.6469 -0.8050  0.4986
 7857TIP3   OH245061   1.267   1.229   2.802 -0.0659 -0.0578  0.2448
 7857TIP3    H145062   1.185   1.275   2.820 -0.9557 -0.8779 -1.4822
 7857TIP3    H245063   1.279   1.171   2.878 -0.9679  0.2110  0.6081
 7858TIP3   OH245064   6.006   6.364   3.791 -0.4588 -0.0373  0.4739
 7858TIP3    H145065   6.023   6.456   3.807 -2.3754  0.5648 -0.5959
 7858TIP3    H245066   5.917   6.362   3.754  0.1355 -2.1485 -1.0328
 7859TIP3   OH245067   0.493   0.899  16.746  0.2806  0.4693  0.1227
 7859TIP3    H145068   0.531   0.985  16.765 -0.1458  0.5232  0.7476
 7859TIP3    H245069   0.420   0.917  16.687  1.8585  0.2639 -2.0218
 7860TIP3   OH245070   2.198   3.774  10.987  0.3625  0.1320  0.0759
 7860TIP3    H145071   2.193   3.854  10.934  1.4436 -0.2243 -0.5866
 7860TIP3    H245072   2.228   3.804  11.073  0.3609  0.4908 -0.0449
 7861TIP3   OH245073   0.308   4.243  10.531  0.2719  0.1992 -0.2538
 7861TIP3    H145074   0.382   4.217  10.586  1.0945  2.6390 -0.0800
 7861TIP3    H245075   0.333   4.215  10.443 -0.1698 -1.9643  0.2494
 7862TIP3   OH245076   4.372   1.960  11.371  0.2390 -0.4943 -0.4949
 7862TIP3    H145077   4.347   2.023  11.303  0.7066 -0.3338 -0.5169
 7862TIP3    H245078   4.467   1.960  11.371  0.2935  0.7124  1.2385
 7863TIP3   OH245079   1.918   4.382  13.679  0.6339 -0.6625 -0.3244
 7863TIP3    H145080   1.953   4.471  13.688  1.2108 -0.7393 -1.5765
 7863TIP3    H245081   1.959   4.348  13.599 -2.4541 -0.6928 -2.0432
 7864TIP3   OH245082   2.044   6.684   2.656  0.1333  0.2496  0.0178
 7864TIP3    H145083   1.959   6.642   2.668  0.2652  0.2527  0.9879
 7864TIP3    H245084   2.088   6.630   2.590 -0.5312  0.1243 -0.3340
 7865TIP3   OH245085   0.116   2.635   5.731  0.4330  0.0349 -0.6764
 7865TIP3    H145086   0.179   2.664   5.666  0.5507  2.5392  0.4691
 7865TIP3    H245087   0.054   2.707   5.739 -0.4031 -0.8055  0.9412
 7866TIP3   OH245088   4.711   5.126   1.337 -0.1124 -0.7450  0.0833
 7866TIP3    H145089   4.750   5.041   1.359  1.2164 -0.7877 -2.1385
 7866TIP3    H245090   4.617   5.112   1.341  0.0071 -1.3770  3.0036
 7867TIP3   OH245091   5.763   4.866   2.998  0.1044  0.2817  0.0315
 7867TIP3    H145092   5.798   4.789   3.042  0.7808 -0.5237 -1.7944
 7867TIP3    H245093   5.705   4.831   2.930  1.2787  1.2831 -1.5627
 7868TIP3   OH245094   6.122   3.693   1.460 -0.2259  0.0003 -0.5974
 7868TIP3    H145095   6.213   3.696   1.491 -0.3638 -0.7421 -0.0991
 7868TIP3    H245096   6.095   3.602   1.474 -1.3831  0.4464  0.2332
 7869TIP3   OH245097   3.997   5.087   1.351  0.0668  0.2564  0.0289
 7869TIP3    H145098   4.019   5.021   1.417  1.2370 -0.7069 -1.2752
 7869TIP3    H245099   3.961   5.038   1.278  0.5227  1.0883 -0.7814
 7870TIP3   OH245100   5.965   1.305  16.679  0.3014  0.2530  0.1744
 7870TIP3    H145101   5.880   1.290  16.637  0.8256  1.0582 -1.2482
 7870TIP3    H245102   5.942   1.335  16.767 -0.9168  0.8682 -0.3194
 7871TIP3   OH245103   1.036   3.017  16.256  0.1930  0.1955 -0.1861
 7871TIP3    H145104   0.986   2.993  16.334 -0.4934  0.1201 -0.6428
 7871TIP3    H245105   1.127   2.996  16.278  0.2521  1.7777  1.2242
 7872TIP3   OH245106   0.936   5.588  15.025  0.8342  0.3032  0.1548
 7872TIP3    H145107   0.885   5.640  15.087 -1.3202 -1.3153 -0.1532
 7872TIP3    H245108   0.968   5.651  14.960  2.3071  1.8841  2.2744
 7873TIP3   OH245109   3.997   0.811   1.211  0.2359  0.7963  0.0244
 7873TIP3    H145110   3.910   0.824   1.173 -0.4940  0.0210  1.3180
 7873TIP3    H245111   4.051   0.781   1.138 -1.2303 -1.1445 -0.3769
 7874TIP3   OH245112   0.219   6.639   4.643 -0.3195  0.2334  0.0042
 7874TIP3    H145113   0.276   6.565   4.664 -0.0794  0.2159 -0.6647
 7874TIP3    H245114   0.140   6.599   4.605  0.4355  0.3420 -1.8025
 7875TIP3   OH245115   5.614   2.764   0.269 -0.4392  0.1326  0.4379
 7875TIP3    H145116   5.546   2.775   0.201 -2.8799 -0.0290  2.6867
 7875TIP3    H245117   5.625   2.669   0.276 -0.1919  0.1494  0.2903
 7876TIP3   OH245118   4.822   1.051  16.478 -0.3795  0.3980  0.7928
 7876TIP3    H145119   4.873   0.971  16.491 -1.4535 -0.7767 -1.5940
 7876TIP3    H245120   4.750   1.045  16.541  0.6740  0.5593  2.0557
 7877TIP3   OH245121   0.542   0.902   5.916  0.3858 -0.1296  0.1485
 7877TIP3    H145122   0.557   0.853   5.996 -2.2243  0.0255  0.8310
 7877TIP3    H245123   0.565   0.992   5.938 -0.1334 -0.1233  0.7000
 7878TIP3   OH245124   5.230   5.289  15.941 -0.2493 -0.4122  0.0027
 7878TIP3    H145125   5.294   5.358  15.960 -0.2815 -0.0640 -1.0947
 7878TIP3    H245126   5.218   5.244  16.025  0.6282  0.1914  0.4683
 7879TIP3   OH245127   4.493   5.847  12.783 -0.5722 -0.0986 -0.2917
 7879TIP3    H145128   4.405   5.825  12.753 -1.6704  3.2836 -0.0171
 7879TIP3    H245129   4.514   5.930  12.739  2.3087 -0.5176  0.0476
 7880TIP3   OH245130   5.461   5.883   4.347 -0.2306 -0.5516  0.2482
 7880TIP3    H145131   5.452   5.885   4.252 -0.2287 -1.2215  0.2315
 7880TIP3    H245132   5.459   5.975   4.373 -2.3280 -0.4329 -0.1877
 7881TIP3   OH245133   1.006   6.684   2.827  0.3761 -0.8707  0.3421
 7881TIP3    H145134   1.018   6.652   2.917  0.2170 -0.5646  0.4756
 7881TIP3    H245135   0.917   6.657   2.804 -0.3952  0.8903  1.0675
 7882TIP3   OH245136   5.298   2.686   3.315  0.4473 -0.4224 -0.1120
 7882TIP3    H145137   5.245   2.695   3.236 -0.2435  0.0873  0.3966
 7882TIP3    H245138   5.347   2.768   3.319  0.0358 -0.1937  0.3015
 7883TIP3   OH245139   3.321   5.676  13.103  0.1560 -0.2392  0.7834
 7883TIP3    H145140   3.338   5.600  13.159 -0.4982 -0.9754  0.0090
 7883TIP3    H245141   3.228   5.693  13.114 -0.3285 -1.3398 -1.1974
 7884TIP3   OH245142   2.271   5.788  14.001  0.1328 -0.3803  1.0540
 7884TIP3    H145143   2.342   5.726  14.014 -1.2466 -2.0867  0.7798
 7884TIP3    H245144   2.278   5.812  13.908  0.9311  0.2487  1.2632
 7885TIP3   OH245145   5.376   5.112   3.729 -0.3323  0.2972  0.0359
 7885TIP3    H145146   5.461   5.153   3.744 -0.2491  0.4485 -0.7837
 7885TIP3    H245147   5.392   5.048   3.659 -0.7506 -0.1553  0.3455
 7886TIP3   OH245148   6.000   6.165  15.952  0.1770  0.5189 -0.1366
 7886TIP3    H145149   6.002   6.238  16.014  1.8511 -0.9789  1.6866
 7886TIP3    H245150   6.064   6.188  15.885  0.0074  1.1250 -0.0991
 7887TIP3   OH245151   0.541   1.106   2.804  0.3277  0.2340  0.0543
 7887TIP3    H145152   0.469   1.169   2.812 -0.9921 -1.0751 -0.9079
 7887TIP3    H245153   0.556   1.075   2.893 -1.1171 -0.2977  0.1369
 7888TIP3   OH245154   2.949   5.761   4.383 -0.4540  0.2134  0.1621
 7888TIP3    H145155   2.899   5.783   4.304  0.4667 -3.0218 -1.4777
 7888TIP3    H245156   2.902   5.807   4.453 -3.8569 -0.0841 -1.6733
 7889TIP3   OH245157   0.803   6.430  15.216 -0.1605 -0.1122 -0.4064
 7889TIP3    H145158   0.775   6.521  15.207  0.4462  0.1828  0.5518
 7889TIP3    H245159   0.834   6.406  15.129 -0.9393  0.3814 -0.8318
 7890TIP3   OH245160   0.977   4.352   5.237  0.5595  0.5621 -0.4943
 7890TIP3    H145161   1.001   4.406   5.312  1.8147 -0.9990  0.2866
 7890TIP3    H245162   1.026   4.389   5.163  1.5694  0.3989  0.0729
 7891TIP3   OH245163   3.363   0.337   0.073 -0.0791  0.2979 -0.2070
 7891TIP3    H145164   3.413   0.368   0.149 -0.0033  0.0810 -0.1680
 7891TIP3    H245165   3.428   0.291   0.019  0.1466  1.5646 -1.0424
 7892TIP3   OH245166   0.500   4.020   2.332 -0.0121 -0.1438 -0.4361
 7892TIP3    H145167   0.516   4.096   2.276 -2.3227 -0.0209 -1.0475
 7892TIP3    H245168   0.580   3.969   2.326  0.3038  0.4927 -2.8792
 7893TIP3   OH245169   0.809   6.652  13.647 -0.2176  0.4025  0.3696
 7893TIP3    H145170   0.736   6.642  13.586 -1.4014  1.7785  1.4469
 7893TIP3    H245171   0.864   6.720  13.608 -0.6978  0.9103  0.5496
 7894TIP3   OH245172   3.561   5.442  16.691 -0.5502 -0.3816  0.2810
 7894TIP3    H145173   3.488   5.386  16.665 -1.6453  1.2000 -0.2524
 7894TIP3    H245174   3.591   5.482  16.610  0.8590 -0.8998  0.5162
 7895TIP3   OH245175   4.538   3.005   1.327  0.6195 -0.1955 -0.3604
 7895TIP3    H145176   4.614   2.953   1.302  0.7592  0.0807 -0.5118
 7895TIP3    H245177   4.466   2.967   1.277  0.5806 -0.6935  0.0580
 7896TIP3   OH245178   4.026   6.399  11.762  0.1260  0.5761 -0.1150
 7896TIP3    H145179   3.949   6.342  11.761 -0.2121  0.9803  1.1748
 7896TIP3    H245180   4.099   6.339  11.781 -0.5039  0.7688  3.5769
 7897TIP3   OH245181   1.277   5.589  11.980  0.1304 -0.0141 -0.5420
 7897TIP3    H145182   1.340   5.518  11.965  1.6558  1.1870  0.0222
 7897TIP3    H245183   1.297   5.622  12.067 -2.6747 -0.9165  0.5692
 7898TIP3   OH245184   0.182   3.899  14.678  0.0547 -0.4389  0.5306
 7898TIP3    H145185   0.101   3.928  14.719 -0.1177  3.4067 -1.9505
 7898TIP3    H245186   0.249   3.915  14.744 -0.7182  0.8673  1.0426
 7899TIP3   OH245187   1.852   2.632   4.954 -0.4951  0.1920  0.1304
 7899TIP3    H145188   1.824   2.722   4.935  1.2680  0.3468 -2.1294
 7899TIP3    H245189   1.786   2.599   5.014 -3.4071  1.6973 -2.0193
 7900TIP3   OH245190   0.983   1.230   5.261 -0.2735 -0.3492  0.1611
 7900TIP3    H145191   0.956   1.258   5.349  0.5566 -1.9072  0.9605
 7900TIP3    H245192   0.948   1.142   5.253 -1.7333  0.3412 -1.7639
 7901TIP3   OH245193   4.827   3.890  13.194 -0.5610 -0.0318  0.2707
 7901TIP3    H145194   4.921   3.903  13.185 -0.8516  1.7362 -0.5246
 7901TIP3    H245195   4.791   3.911  13.108 -1.6752 -0.8304  0.5245
 7902TIP3   OH245196   2.348   4.235  12.737 -0.1931  0.4472  0.0916
 7902TIP3    H145197   2.350   4.232  12.832 -1.6637  0.1056  0.1376
 7902TIP3    H245198   2.440   4.240  12.711  0.2386  0.3006  1.5147
 7903TIP3   OH245199   5.306   2.987  12.594  0.3073 -0.4085  0.2591
 7903TIP3    H145200   5.220   3.025  12.611  0.3182 -1.2342  2.5562
 7903TIP3    H245201   5.331   2.946  12.677  2.4634 -1.1040 -0.6525
 7904TIP3   OH245202   2.493   5.897  14.635  0.4714 -0.1676 -0.4403
 7904TIP3    H145203   2.409   5.895  14.681  1.1300 -1.2396  0.8048
 7904TIP3    H245204   2.529   5.983  14.654  0.0505 -0.0356 -0.2295
 7905TIP3   OH245205   1.843   4.064   3.326  0.0932  1.1168  0.1489
 7905TIP3    H145206   1.796   4.008   3.387 -0.4099  0.6048 -0.6860
 7905TIP3    H245207   1.775   4.119   3.286  0.2989  0.8873 -0.5285
 7906TIP3   OH245208   4.839   2.847  14.389 -0.4860 -0.4633  0.0909
 7906TIP3    H145209   4.886   2.930  14.375 -0.0815 -0.5853  0.6751
 7906TIP3    H245210   4.879   2.787  14.327  0.3608 -0.6455  0.7886
 7907TIP3   OH245211   0.907   2.186   3.304  0.0164 -0.3161 -0.0277
 7907TIP3    H145212   0.828   2.133   3.311 -0.2281  0.1597  1.0166
 7907TIP3    H245213   0.975   2.134   3.347 -0.2881  0.3214  1.2552
 7908TIP3   OH245214   3.056   5.911  13.631  0.0352 -0.4408  0.4609
 7908TIP3    H145215   3.053   5.905  13.727  0.7579  0.0770  0.5256
 7908TIP3    H245216   2.998   5.985  13.610  0.9927  0.3647  0.6132
 7909TIP3   OH245217   1.195   4.842   5.759  0.2217 -0.0987  0.0335
 7909TIP3    H145218   1.259   4.782   5.721 -0.3342 -0.2736 -0.6458
 7909TIP3    H245219   1.126   4.786   5.792  0.8100  0.0255  1.6014
 7910TIP3   OH245220   0.503   3.529  11.870  0.0915 -0.0676  0.1763
 7910TIP3    H145221   0.569   3.494  11.810 -0.3583  0.6311 -0.7481
 7910TIP3    H245222   0.517   3.481  11.951  2.3138  0.6663  0.2948
 7911TIP3   OH245223   5.692   6.218   1.086 -0.8565  0.3839 -0.5305
 7911TIP3    H145224   5.664   6.306   1.060 -1.2015  0.7335  0.9434
 7911TIP3    H245225   5.784   6.227   1.108 -0.7721  0.2694 -0.8336
 7912TIP3   OH245226   2.695   2.669   2.034  0.2514 -0.4181  0.6567
 7912TIP3    H145227   2.650   2.753   2.032  1.9527  0.5567 -1.9981
 7912TIP3    H245228   2.632   2.607   1.996  0.6604  0.7479 -2.1926
 7913TIP3   OH245229   3.174   0.284  15.588  0.1701  0.4012 -0.2427
 7913TIP3    H145230   3.216   0.198  15.599 -1.0800 -0.0501  1.4960
 7913TIP3    H245231   3.087   0.272  15.626  0.4702  2.8438  1.4134
 7914TIP3   OH245232   1.112   4.026  16.001 -0.8580  0.0885  0.0234
 7914TIP3    H145233   1.106   4.075  16.083 -0.4745 -0.5738  0.4583
 7914TIP3    H245234   1.203   4.036  15.973 -0.8774 -0.0465 -0.0936
 7915TIP3   OH245235   5.015   3.676   2.640 -0.4692 -0.4569 -0.1222
 7915TIP3    H145236   4.926   3.702   2.617 -0.0338  1.4624  0.1869
 7915TIP3    H245237   5.024   3.587   2.605 -1.8450  0.0495 -1.9034
 7916TIP3   OH245238   6.088   1.299  14.503 -0.1279  0.4035 -0.1447
 7916TIP3    H145239   6.118   1.318  14.414  0.6406 -2.1196 -0.5045
 7916TIP3    H245240   6.164   1.318  14.559  1.5044 -3.4600 -0.7664
 7917TIP3   OH245241   0.602   0.547  13.527  0.6156 -0.0268  0.6413
 7917TIP3    H145242   0.556   0.507  13.601 -0.6716  1.1349  0.5088
 7917TIP3    H245243   0.534   0.565  13.463  1.4196  0.7649 -0.0151
 7918TIP3   OH245244   0.740   2.399   3.220  0.0399  0.3725 -0.6057
 7918TIP3    H145245   0.669   2.400   3.155 -2.9733  1.6665  2.4164
 7918TIP3    H245246   0.785   2.316   3.204 -0.6928  0.4719 -4.0766
 7919TIP3   OH245247   6.220   5.595  12.413 -0.1536  0.1679  0.0083
 7919TIP3    H145248   6.312   5.573  12.428 -0.5146 -2.6137 -1.0477
 7919TIP3    H245249   6.218   5.630  12.324 -0.1093  0.0583 -0.0366
 7920TIP3   OH245250   4.502   1.842  16.560 -0.0716 -0.2669  0.1233
 7920TIP3    H145251   4.474   1.753  16.582 -2.1975 -0.0270 -1.2903
 7920TIP3    H245252   4.508   1.842  16.464 -0.1823  1.1353  0.0975
 7921TIP3   OH245253   2.325   3.294   5.548  0.3345  0.0322 -0.3355
 7921TIP3    H145254   2.263   3.260   5.613  0.5483 -1.4285 -0.8731
 7921TIP3    H245255   2.279   3.288   5.465  1.1331 -0.9086 -0.7146
 7922TIP3   OH245256   0.895   3.396   3.429  0.4095  0.1891 -0.1413
 7922TIP3    H145257   0.977   3.359   3.463 -0.1411 -1.5302 -0.5849
 7922TIP3    H245258   0.909   3.404   3.335  0.2025  0.2771 -0.1654
 7923TIP3   OH245259   1.564   3.939   4.477 -0.2764 -0.9726 -0.1762
 7923TIP3    H145260   1.475   3.905   4.472 -0.2011 -1.2832  0.4716
 7923TIP3    H245261   1.609   3.898   4.403 -1.2378  1.0025 -1.9581
 7924TIP3   OH245262   1.164   2.702   5.254  0.3788  0.2621  0.3044
 7924TIP3    H145263   1.199   2.759   5.322  0.1645  0.3044  0.3801
 7924TIP3    H245264   1.237   2.645   5.230  0.5303  0.4230  0.3828
 7925TIP3   OH245265   2.017   6.526  12.913  0.2949  0.3021  0.2282
 7925TIP3    H145266   1.956   6.479  12.971 -0.9020  2.1166  0.5076
 7925TIP3    H245267   2.060   6.590  12.969  0.7009  0.6511 -0.4608
 7926TIP3   OH245268   4.579   6.287   0.366  0.5934  0.2808  0.0023
 7926TIP3    H145269   4.600   6.289   0.272 -3.3360  2.6394 -1.0752
 7926TIP3    H245270   4.547   6.199   0.382  1.3613 -0.1648 -0.8133
 7927TIP3   OH245271   1.147   1.689  14.067 -0.1741 -0.0896  0.0869
 7927TIP3    H145272   1.142   1.692  13.972  0.1368 -1.7616 -0.0140
 7927TIP3    H245273   1.080   1.750  14.097  0.5084  1.3620 -1.1787
 7928TIP3   OH245274   0.756   6.182   6.118  0.1078  0.1144 -0.1856
 7928TIP3    H145275   0.682   6.125   6.137  1.0856 -1.0373  0.3442
 7928TIP3    H245276   0.721   6.271   6.126 -1.3434 -0.3927 -0.5791
 7929TIP3   OH245277   2.854   4.214   5.644  0.1090  0.1643 -0.0965
 7929TIP3    H145278   2.837   4.276   5.715  0.2680 -0.9869  0.9718
 7929TIP3    H245279   2.936   4.246   5.604 -0.7087  1.6269 -0.7158
 7930TIP3   OH245280   1.860   4.947   6.731  0.0023 -0.3140 -0.4144
 7930TIP3    H145281   1.812   4.934   6.813 -1.3531  1.3011 -0.8714
 7930TIP3    H245282   1.845   4.867   6.681 -1.4976 -0.2121 -0.1702
 7931TIP3   OH245283   1.473   3.210  15.197  0.2064  0.7784 -0.3640
 7931TIP3    H145284   1.378   3.206  15.208  0.3970  2.0674  2.9200
 7931TIP3    H245285   1.504   3.125  15.229  0.1973 -0.0914 -2.4791
 7932TIP3   OH245286   2.277   5.243  15.619 -0.1570  0.3629 -0.1604
 7932TIP3    H145287   2.266   5.255  15.525  0.6322 -1.4672 -0.5312
 7932TIP3    H245288   2.191   5.260  15.656 -0.5804  0.6859 -1.2501
 7933TIP3   OH245289   2.509   0.624  16.079  0.0865 -0.0351  0.1832
 7933TIP3    H145290   2.470   0.706  16.108 -0.2666 -0.7284  1.7802
 7933TIP3    H245291   2.604   0.640  16.082  0.0267  0.2214  0.7861
 7934TIP3   OH245292   1.055   3.775  11.754  0.3072  0.8277  0.0463
 7934TIP3    H145293   1.127   3.836  11.743 -0.7347  1.9299 -0.9877
 7934TIP3    H245294   1.012   3.773  11.668 -0.3900 -0.4606  0.3944
 7935TIP3   OH245295   0.016   2.937  13.104  0.1396  0.2462 -0.3426
 7935TIP3    H145296  -0.041   2.888  13.163 -1.9863  1.7066 -1.0650
 7935TIP3    H245297  -0.036   2.948  13.024  1.8996  0.6593 -1.4966
 7936TIP3   OH245298   5.744   5.034  13.404 -0.9610 -0.2439  0.4322
 7936TIP3    H145299   5.718   5.045  13.496 -0.2359  1.0115  0.5064
 7936TIP3    H245300   5.803   5.107  13.387 -0.5474 -0.8533 -0.8480
 7937TIP3   OH245301   6.588   5.149   3.911  0.1563  0.6122 -0.2333
 7937TIP3    H145302   6.674   5.108   3.905  1.1920  2.7320 -0.7467
 7937TIP3    H245303   6.583   5.181   4.001 -0.3512  0.0171 -0.0406
 7938TIP3   OH245304   6.715   6.411   1.838 -0.6646 -0.2946 -0.3806
 7938TIP3    H145305   6.734   6.374   1.924  0.8145 -0.6212 -0.8172
 7938TIP3    H245306   6.774   6.366   1.778 -0.2294  1.3327 -1.2522
 7939TIP3   OH245307   6.705   5.218  15.947 -0.0836  0.1866 -0.0865
 7939TIP3    H145308   6.643   5.185  15.881 -0.7366  1.1386  0.0384
 7939TIP3    H245309   6.669   5.189  16.030 -0.1160  0.3495 -0.0435
 7940TIP3   OH245310   0.838   5.626   4.261  0.0226 -0.0059 -0.3445
 7940TIP3    H145311   0.798   5.539   4.259 -2.3718  1.0050 -0.1335
 7940TIP3    H245312   0.822   5.662   4.174 -1.4035  1.1738  0.3601
 7941TIP3   OH245313   5.067   4.676  15.611 -0.0300  0.0551 -0.2721
 7941TIP3    H145314   5.028   4.675  15.524  1.9556 -0.9842 -1.2012
 7941TIP3    H245315   4.996   4.706  15.668 -2.1683 -1.6002 -1.8549
 7942TIP3   OH245316   2.660   5.950  17.074 -0.2810 -0.3248 -0.1612
 7942TIP3    H145317   2.598   5.997  17.019 -0.4859 -0.2063  0.1658
 7942TIP3    H245318   2.636   5.974  17.164  1.0497  0.7824 -0.0542
 7943TIP3   OH245319   5.423   6.389  12.135  0.3622 -0.1973 -0.2506
 7943TIP3    H145320   5.421   6.297  12.110  0.3110 -0.9822  2.2830
 7943TIP3    H245321   5.502   6.398  12.188  0.6406  1.3729 -0.8789
 7944TIP3   OH245322   2.264   2.584  16.832 -0.0948 -0.2187  0.1362
 7944TIP3    H145323   2.210   2.506  16.843 -2.6218  1.4383  0.2837
 7944TIP3    H245324   2.222   2.650  16.887  2.2005  1.1623  0.3453
 7945TIP3   OH245325   4.625   3.848   4.936 -0.4397  0.0523 -0.8976
 7945TIP3    H145326   4.669   3.764   4.927  1.3891  1.0135 -1.5111
 7945TIP3    H245327   4.617   3.881   4.846  0.4462  1.2607 -0.5626
 7946TIP3   OH245328   4.510   4.305   0.147  0.5923 -0.2819  0.3754
 7946TIP3    H145329   4.415   4.301   0.152  0.6037  0.0442  0.8993
 7946TIP3    H245330   4.538   4.213   0.152  0.1976 -0.7390 -3.0451
 7947TIP3   OH245331   2.894   1.057  15.688  0.7736  0.0779 -0.3406
 7947TIP3    H145332   2.893   0.976  15.637  0.3543 -0.1017 -0.0525
 7947TIP3    H245333   2.802   1.080  15.699  0.7330 -0.8696  1.8800
 7948TIP3   OH245334   6.179   0.504  13.347  0.6004 -1.0011  0.3397
 7948TIP3    H145335   6.182   0.428  13.405 -0.2618  0.5947  2.6427
 7948TIP3    H245336   6.089   0.537  13.355  0.7215 -0.1661 -1.2061
 7949TIP3   OH245337   1.177   3.462   0.762  0.0223 -0.1806  0.1708
 7949TIP3    H145338   1.189   3.545   0.809  0.7027 -0.9832  1.4794
 7949TIP3    H245339   1.266   3.432   0.742 -0.2190 -0.5433 -0.3708
 7950TIP3   OH245340   2.326   1.805   5.220 -0.3391  0.7287 -0.2877
 7950TIP3    H145341   2.259   1.791   5.153 -0.4804 -1.3167  0.2062
 7950TIP3    H245342   2.362   1.717   5.237  1.3254  1.5344  0.6436
 7951TIP3   OH245343   1.496   5.285   6.245 -0.2438 -0.3707  0.2907
 7951TIP3    H145344   1.449   5.307   6.325 -1.6585 -1.2457 -0.2645
 7951TIP3    H245345   1.454   5.336   6.176  1.6207  1.1623  0.2115
 7952TIP3   OH245346   1.609   5.418   3.151  0.5736 -0.5000 -0.3487
 7952TIP3    H145347   1.560   5.425   3.069  0.7139 -0.7831 -0.4542
 7952TIP3    H245348   1.669   5.493   3.150 -0.1566  0.1040 -0.0195
 7953TIP3   OH245349   6.105   6.125   0.779  0.4500  0.1199 -0.8854
 7953TIP3    H145350   6.068   6.037   0.786  0.5491  0.0696 -0.9954
 7953TIP3    H245351   6.031   6.184   0.799  0.8731 -0.0223  1.4132
 7954TIP3   OH245352   5.484   4.316   6.135  0.3354 -0.1626  0.2739
 7954TIP3    H145353   5.456   4.322   6.227  2.3003  0.6604  0.8582
 7954TIP3    H245354   5.420   4.369   6.088 -0.4256 -0.2086  1.2053
 7955TIP3   OH245355   0.362   0.598   4.496  0.0448  0.2534  0.8024
 7955TIP3    H145356   0.301   0.557   4.435  0.9073  0.1915 -0.0345
 7955TIP3    H245357   0.318   0.678   4.524 -1.2424 -0.7246  1.7072
 7956TIP3   OH245358   3.864   5.210   4.493  0.1202 -0.1907 -0.3448
 7956TIP3    H145359   3.954   5.240   4.501  0.2428 -0.9361  1.5620
 7956TIP3    H245360   3.872   5.115   4.484 -0.4393 -0.1327 -1.6684
 7957TIP3   OH245361   1.992   1.190  12.100  0.2086 -0.0551 -0.2600
 7957TIP3    H145362   1.980   1.276  12.141 -2.5950 -0.0456 -0.8429
 7957TIP3    H245363   2.005   1.210  12.007  1.1558 -0.2375 -0.1754
 7958TIP3   OH245364   3.702   0.725   2.229 -0.1479 -0.3425 -0.1902
 7958TIP3    H145365   3.610   0.700   2.236 -0.3062  0.1924 -0.3603
 7958TIP3    H245366   3.750   0.648   2.262 -0.6239 -0.8972 -0.7547
 7959TIP3   OH245367   1.634   0.765  11.845 -0.0999  0.3033  0.6581
 7959TIP3    H145368   1.729   0.774  11.855 -0.1196 -0.2816  1.4415
 7959TIP3    H245369   1.602   0.748  11.933 -0.8401 -0.3508  0.2760
 7960TIP3   OH245370   5.873   4.081   1.513 -0.3351  0.3742 -0.0617
 7960TIP3    H145371   5.965   4.085   1.538 -0.7551  0.1330  1.6014
 7960TIP3    H245372   5.866   4.001   1.460  0.3320  0.1928  0.1223
 7961TIP3   OH245373   4.470   5.342  15.122  0.1014 -0.6006  0.0574
 7961TIP3    H145374   4.480   5.371  15.213 -0.0915 -0.6251  0.0870
 7961TIP3    H245375   4.552   5.297  15.102  0.9060  0.9965 -0.3892
 7962TIP3   OH245376   4.802   3.475  13.894 -0.3289  0.2473  0.3365
 7962TIP3    H145377   4.834   3.525  13.970 -0.4034  1.1171 -0.1861
 7962TIP3    H245378   4.841   3.519  13.818 -1.1618  0.0991 -0.1951
 7963TIP3   OH245379   5.957   4.661  15.225 -0.1272 -0.7492 -0.1815
 7963TIP3    H145380   6.049   4.686  15.237 -0.2398 -0.7855  0.8111
 7963TIP3    H245381   5.954   4.569  15.250 -0.0799 -1.3181 -2.0632
 7964TIP3   OH245382   4.466   6.030   0.411  0.5298 -0.0702 -0.4293
 7964TIP3    H145383   4.428   5.998   0.492 -0.0727  0.8501 -0.3315
 7964TIP3    H245384   4.504   5.952   0.370  1.1214 -0.4936  0.8663
 7965TIP3   OH245385   4.143   0.173   3.484 -0.4523 -0.0694 -0.0649
 7965TIP3    H145386   4.051   0.186   3.509 -0.4977  0.7812 -0.6374
 7965TIP3    H245387   4.184   0.139   3.563 -1.1225  0.1996  0.4132
 7966TIP3   OH245388   4.647   1.564  11.302 -0.2990  0.2417  0.0081
 7966TIP3    H145389   4.582   1.598  11.364  0.5244  0.6220  0.6718
 7966TIP3    H245390   4.731   1.586  11.341  0.2349 -0.3194 -0.8105
 7967TIP3   OH245391   2.670   2.177   5.330  0.4278 -0.7107 -0.3699
 7967TIP3    H145392   2.725   2.146   5.258  0.5403 -0.8117 -0.2405
 7967TIP3    H245393   2.657   2.270   5.312 -0.5443 -0.9749 -1.1797
 7968TIP3   OH245394   3.820   2.901   0.630  0.1022 -0.2478 -0.5025
 7968TIP3    H145395   3.864   2.904   0.715 -1.3960 -1.8491  0.3978
 7968TIP3    H245396   3.843   2.816   0.593 -0.8943 -0.4246 -0.7458
 7969TIP3   OH245397   4.850   4.214  16.766 -0.2646  0.2255  0.2633
 7969TIP3    H145398   4.774   4.218  16.825  0.9503  0.4983  1.8758
 7969TIP3    H245399   4.839   4.131  16.720 -1.1678 -0.0966  1.0044
 7970TIP3   OH245400   4.415   3.114  15.480  0.4342 -0.5392  0.1385
 7970TIP3    H145401   4.355   3.042  15.505 -1.9581  0.7379 -1.5085
 7970TIP3    H245402   4.493   3.099  15.533 -0.1922 -3.9895  0.3352
 7971TIP3   OH245403   0.482   2.051   2.627 -0.4707  0.2649 -0.8134
 7971TIP3    H145404   0.541   2.029   2.700 -0.4185  0.6054 -0.7538
 7971TIP3    H245405   0.495   2.145   2.613 -3.2491  1.0759  1.2125
 7972TIP3   OH245406   4.825   0.593  15.843 -0.0016  0.5028 -0.8870
 7972TIP3    H145407   4.868   0.599  15.758  2.3762 -1.4645  0.0421
 7972TIP3    H245408   4.811   0.499  15.857  2.7391  0.3483  2.1452
 7973TIP3   OH245409   6.333   2.884   0.071  0.4939 -0.1143 -0.0494
 7973TIP3    H145410   6.405   2.882   0.134 -0.2646 -1.6384  0.8307
 7973TIP3    H245411   6.257   2.912   0.123 -0.2167 -1.7487 -0.1614
 7974TIP3   OH245412   6.793   5.503   0.156  0.1222  0.6368 -0.3865
 7974TIP3    H145413   6.742   5.576   0.192 -0.2646  0.5001 -0.6493
 7974TIP3    H245414   6.750   5.483   0.073  0.9725  0.9054 -0.8958
 7975TIP3   OH245415   0.798   2.361   3.495  0.2122  0.0272 -0.0926
 7975TIP3    H145416   0.867   2.325   3.550 -1.8544 -2.1275  1.2716
 7975TIP3    H245417   0.807   2.316   3.411 -0.2098 -1.1157  0.4594
 7976TIP3   OH245418   5.830   6.273   0.779  0.3242  0.1470 -0.6166
 7976TIP3    H145419   5.759   6.211   0.791 -0.5774  1.1380 -0.7030
 7976TIP3    H245420   5.787   6.358   0.766  1.5310  1.1848  1.6002
 7977TIP3   OH245421   6.622   4.067  16.649 -0.6887  0.5865 -0.5101
 7977TIP3    H145422   6.590   4.036  16.564  0.1517  0.2043 -0.6961
 7977TIP3    H245423   6.684   4.137  16.627  0.5088 -0.3766 -0.2913
 7978TIP3   OH245424   4.428   2.062  14.551  0.2475 -0.1261 -0.0039
 7978TIP3    H145425   4.473   2.144  14.528 -1.3235  0.9471  0.5803
 7978TIP3    H245426   4.347   2.064  14.500 -0.8778 -0.1876  1.7097
 7979TIP3   OH245427   2.389   4.951  12.892  0.0718 -0.6620 -0.1286
 7979TIP3    H145428   2.377   4.862  12.859  0.9933 -1.1171  0.7024
 7979TIP3    H245429   2.462   4.944  12.953  0.1204  0.6610 -0.0041
 7980TIP3   OH245430   0.383   4.515   4.967  0.3009 -0.0101  0.4351
 7980TIP3    H145431   0.299   4.487   4.931  0.0372  1.5326 -0.2276
 7980TIP3    H245432   0.395   4.461   5.045 -1.2743 -0.2864  0.5116
 7981TIP3   OH245433   5.060   6.001   5.345 -0.0618 -0.0471 -0.1533
 7981TIP3    H145434   5.119   6.023   5.418  0.3726 -1.5705 -0.0136
 7981TIP3    H245435   5.087   6.059   5.274 -0.2236  1.1859  0.7501
 7982TIP3   OH245436   5.458   4.200  15.980 -0.1882 -0.5225 -0.2503
 7982TIP3    H145437   5.429   4.120  15.936 -2.1648 -0.6734  1.1700
 7982TIP3    H245438   5.452   4.268  15.913 -1.1691 -1.0894 -0.7614
 7983TIP3   OH245439   2.641   4.691  11.788 -0.2603  0.8358  0.1362
 7983TIP3    H145440   2.554   4.730  11.798  0.0544  1.3333  1.0542
 7983TIP3    H245441   2.662   4.657  11.875 -0.5243 -1.4112 -0.6276
 7984TIP3   OH245442   2.887   0.590  14.838 -0.2448  0.0797 -0.3171
 7984TIP3    H145443   2.841   0.672  14.819 -0.8282 -0.3115 -0.6289
 7984TIP3    H245444   2.839   0.524  14.788  1.7091 -0.0919 -2.1108
 7985TIP3   OH245445   0.264   4.339   6.146  0.4106 -0.4964  0.4306
 7985TIP3    H145446   0.348   4.337   6.192  0.2573  0.6851  0.7959
 7985TIP3    H245447   0.219   4.260   6.175  1.1017 -0.7614  0.8065
 7986TIP3   OH245448   5.135   3.826   1.910 -0.0845 -0.3882  0.0429
 7986TIP3    H145449   5.166   3.790   1.827 -0.2453 -0.0359 -0.1676
 7986TIP3    H245450   5.146   3.753   1.972 -1.7208 -1.2906 -0.6639
 7987TIP3   OH245451   3.483   0.820   1.871  0.9534 -0.1063 -0.1237
 7987TIP3    H145452   3.569   0.780   1.884  1.0457  0.5472  1.5875
 7987TIP3    H245453   3.475   0.882   1.944 -2.2691 -2.4220  1.7639
 7988TIP3   OH245454   6.504   3.927   0.976  0.8167  0.3144 -0.1809
 7988TIP3    H145455   6.512   3.990   1.048  3.3600  2.5460 -2.1644
 7988TIP3    H245456   6.590   3.884   0.973  0.6901  0.1279 -1.6965
 7989TIP3   OH245457   5.962   1.990  15.366  0.3945  0.0424  0.2361
 7989TIP3    H145458   5.958   2.085  15.381  1.7959 -0.0060  1.0193
 7989TIP3    H245459   6.032   1.959  15.422 -0.3953 -1.5658  0.3967
 7990TIP3   OH245460   2.420   4.291   4.782 -0.8625 -0.3086 -0.0035
 7990TIP3    H145461   2.492   4.232   4.760 -1.5948 -0.9657 -0.7130
 7990TIP3    H245462   2.380   4.252   4.860  1.2476  1.5955  2.2108
 7991TIP3   OH245463   0.610   5.554  16.801 -0.3171  0.2034  0.5198
 7991TIP3    H145464   0.617   5.645  16.775  0.4419 -0.5806 -2.3141
 7991TIP3    H245465   0.567   5.510  16.728 -2.2741 -1.4786  2.5233
 7992TIP3   OH245466   0.788   6.056  16.562  0.5174 -0.1069 -0.0906
 7992TIP3    H145467   0.779   5.976  16.613 -0.9841 -0.7987 -1.3551
 7992TIP3    H245468   0.778   6.127  16.626  2.0074 -0.8859  1.0689
 7993TIP3   OH245469   3.016   4.064   6.835  0.2727 -0.3137 -0.3355
 7993TIP3    H145470   3.031   3.996   6.769 -1.1392 -0.9328 -0.0700
 7993TIP3    H245471   3.087   4.126   6.823 -0.0702 -0.2737 -2.6176
 7994TIP3   OH245472   5.391   3.957   1.565 -0.4205 -0.3368 -0.0753
 7994TIP3    H145473   5.471   3.990   1.605 -0.7470  1.8111 -1.0496
 7994TIP3    H245474   5.420   3.917   1.483 -0.2915  0.1151 -0.2541
 7995TIP3   OH245475   4.508   6.331   6.319 -0.1958 -0.0214 -0.0514
 7995TIP3    H145476   4.431   6.316   6.373 -1.3678  0.9102 -1.3943
 7995TIP3    H245477   4.502   6.422   6.292  1.4242  0.0903 -0.1585
 7996TIP3   OH245478   3.789   4.502  11.598 -0.2464  0.0734  0.4468
 7996TIP3    H145479   3.740   4.534  11.673 -0.2284  2.2649 -0.3898
 7996TIP3    H245480   3.723   4.481  11.532 -0.1914 -0.3904  0.5327
 7997TIP3   OH245481   5.275   2.807  12.842 -0.5274  0.0540 -0.5094
 7997TIP3    H145482   5.249   2.724  12.804 -1.7992  0.1002  0.2100
 7997TIP3    H245483   5.284   2.789  12.935  0.6721  0.3878 -0.5443
 7998TIP3   OH245484   6.748   5.830   4.537 -0.1641 -0.0190  0.0488
 7998TIP3    H145485   6.664   5.853   4.578  0.3019  3.2272 -0.5714
 7998TIP3    H245486   6.726   5.813   4.446 -0.6061 -3.2789  0.6180
 7999TIP3   OH245487   1.619   1.152  14.678 -0.3664  0.4420 -0.5071
 7999TIP3    H145488   1.566   1.146  14.599  0.7044 -0.5410 -1.1892
 7999TIP3    H245489   1.665   1.236  14.669 -1.9707  1.4296  0.2273
 8000TIP3   OH245490   0.668   2.808   1.089 -0.2250  0.2559 -0.8103
 8000TIP3    H145491   0.595   2.862   1.062 -1.0426  0.8293  2.1634
 8000TIP3    H245492   0.734   2.870   1.120  0.7487 -0.3312 -1.6416
 8001TIP3   OH245493   4.146   6.628  14.705  0.0213 -0.5937 -0.3099
 8001TIP3    H145494   4.113   6.538  14.708  1.5936 -1.2551 -1.4598
 8001TIP3    H245495   4.203   6.634  14.782 -1.3760  0.0167  0.7329
 8002TIP3   OH245496   2.917   4.912  14.130 -0.1646  0.0232 -0.4941
 8002TIP3    H145497   2.962   4.830  14.114 -0.7708 -0.6421  1.0251
 8002TIP3    H245498   2.824   4.891  14.125 -0.5114 -0.4159  3.7880
 8003TIP3   OH245499   2.446   1.034  16.904  0.0795  0.0468 -0.1764
 8003TIP3    H145500   2.401   1.012  16.823  1.6042  0.7821 -1.2525
 8003TIP3    H245501   2.392   1.102  16.944  0.5339  1.4322 -1.8002
 8004TIP3   OH245502   0.351   4.554  12.613  0.5889 -0.4474 -0.1414
 8004TIP3    H145503   0.429   4.561  12.558  0.3377  0.5193 -0.3980
 8004TIP3    H245504   0.279   4.544  12.551  0.2236  1.3606 -0.0658
 8005TIP3   OH245505   1.874   3.500   2.923  0.4086 -0.3979  0.0993
 8005TIP3    H145506   1.857   3.593   2.939  1.2646 -0.3356  0.7239
 8005TIP3    H245507   1.788   3.460   2.926 -0.0226  0.4393 -0.6378
 8006TIP3   OH245508   2.601   1.619   4.349  0.6123  0.5927  0.1405
 8006TIP3    H145509   2.624   1.533   4.314  1.2344  0.8828 -0.2015
 8006TIP3    H245510   2.505   1.621   4.349  0.5426 -0.7807  1.8852
 8007TIP3   OH245511   5.488   1.890   0.096  0.0442 -0.4531 -0.2878
 8007TIP3    H145512   5.478   1.823   0.164 -0.9796  0.3284  0.3612
 8007TIP3    H245513   5.404   1.889   0.049 -0.7515  1.6699  0.9630
 8008TIP3   OH245514   5.999   5.794   4.408  0.0571  0.0639 -0.5855
 8008TIP3    H145515   5.910   5.827   4.415 -0.1771 -0.4826 -0.8524
 8008TIP3    H245516   6.003   5.722   4.471  0.1017 -0.3302 -1.0262
 8009TIP3   OH245517   3.886   5.429  11.316 -0.0475  0.2981 -0.0696
 8009TIP3    H145518   3.962   5.397  11.267 -0.1090  0.2775 -0.1517
 8009TIP3    H245519   3.903   5.402  11.406  0.7510  1.5639  0.1795
 8010TIP3   OH245520   6.437   3.510  14.515 -0.4761 -0.6936 -0.3325
 8010TIP3    H145521   6.355   3.557  14.501  0.1658 -0.0758 -2.3651
 8010TIP3    H245522   6.474   3.548  14.594 -0.5075  1.5173 -1.3079
 8011TIP3   OH245523   6.397   0.127  13.510 -0.1204  0.4207 -0.1865
 8011TIP3    H145524   6.491   0.138  13.493  0.0952  0.0628  0.7238
 8011TIP3    H245525   6.365   0.077  13.434  0.2793  1.1237 -0.8321
 8012TIP3   OH245526   2.203   3.172  15.593  0.2760  0.6735 -0.5358
 8012TIP3    H145527   2.131   3.110  15.601  0.9018 -0.0368 -0.3324
 8012TIP3    H245528   2.240   3.157  15.507  0.5059  0.6815 -0.4393
 8013TIP3   OH245529   3.804   1.692  10.828  0.1113  0.2625 -0.5711
 8013TIP3    H145530   3.817   1.780  10.792 -2.6166  1.1929  0.4004
 8013TIP3    H245531   3.811   1.634  10.753 -2.3444  1.8237 -2.1562
 8014TIP3   OH245532   1.326   0.511  14.859 -0.0695  0.6150 -0.5183
 8014TIP3    H145533   1.319   0.504  14.764  0.4039 -0.9093 -0.4800
 8014TIP3    H245534   1.383   0.586  14.874 -1.1761  1.6638 -1.3797
 8015TIP3   OH245535   1.777   6.267  13.802  0.2192  0.7642  0.3811
 8015TIP3    H145536   1.803   6.331  13.868  0.5056  2.1412 -1.0108
 8015TIP3    H245537   1.693   6.299  13.770  0.1353  0.1680 -0.0104
 8016TIP3   OH245538   2.032   6.178  14.652  0.1245 -0.4211  0.3466
 8016TIP3    H145539   2.036   6.116  14.579  0.6366 -0.9003  0.7642
 8016TIP3    H245540   1.962   6.239  14.629  0.6153 -0.2591 -0.7771
 8017TIP3   OH245541   6.495   4.837  11.282 -0.1592 -0.1052  0.2973
 8017TIP3    H145542   6.541   4.842  11.198 -0.2952 -0.3294  0.2106
 8017TIP3    H245543   6.563   4.859  11.347  0.3277 -1.3874  0.2475
 8018TIP3   OH245544   5.182   3.162  15.686 -0.8997  0.3747 -0.3168
 8018TIP3    H145545   5.137   3.090  15.731 -0.1621  1.0230  1.5404
 8018TIP3    H245546   5.134   3.240  15.712 -1.4664  0.6376 -2.0256
 8019TIP3   OH245547   6.258   0.081  16.119  0.4540 -0.2622 -0.1628
 8019TIP3    H145548   6.238  -0.005  16.156  0.1256 -0.6205 -1.1183
 8019TIP3    H245549   6.304   0.062  16.037 -1.4720  0.3830 -1.4691
 8020TIP3   OH245550   3.175   4.689  10.483  0.2389 -0.3238 -0.0144
 8020TIP3    H145551   3.153   4.658  10.570 -1.3511 -1.2343 -0.6970
 8020TIP3    H245552   3.118   4.765  10.469 -1.7501 -1.9712 -1.3452
 8021TIP3   OH245553   2.655   3.402  11.508  0.2687 -0.2890 -0.0248
 8021TIP3    H145554   2.584   3.465  11.510  1.9644  1.8088 -1.3680
 8021TIP3    H245555   2.684   3.400  11.417  1.0955 -2.0620  0.2302
 8022TIP3   OH245556   6.379   1.847   2.801  0.0451  0.2405  0.0663
 8022TIP3    H145557   6.460   1.845   2.852  0.5418 -0.5126 -0.7326
 8022TIP3    H245558   6.389   1.922   2.743 -1.0976  1.9441  1.9394
 8023TIP3   OH245559   5.211   1.261  14.899  0.3895 -0.6520  0.2122
 8023TIP3    H145560   5.149   1.333  14.909  1.6854  0.9138 -2.0546
 8023TIP3    H245561   5.282   1.282  14.960  0.3594 -0.4409  0.1765
 8024TIP3   OH245562   2.954   4.550  14.851  0.0791  0.5788  0.0973
 8024TIP3    H145563   2.941   4.606  14.927 -1.0918  1.0948 -0.4728
 8024TIP3    H245564   2.923   4.601  14.777 -3.8640 -1.7902 -0.1541
 8025TIP3   OH245565   2.339   0.798  11.982 -0.1396 -0.8793  0.3398
 8025TIP3    H145566   2.383   0.836  12.058 -1.8097  1.2578  0.3479
 8025TIP3    H245567   2.378   0.712  11.973  1.8756 -0.2575  2.1020
 8026TIP3   OH245568   1.162   3.191   2.491  0.3233 -0.1378  0.2119
 8026TIP3    H145569   1.245   3.177   2.445  1.3060 -0.5284  2.0468
 8026TIP3    H245570   1.100   3.134   2.445  0.9256  0.4511 -1.4298
 8027TIP3   OH245571   1.789   3.648   6.164  0.0273  0.0707  0.3178
 8027TIP3    H145572   1.878   3.613   6.167  0.5512  0.7334 -3.0739
 8027TIP3    H245573   1.800   3.743   6.178  0.4071  0.6431 -3.0301
 8028TIP3   OH245574   2.988   0.268  16.862 -0.5290 -0.0504  0.5596
 8028TIP3    H145575   3.039   0.344  16.833 -1.0277  0.9658  2.2148
 8028TIP3    H245576   3.000   0.267  16.957 -0.5784 -2.0365  0.5753
 8029TIP3   OH245577   6.396   3.050  14.945  0.1464 -0.5474  0.2267
 8029TIP3    H145578   6.463   3.007  14.998  0.1709  0.9510  1.4851
 8029TIP3    H245579   6.369   3.126  14.997 -3.1959 -1.5512  0.1916
 8030TIP3   OH245580   5.137   6.628   1.442 -0.0642  0.3766  0.3620
 8030TIP3    H145581   5.046   6.655   1.427  0.2506  0.5873 -1.3952
 8030TIP3    H245582   5.130   6.541   1.481 -1.0162  0.5776  0.6829
 8031TIP3   OH245583   6.071   0.367  10.827 -0.1416  0.3103  0.3434
 8031TIP3    H145584   6.017   0.339  10.753  0.8887 -0.0838 -0.2683
 8031TIP3    H245585   6.010   0.417  10.883 -1.0153  0.3042 -0.5745
 8032TIP3   OH245586   1.358   6.617   0.138 -0.0007  0.4598 -0.5538
 8032TIP3    H145587   1.268   6.607   0.108 -0.2938  0.2502  0.3527
 8032TIP3    H245588   1.350   6.631   0.233  0.9544 -0.4118 -0.3210
 8033TIP3   OH245589   2.846   2.606   3.610 -0.5456  0.0498 -0.1075
 8033TIP3    H145590   2.844   2.687   3.660 -1.1821  0.2068 -0.3778
 8033TIP3    H245591   2.911   2.552   3.654 -2.2894 -0.5197  1.9679
 8034TIP3   OH245592   0.823   4.629  13.448 -0.3724 -0.1581  0.2295
 8034TIP3    H145593   0.908   4.588  13.463 -0.5129 -1.0814 -1.2532
 8034TIP3    H245594   0.763   4.555  13.436 -1.3785  0.4780  1.1182
 8035TIP3   OH245595   4.522   2.813  16.184  0.2709  0.3465 -0.1085
 8035TIP3    H145596   4.610   2.799  16.217  0.4396  0.7026 -0.3974
 8035TIP3    H245597   4.488   2.725  16.166  0.0508  0.1214  1.3119
 8036TIP3   OH245598   5.918   4.287   2.400 -0.0887 -0.0633 -0.6325
 8036TIP3    H145599   5.959   4.374   2.398 -0.1971  0.0052 -0.1130
 8036TIP3    H245600   5.992   4.226   2.402 -0.0027 -0.0295 -2.0368
 8037TIP3   OH245601   5.372   3.606  11.225  0.0751 -0.4939 -0.1240
 8037TIP3    H145602   5.325   3.578  11.147 -0.2454  3.2591 -1.4829
 8037TIP3    H245603   5.304   3.632  11.287  0.3093  0.2485 -0.1628
 8038TIP3   OH245604   4.206   1.053   3.075 -0.2474  0.0030  0.1544
 8038TIP3    H145605   4.129   1.070   3.131 -0.0678 -1.5704  0.9403
 8038TIP3    H245606   4.204   1.123   3.010 -1.5549  0.8044  1.0025
 8039TIP3   OH245607   2.687   2.956   5.764 -0.1799 -0.4471  0.2519
 8039TIP3    H145608   2.595   2.974   5.785 -0.0790 -0.5734  0.8289
 8039TIP3    H245609   2.724   3.042   5.743 -0.5234 -0.4474 -0.3750
 8040TIP3   OH245610   1.884   3.153   4.194 -0.3281  0.2176  0.2519
 8040TIP3    H145611   1.961   3.105   4.163 -0.8800 -0.7644  0.3567
 8040TIP3    H245612   1.810   3.098   4.169 -1.0402  1.4226 -0.3566
 8041TIP3   OH245613   5.430   1.367  12.703 -0.2151 -0.3371 -0.2791
 8041TIP3    H145614   5.363   1.418  12.747 -0.0401  0.3738 -0.8111
 8041TIP3    H245615   5.388   1.336  12.623 -0.3514 -1.1271  0.0869
 8042TIP3   OH245616   3.896   6.398   2.893 -0.0987 -0.4535  0.6914
 8042TIP3    H145617   3.823   6.405   2.831 -1.6690  1.0408  2.6004
 8042TIP3    H245618   3.974   6.422   2.841 -1.4437  1.4938 -0.5747
 8043TIP3   OH245619   4.751   1.044   2.509  0.5543 -0.4080 -0.4075
 8043TIP3    H145620   4.838   1.070   2.479 -0.3645  1.3481 -1.6861
 8043TIP3    H245621   4.709   1.007   2.432 -0.0473 -0.7116  0.0550
 8044TIP3   OH245622   4.072   4.675   2.629 -0.2702  0.4393  0.1383
 8044TIP3    H145623   4.144   4.716   2.580 -0.1873 -0.1062 -0.2106
 8044TIP3    H245624   3.998   4.676   2.569 -0.3976  0.5046  0.2974
 8045TIP3   OH245625   5.854   3.439   3.937  0.1179 -0.2818 -0.4462
 8045TIP3    H145626   5.945   3.409   3.945  0.4049 -1.1042 -4.5305
 8045TIP3    H245627   5.808   3.366   3.895 -2.4157  0.2647  1.1634
 8046TIP3   OH245628   3.728   5.268   1.805 -0.4053 -0.0180 -0.2598
 8046TIP3    H145629   3.676   5.282   1.727 -0.4845 -1.8857 -0.5910
 8046TIP3    H245630   3.817   5.292   1.780 -0.3678 -0.9282 -1.0589
 8047TIP3   OH245631   2.545   3.918   1.799  0.2872  0.2343 -0.7517
 8047TIP3    H145632   2.460   3.880   1.823 -0.7219  1.3909 -2.2288
 8047TIP3    H245633   2.599   3.908   1.877 -1.2841 -0.3243  0.3239
 8048TIP3   OH245634   6.601   1.867   6.268 -0.5515  0.7611  0.9016
 8048TIP3    H145635   6.534   1.799   6.275 -1.6045  1.9187  2.9578
 8048TIP3    H245636   6.661   1.849   6.341  1.2083 -0.0090 -0.6647
 8049TIP3   OH245637   6.315   5.790   4.844 -0.7652  0.2614  0.4510
 8049TIP3    H145638   6.370   5.719   4.813 -1.3863  0.4049 -1.1259
 8049TIP3    H245639   6.271   5.822   4.765 -2.4918  0.6647  1.5135
 8050TIP3   OH245640   2.850   0.869  14.086 -0.3109 -0.3239  0.6704
 8050TIP3    H145641   2.874   0.836  14.172 -1.0462 -3.8557 -0.3079
 8050TIP3    H245642   2.783   0.934  14.102  3.5638  3.5943  2.9629
 8051TIP3   OH245643   2.400   2.982  16.777 -0.2273 -0.0264  0.2906
 8051TIP3    H145644   2.403   2.901  16.727 -1.9178 -0.6431  1.0759
 8051TIP3    H245645   2.307   2.995  16.796  0.2357  0.7107  2.3770
 8052TIP3   OH245646   5.116   1.103  11.397 -0.1867  0.0752  0.7334
 8052TIP3    H145647   5.065   1.181  11.378 -0.4310 -0.1728  0.3548
 8052TIP3    H245648   5.051   1.035  11.412 -0.0154 -0.7507 -1.7978
 8053TIP3   OH245649   3.530   0.008  16.480  0.3737 -0.0713 -0.4746
 8053TIP3    H145650   3.548   0.022  16.387 -1.5465 -0.6993 -0.9991
 8053TIP3    H245651   3.438   0.032  16.491  0.7215  0.5625  1.4108
 8054TIP3   OH245652   2.586   4.193   1.781  0.0123 -0.2656  0.0946
 8054TIP3    H145653   2.567   4.102   1.802 -0.2974 -0.2218  0.0146
 8054TIP3    H245654   2.532   4.243   1.842 -0.8274 -0.1373 -0.7288
 8055TIP3   OH245655   3.905   3.614   4.794  1.1088 -0.1180  0.1320
 8055TIP3    H145656   3.874   3.582   4.879  0.0028  0.4941 -0.0186
 8055TIP3    H245657   3.828   3.654   4.754  2.2394  2.1204  0.0231
 8056TIP3   OH245658   3.169   6.348   4.344 -0.0848  0.2697  0.4799
 8056TIP3    H145659   3.152   6.340   4.250 -0.5596  2.8378  0.2797
 8056TIP3    H245660   3.239   6.413   4.351 -0.8526  0.9860  1.9412
 8057TIP3   OH245661   5.783   1.109   0.634 -0.2116 -0.3118  0.3837
 8057TIP3    H145662   5.837   1.178   0.672 -0.3266  0.1709 -0.3200
 8057TIP3    H245663   5.694   1.143   0.638 -0.5626 -1.2921  1.9719
 8058TIP3   OH245664   1.452   4.140   0.505  0.3096  0.0711 -0.0990
 8058TIP3    H145665   1.439   4.192   0.584 -0.8294 -0.0419 -0.1900
 8058TIP3    H245666   1.376   4.082   0.503  1.0939 -0.9644 -0.4838
 8059TIP3   OH245667   0.485   4.703   2.888 -0.1286 -0.4115 -0.1386
 8059TIP3    H145668   0.469   4.620   2.934  0.3991 -0.2043  0.4364
 8059TIP3    H245669   0.569   4.733   2.922 -0.1002  0.1350 -0.6853
 8060TIP3   OH245670   5.026   2.543   1.271  0.4148  0.4374  0.0978
 8060TIP3    H145671   4.954   2.499   1.225 -0.7885  1.7256  0.6740
 8060TIP3    H245672   4.986   2.622   1.306  2.1594  1.2182  0.3786
 8061TIP3   OH245673   4.885   5.638   2.519  0.8503 -0.4214  0.2955
 8061TIP3    H145674   4.968   5.639   2.566  1.0786 -1.5936 -0.0423
 8061TIP3    H245675   4.820   5.618   2.586  1.0497 -1.0909  0.2937
 8062TIP3   OH245676   6.713   2.011   6.069  0.2066 -0.0899 -0.5690
 8062TIP3    H145677   6.800   1.970   6.071  1.4581  2.3845  0.8524
 8062TIP3    H245678   6.672   1.983   6.151  0.8109  0.9166  0.0982
 8063TIP3   OH245679   6.348   1.526   1.458 -0.2292 -0.4757  0.0779
 8063TIP3    H145680   6.310   1.442   1.432  0.0732 -1.7793  3.3631
 8063TIP3    H245681   6.442   1.510   1.463 -0.3231 -0.7950  2.9362
 8064TIP3   OH245682   2.859   1.123  12.912 -0.4185  0.6363  0.1504
 8064TIP3    H145683   2.920   1.050  12.919 -2.7536 -1.2945  2.6709
 8064TIP3    H245684   2.841   1.131  12.819  0.9033 -1.1367 -0.3067
 8065TIP3   OH245685   1.170   6.189   1.787 -0.0740  0.0053  0.0562
 8065TIP3    H145686   1.171   6.116   1.849  2.2278  1.3607  1.8292
 8065TIP3    H245687   1.164   6.267   1.843 -0.8829  1.2307 -1.6518
 8066TIP3   OH245688   3.595   1.496  16.543 -0.0680  0.4156  0.4246
 8066TIP3    H145689   3.525   1.515  16.481  0.7191  1.0578 -0.3060
 8066TIP3    H245690   3.646   1.577  16.546  1.5986 -0.5577 -0.3496
 8067TIP3   OH245691   4.154   3.855   1.377 -0.5107  0.4415 -0.3291
 8067TIP3    H145692   4.160   3.779   1.435  1.3414  2.4109  2.2864
 8067TIP3    H245693   4.067   3.892   1.393 -1.3331 -0.9009 -1.4540
 8068TIP3   OH245694   2.848   5.360   1.017  0.1801 -0.2498  0.1750
 8068TIP3    H145695   2.919   5.357   1.081 -1.1589 -1.6230  1.6821
 8068TIP3    H245696   2.826   5.269   1.001  0.3413  0.0732 -2.1623
 8069TIP3   OH245697   6.740   3.664   4.117  0.1259  0.1282 -0.5396
 8069TIP3    H145698   6.759   3.751   4.082 -1.4916 -0.0729 -2.0297
 8069TIP3    H245699   6.807   3.650   4.184  0.8702  2.2006 -0.7864
 8070TIP3   OH245700   1.829   5.542   2.130  0.0599 -0.0306 -0.4023
 8070TIP3    H145701   1.882   5.475   2.088  0.8274 -0.5872  1.3474
 8070TIP3    H245702   1.885   5.619   2.135 -0.1840  0.1746 -0.7882
 8071TIP3   OH245703   5.488   2.150   5.838  0.0710 -1.1260  0.1410
 8071TIP3    H145704   5.572   2.174   5.875  1.5753 -3.2381 -1.5937
 8071TIP3    H245705   5.485   2.195   5.753  0.4644 -2.6206 -0.7141
 8072TIP3   OH245706   3.519   0.057  14.689  0.5159  0.5775 -0.1795
 8072TIP3    H145707   3.526   0.091  14.600  1.8078  0.5788 -0.0942
 8072TIP3    H245708   3.541   0.131  14.745  1.1916  0.1957  0.0767
 8073TIP3   OH245709   3.394   5.311   5.659  0.2465 -0.1759 -0.1673
 8073TIP3    H145710   3.446   5.313   5.739  0.5165 -0.4105 -0.3311
 8073TIP3    H245711   3.445   5.256   5.599  1.3299  2.0240 -1.3940
 8074TIP3   OH245712   3.286   4.205  12.467 -0.3845  0.2470  0.0245
 8074TIP3    H145713   3.380   4.208  12.448 -0.4365  1.0411 -0.1288
 8074TIP3    H245714   3.273   4.119  12.507  0.6015  0.5511  1.0524
 8075TIP3   OH245715   5.008   4.159   1.031 -0.0380  0.3557  0.9488
 8075TIP3    H145716   4.995   4.084   0.972 -0.8383  0.5920  0.8033
 8075TIP3    H245717   5.058   4.123   1.104 -0.7144 -0.4239  1.0554
 8076TIP3   OH245718   6.258   6.649  12.907 -0.0835 -0.4746 -0.2748
 8076TIP3    H145719   6.299   6.594  12.840  0.1588 -1.6205  0.7799
 8076TIP3    H245720   6.270   6.600  12.988 -1.9125  0.0572  0.3523
 8077TIP3   OH245721   4.960   5.201  12.510 -0.2076  0.1713 -0.6295
 8077TIP3    H145722   5.012   5.187  12.432 -0.2284  0.2711 -0.6612
 8077TIP3    H245723   4.913   5.119  12.524 -0.1298  0.1213 -0.6663
 8078TIP3   OH245724   5.403   4.730  11.323  0.4661 -0.0407 -0.0696
 8078TIP3    H145725   5.315   4.748  11.290  0.7607 -0.7310 -1.2975
 8078TIP3    H245726   5.435   4.659  11.267  1.6382 -0.0986  0.6514
 8079TIP3   OH245727   6.479   3.226   3.764 -0.2492  0.2997  0.1289
 8079TIP3    H145728   6.472   3.175   3.844 -1.5107  0.3298  0.0495
 8079TIP3    H245729   6.445   3.313   3.787  0.6013  0.7151 -0.1043
 8080TIP3   OH245730   0.421   5.293   6.078  0.3486  0.5649  0.2663
 8080TIP3    H145731   0.460   5.210   6.106  1.1932 -0.0783 -2.5081
 8080TIP3    H245732   0.357   5.313   6.146  1.3014 -1.4705  1.8887
 8081TIP3   OH245733   0.187   1.037   1.541 -0.3040  0.3591  0.7285
 8081TIP3    H145734   0.224   0.981   1.610  0.5394  0.9111  0.7358
 8081TIP3    H245735   0.105   1.069   1.578  0.4593  1.1974  1.7795
 8082TIP3   OH245736   6.351   6.471   0.144 -0.4235 -0.2365 -0.8822
 8082TIP3    H145737   6.334   6.434   0.057  3.1568 -2.5727 -0.7802
 8082TIP3    H245738   6.275   6.445   0.196 -0.8457 -2.2411 -2.3739
 8083TIP3   OH245739   2.655   4.765  11.362  0.2089  0.4250  0.3537
 8083TIP3    H145740   2.707   4.763  11.282 -0.3934 -0.5097 -0.0240
 8083TIP3    H245741   2.701   4.706  11.422 -0.0866  0.0577  0.2223
 8084TIP3   OH245742   0.746   1.773  14.598 -0.0908 -0.5235 -0.1204
 8084TIP3    H145743   0.812   1.774  14.668 -1.7815  0.1239  1.5448
 8084TIP3    H245744   0.790   1.730  14.524  2.3935  0.4584  0.6838
 8085TIP3   OH245745   4.338   3.570  11.349  0.0924 -0.8191  0.4424
 8085TIP3    H145746   4.302   3.489  11.313 -1.2832  0.3751 -1.0230
 8085TIP3    H245747   4.378   3.614  11.274 -1.9762  1.2944  0.4565
 8086TIP3   OH245748   4.921   1.858   2.285 -0.7597 -0.0839 -0.3933
 8086TIP3    H145749   4.964   1.916   2.348 -2.4739  0.5407  0.2672
 8086TIP3    H245750   4.862   1.804   2.337 -0.8657 -0.8443 -1.2678
 8087TIP3   OH245751   4.896   4.123   3.998  0.0344  0.9574  1.1693
 8087TIP3    H145752   4.961   4.174   3.949 -1.0598 -0.7970 -2.4648
 8087TIP3    H245753   4.818   4.179   3.999 -0.4528  0.4077 -0.7653
 8088TIP3   OH245754   4.006   4.644  15.245 -0.2701  0.5225 -0.4993
 8088TIP3    H145755   4.064   4.691  15.305  3.1279 -2.4115 -1.1836
 8088TIP3    H245756   3.972   4.571  15.296 -2.2699  1.3190 -0.5815
 8089TIP3   OH245757   5.772   2.914   0.931  0.4792  0.0830  0.8056
 8089TIP3    H145758   5.864   2.889   0.939  1.6211  3.1189 -0.8928
 8089TIP3    H245759   5.766   2.954   0.843 -1.7229  2.5496  1.9281
 8090TIP3   OH245760   6.218   5.105   1.075 -0.7054  0.8504 -0.3051
 8090TIP3    H145761   6.220   5.112   1.170  0.9512  0.0411 -0.2489
 8090TIP3    H245762   6.186   5.190   1.045 -1.0340  1.1899  0.9469
 8091TIP3   OH245763   1.922   4.717  12.099 -0.8491 -0.3497  0.2617
 8091TIP3    H145764   1.961   4.804  12.097 -2.2250  0.3017  0.5631
 8091TIP3    H245765   1.908   4.700  12.193 -1.7693 -0.3309  0.1349
 8092TIP3   OH245766   1.505   0.936  16.835  1.0105 -0.2204  0.2055
 8092TIP3    H145767   1.443   0.953  16.906  0.5665 -0.1389 -0.1975
 8092TIP3    H245768   1.461   0.875  16.777  0.4011  1.4607 -1.2196
 8093TIP3   OH245769   2.052   0.040   6.367  0.0045 -0.4650  0.5649
 8093TIP3    H145770   1.960   0.017   6.376 -0.5383  1.2589 -0.0810
 8093TIP3    H245771   2.074   0.087   6.447  0.7642 -2.0966  1.3581
 8094TIP3   OH245772   0.776   3.064  14.853  0.1338 -0.2343 -0.7252
 8094TIP3    H145773   0.754   3.121  14.779 -0.0500 -0.1925 -0.6392
 8094TIP3    H245774   0.692   3.040  14.890  0.2449  1.5206  0.8232
 8095TIP3   OH245775   4.285   4.142  12.585 -0.6397  0.2127 -0.3649
 8095TIP3    H145776   4.360   4.142  12.645 -0.6971  0.9150 -0.2745
 8095TIP3    H245777   4.300   4.067  12.527  0.6558  0.8957 -0.9737
 8096TIP3   OH245778   1.365   1.885   5.333 -0.0779  0.8002 -0.2996
 8096TIP3    H145779   1.336   1.797   5.358 -0.1303  0.7524 -0.5296
 8096TIP3    H245780   1.333   1.896   5.244  0.4453  0.8231 -0.4854
 8097TIP3   OH245781   2.004   5.592  16.772 -0.5320 -0.1486  0.2616
 8097TIP3    H145782   1.982   5.501  16.788 -0.5270 -0.0073  1.0901
 8097TIP3    H245783   2.047   5.592  16.686  1.7213 -1.2909  1.3125
 8098TIP3   OH245784   6.669   5.328   3.417 -0.1044 -0.1546 -0.8000
 8098TIP3    H145785   6.575   5.313   3.412 -0.2008 -0.1876  0.6927
 8098TIP3    H245786   6.693   5.359   3.330 -1.4327 -0.4639 -1.2979
 8099TIP3   OH245787   1.756   3.323   0.245 -0.0392 -0.2210  0.4638
 8099TIP3    H145788   1.819   3.370   0.300 -0.6568 -0.2152  1.1916
 8099TIP3    H245789   1.801   3.312   0.161  0.7111  0.2781  0.7829
 8100TIP3   OH245790   4.151   5.310   1.414 -0.6447 -0.1639  0.3962
 8100TIP3    H145791   4.233   5.287   1.458  1.4210 -0.1967 -3.1058
 8100TIP3    H245792   4.097   5.232   1.422 -0.5417 -0.0692  2.9561
 8101TIP3   OH245793   0.783   4.236   4.765  0.3463  0.5003  0.5304
 8101TIP3    H145794   0.809   4.148   4.740  1.0588  0.5754  0.9678
 8101TIP3    H245795   0.692   4.228   4.792  1.1492 -0.6827  3.2005
 8102TIP3   OH245796   0.112   6.620  12.094  0.0870 -0.0963 -0.1942
 8102TIP3    H145797   0.044   6.555  12.079  0.5523 -0.4884 -0.6240
 8102TIP3    H245798   0.110   6.637  12.188  0.5964 -1.4354  0.0719
 8103TIP3   OH245799   5.096   5.349   5.328  0.7423 -0.5128 -1.0831
 8103TIP3    H145800   5.099   5.254   5.318  0.9879 -0.4366 -1.8096
 8103TIP3    H245801   5.180   5.379   5.294  0.9575 -0.0878 -0.1937
 8104TIP3   OH245802   5.255   1.651  16.113  0.5169 -0.3721  0.0307
 8104TIP3    H145803   5.298   1.611  16.037 -1.7197 -2.0206 -0.4714
 8104TIP3    H245804   5.327   1.684  16.166  2.4708 -3.2857 -0.5645
 8105TIP3   OH245805   1.221   3.542   4.820 -0.2381 -0.3348  0.1943
 8105TIP3    H145806   1.264   3.457   4.827  0.4189 -0.0068  0.2196
 8105TIP3    H245807   1.256   3.593   4.894 -1.2395 -0.3075  0.6683
 8106TIP3   OH245808   5.945   2.424   4.933 -0.1487 -0.1908  0.1225
 8106TIP3    H145809   5.881   2.489   4.903  0.6017  0.2999 -0.4622
 8106TIP3    H245810   5.897   2.341   4.931 -0.9349  0.2452  0.2680
 8107TIP3   OH245811   1.249   1.056  14.077  0.0416 -0.4963 -0.3732
 8107TIP3    H145812   1.184   0.997  14.114 -0.7325  0.2705 -0.4798
 8107TIP3    H245813   1.328   1.041  14.130 -0.0425 -1.8062 -0.5822
 8108TIP3   OH245814   0.007   3.548  13.150 -0.0886  0.7385  0.2109
 8108TIP3    H145815  -0.074   3.523  13.194 -0.2355 -1.7357 -1.3182
 8108TIP3    H245816  -0.020   3.573  13.061  0.7010  1.1849  0.0813
 8109TIP3   OH245817   2.411   1.469  16.185 -0.1696 -0.3568 -0.1284
 8109TIP3    H145818   2.417   1.506  16.273  0.3473  0.1464 -0.3674
 8109TIP3    H245819   2.330   1.505  16.149  0.5095  0.8663 -0.4922
 8110TIP3   OH245820   5.789   3.998  12.448 -0.1785 -0.1554  0.2230
 8110TIP3    H145821   5.763   4.089  12.463 -2.5841 -0.1770 -3.0078
 8110TIP3    H245822   5.879   4.004  12.416 -0.7121  1.2258 -1.0985
 8111TIP3   OH245823   2.682   0.598   5.956 -0.8532  0.2192  0.3565
 8111TIP3    H145824   2.738   0.676   5.950  1.0916 -1.0700  0.6080
 8111TIP3    H245825   2.660   0.591   6.049 -1.2103  0.5835  0.3003
 8112TIP3   OH245826   3.009   0.700  13.060 -0.1829  0.2763 -0.3444
 8112TIP3    H145827   3.035   0.658  12.979 -0.8825 -0.0675 -0.4033
 8112TIP3    H245828   3.083   0.755  13.084 -0.0266  0.5132 -1.3054
 8113TIP3   OH245829   1.929   4.720   5.443  0.3076  0.1895 -0.7044
 8113TIP3    H145830   1.908   4.712   5.536  3.0270 -1.2656 -0.0908
 8113TIP3    H245831   1.852   4.688   5.397 -0.4950 -0.5917  1.0991
 8114TIP3   OH245832   6.825   3.677  15.096  0.0533  0.2908  0.2936
 8114TIP3    H145833   6.913   3.641  15.103 -0.4049 -1.6682 -2.3419
 8114TIP3    H245834   6.820   3.712  15.007 -1.5405  1.2819  0.7216
 8115TIP3   OH245835   5.687   1.739   5.361  0.1098  0.8332 -0.3412
 8115TIP3    H145836   5.663   1.832   5.357  1.0043  1.0973  0.2326
 8115TIP3    H245837   5.779   1.739   5.385  0.3946 -0.1939 -1.3436
 8116TIP3   OH245838   1.692   3.472   5.079  0.2840  0.1091 -0.2131
 8116TIP3    H145839   1.786   3.469   5.064  0.4818  3.3748 -0.3407
 8116TIP3    H245840   1.682   3.455   5.172  1.3885  2.8239  0.4763
 8117TIP3   OH245841   3.154   6.156  11.390 -0.3368 -0.0870  0.7995
 8117TIP3    H145842   3.120   6.240  11.420  0.1050 -0.3859  2.2434
 8117TIP3    H245843   3.244   6.176  11.363 -0.3916 -0.0152  0.6662
 8118TIP3   OH245844   4.205   1.843  13.528  0.0673 -0.5985  0.0605
 8118TIP3    H145845   4.220   1.807  13.441  2.5444  1.2680 -0.4002
 8118TIP3    H245846   4.126   1.897  13.517  0.9939  0.5435 -1.3879
 8119TIP3   OH245847   6.037   6.370  11.460 -0.8161  0.0543 -0.2740
 8119TIP3    H145848   6.098   6.425  11.410  1.4271 -0.9514  1.1893
 8119TIP3    H245849   5.977   6.335  11.394 -0.0619  1.4078 -1.7507
 8120TIP3   OH245850   4.309   0.647  14.870  0.0988 -0.2387 -0.2287
 8120TIP3    H145851   4.300   0.555  14.893  0.0133 -0.2619 -0.3516
 8120TIP3    H245852   4.229   0.668  14.822 -0.9824  0.5053  1.7802
 8121TIP3   OH245853   0.156   5.989  11.801 -0.2090  0.6597  0.3012
 8121TIP3    H145854   0.209   6.023  11.874  1.6777  0.6597 -0.9924
 8121TIP3    H245855   0.213   5.997  11.725 -2.0010  0.3323 -1.1399
 8122TIP3   OH245856   6.665   6.566   3.110  0.2654  0.8007 -0.2345
 8122TIP3    H145857   6.722   6.572   3.187 -0.4944  0.4087  0.3693
 8122TIP3    H245858   6.589   6.516   3.141  0.6085 -0.6623 -1.6288
 8123TIP3   OH245859   0.201   3.841   3.235 -0.4750 -0.0468  0.1438
 8123TIP3    H145860   0.214   3.746   3.230 -0.3987 -0.1131  1.3944
 8123TIP3    H245861   0.286   3.875   3.265 -0.4555  0.4345 -0.4481
 8124TIP3   OH245862   4.483   3.357   1.992  0.0844  0.1158 -0.8483
 8124TIP3    H145863   4.433   3.297   2.049  1.1807 -1.2804 -1.3037
 8124TIP3    H245864   4.495   3.435   2.046 -0.8948 -0.2693 -0.0185
 8125TIP3   OH245865   5.293   0.319   0.850 -0.2595 -0.0212  0.1812
 8125TIP3    H145866   5.201   0.347   0.853 -0.0091  0.7356  1.3495
 8125TIP3    H245867   5.289   0.224   0.863 -0.8968 -0.0484 -0.1624
 8126TIP3   OH245868   1.403   2.830  16.734 -0.2522 -0.2406 -0.3279
 8126TIP3    H145869   1.366   2.751  16.772  1.5605 -0.5223  1.0131
 8126TIP3    H245870   1.337   2.898  16.749 -0.8457 -1.0053  0.6193
 8127TIP3   OH245871   2.442   6.727   5.234 -0.0523  0.0799 -0.2039
 8127TIP3    H145872   2.525   6.775   5.230  0.3178 -0.6010 -1.2677
 8127TIP3    H245873   2.466   6.642   5.272 -0.8033  0.8680  2.2331
 8128TIP3   OH245874   5.656   6.102   4.607 -0.3824  0.6833  0.3439
 8128TIP3    H145875   5.697   6.189   4.613  2.3025 -0.4150 -0.5341
 8128TIP3    H245876   5.606   6.094   4.688 -0.4256  2.8834  0.6063
 8129TIP3   OH245877   4.319   1.793  13.008 -0.1612 -0.7076  0.0209
 8129TIP3    H145878   4.245   1.853  13.022  1.1825  1.0847 -0.2881
 8129TIP3    H245879   4.337   1.757  13.095  1.4877  2.4179  1.1327
 8130TIP3   OH245880   1.798   5.500   0.913  0.8342  0.2252 -0.1948
 8130TIP3    H145881   1.866   5.441   0.944  1.4323  1.1824  0.3654
 8130TIP3    H245882   1.725   5.487   0.974  0.4119 -0.9610 -0.9264
 8131TIP3   OH245883   0.411   1.211   1.922  0.3732 -0.4124 -0.1122
 8131TIP3    H145884   0.500   1.231   1.891  0.1884  0.8525  0.1065
 8131TIP3    H245885   0.417   1.217   2.017 -0.2399  1.1407 -0.1395
 8132TIP3   OH245886   4.537   6.670  13.422  0.2753  0.4040 -0.1465
 8132TIP3    H145887   4.572   6.603  13.363 -1.0401  0.7041 -1.3137
 8132TIP3    H245888   4.561   6.753  13.380  1.6325  0.6955  1.1330
 8133TIP3   OH245889   1.046   5.955  15.940  0.3044 -0.3536  0.4048
 8133TIP3    H145890   1.097   6.017  15.991 -0.1251  0.6259 -0.3211
 8133TIP3    H245891   0.975   6.007  15.902  0.8559 -0.9282 -1.5476
 8134TIP3   OH245892   3.066   5.847  13.922  0.3268 -0.3623  0.0285
 8134TIP3    H145893   3.138   5.844  13.986 -0.0650  0.2333  0.5081
 8134TIP3    H245894   3.070   5.762  13.878  1.1140 -0.4671  0.2818
 8135TIP3   OH245895   0.553   5.723   1.121  0.3151  0.1798 -0.1064
 8135TIP3    H145896   0.610   5.745   1.047 -0.2603 -0.0755 -0.6348
 8135TIP3    H245897   0.590   5.642   1.156  1.1546  0.7963  0.4997
 8136TIP3   OH245898   1.784   1.033  12.219  0.0672  0.4123 -0.2623
 8136TIP3    H145899   1.829   1.032  12.304 -0.9917  2.3108  0.3949
 8136TIP3    H245900   1.847   1.070  12.158  0.9216 -1.1903 -0.3909
 8137TIP3   OH245901   4.172   0.209  15.391  0.0428 -0.6469 -0.6038
 8137TIP3    H145902   4.089   0.211  15.439  0.8252  2.7199  0.8193
 8137TIP3    H245903   4.153   0.255  15.309  0.3256 -0.5154 -0.5951
 8138TIP3   OH245904   3.885   6.401  11.520  0.5290 -0.1835  0.3279
 8138TIP3    H145905   3.880   6.310  11.549  2.0145 -1.0281 -1.7915
 8138TIP3    H245906   3.965   6.435  11.561  0.9829 -0.4282 -0.3460
 8139TIP3   OH245907   5.924   2.740  16.082 -0.3587 -0.1299  0.4559
 8139TIP3    H145908   5.922   2.795  16.004  2.3938 -0.2147  0.2255
 8139TIP3    H245909   5.914   2.800  16.155 -0.7612  0.2262  0.1114
 8140TIP3   OH245910   3.797   2.043  13.119 -0.4580 -0.2699 -0.4913
 8140TIP3    H145911   3.853   1.967  13.106 -1.0636 -1.4676  2.9596
 8140TIP3    H245912   3.847   2.100  13.178 -0.8474  1.1212 -1.4422
 8141TIP3   OH245913   5.396   1.069   5.419  0.5103  0.2802 -0.1196
 8141TIP3    H145914   5.465   1.009   5.446  0.6924  0.6727  0.3089
 8141TIP3    H245915   5.353   1.095   5.501 -0.7673 -0.6853 -0.4499
 8142TIP3   OH245916   0.302   5.423  13.736  0.2506 -0.1217  0.4358
 8142TIP3    H145917   0.395   5.440  13.748  0.3594 -0.8019  0.6529
 8142TIP3    H245918   0.287   5.341  13.784 -0.5206  0.1456  0.6693
 8143TIP3   OH245919   2.080   1.433  12.892 -0.5204  0.5339 -0.9754
 8143TIP3    H145920   2.110   1.523  12.879 -2.4800  1.0105 -2.8529
 8143TIP3    H245921   2.110   1.387  12.814  1.1346 -0.6936  0.3298
 8144TIP3   OH245922   0.046   2.227  11.250 -0.0794  0.3163  0.1296
 8144TIP3    H145923   0.087   2.228  11.163 -1.8333  2.1397 -0.7777
 8144TIP3    H245924  -0.019   2.298  11.246 -0.1320  0.5246  3.0003
 8145TIP3   OH245925   1.047   3.021  14.435 -0.0038  0.0219  0.1121
 8145TIP3    H145926   1.050   2.987  14.346  0.1436 -0.9135  0.4698
 8145TIP3    H245927   1.111   2.969  14.483  0.0271  0.6202  0.7360
 8146TIP3   OH245928   3.632   5.766   4.767 -0.1797 -0.0311  0.7778
 8146TIP3    H145929   3.550   5.785   4.721  1.1040  1.6536 -0.9677
 8146TIP3    H245930   3.700   5.796   4.707  1.7101 -0.8727  2.4168
 8147TIP3   OH245931   3.575   4.232  16.901 -0.4140  0.0655  0.4220
 8147TIP3    H145932   3.611   4.306  16.949  2.0103 -1.3607  0.9885
 8147TIP3    H245933   3.535   4.177  16.969 -0.9621  0.1614  0.1830
 8148TIP3   OH245934   5.611   6.744   1.629  0.1809 -0.3561  0.3237
 8148TIP3    H145935   5.671   6.806   1.587  0.2650  0.2470  1.3113
 8148TIP3    H245936   5.526   6.789   1.628 -0.1866 -1.0374 -0.6980
 8149TIP3   OH245937   4.891   3.268   6.862 -0.4582 -0.2254  0.3285
 8149TIP3    H145938   4.962   3.258   6.798  1.0473  0.7863  1.7758
 8149TIP3    H245939   4.836   3.191   6.848  0.4941 -0.6562 -1.3487
 8150TIP3   OH245940   2.077   5.582  11.897  0.3037 -0.4684 -0.1302
 8150TIP3    H145941   2.126   5.664  11.888 -0.1798 -0.1483  0.1480
 8150TIP3    H245942   1.997   5.596  11.846 -0.1965 -0.4286  0.6533
 8151TIP3   OH245943   6.013   5.270   5.184  0.5050 -0.0730 -0.1511
 8151TIP3    H145944   6.008   5.330   5.258  1.2357 -1.3164  0.9439
 8151TIP3    H245945   5.931   5.220   5.189 -0.2394  0.9729 -1.2353
 8152TIP3   OH245946   6.166   3.616   3.852  0.5871 -0.1528 -0.0537
 8152TIP3    H145947   6.103   3.546   3.834  1.6117 -1.2804  0.5367
 8152TIP3    H245948   6.145   3.645   3.941  0.9140 -0.5590  0.1596
 8153TIP3   OH245949   4.533   2.236  16.466 -0.1116 -0.9714  0.2196
 8153TIP3    H145950   4.546   2.230  16.561  1.3686  0.3746  0.1617
 8153TIP3    H245951   4.440   2.256  16.455 -0.0762  0.0167  1.4829
 8154TIP3   OH245952   2.334   5.640   3.484  0.2991 -0.0710 -0.0087
 8154TIP3    H145953   2.371   5.683   3.407  2.4482 -1.2669  0.2580
 8154TIP3    H245954   2.298   5.711   3.537  0.0236  0.9064 -1.4528
 8155TIP3   OH245955   5.204   2.635  13.503  0.0112 -0.3834  0.1670
 8155TIP3    H145956   5.163   2.721  13.510  0.1068 -0.1216 -1.9262
 8155TIP3    H245957   5.131   2.573  13.515 -0.8426  0.0704 -2.0971
 8156TIP3   OH245958   0.312   5.137  12.051  0.1889 -0.3804  0.2381
 8156TIP3    H145959   0.255   5.212  12.035  1.0959  0.2758 -0.0078
 8156TIP3    H245960   0.330   5.140  12.145  0.3623 -0.1721  0.2015
 8157TIP3   OH245961   2.960   0.535  14.131 -0.2231  0.1294  0.1979
 8157TIP3    H145962   3.033   0.579  14.087 -1.1922  0.8692 -0.7106
 8157TIP3    H245963   2.930   0.599  14.196  1.2069 -0.9573  2.0384
 8158TIP3   OH245964   4.914   1.221  14.258  0.0716  0.1844 -0.7140
 8158TIP3    H145965   4.953   1.180  14.335 -1.0981  2.1188  0.9981
 8158TIP3    H245966   4.831   1.174  14.245  0.9268 -1.0985 -1.7322
 8159TIP3   OH245967   5.544   5.128  13.175 -0.1222  0.1494  0.6062
 8159TIP3    H145968   5.626   5.177  13.164  0.9132 -1.6918 -0.3979
 8159TIP3    H245969   5.501   5.169  13.250  1.5193  1.4514  0.8797
 8160TIP3   OH245970   3.259   6.765   3.931  0.7849 -0.0185 -0.8917
 8160TIP3    H145971   3.236   6.810   3.849  0.1082  1.7886  0.2337
 8160TIP3    H245972   3.337   6.810   3.962  0.1660  0.3419  0.2069
 8161TIP3   OH245973   5.622   5.711   1.074  0.6264  0.3540  0.2669
 8161TIP3    H145974   5.560   5.653   1.118  0.4733  0.5634  0.3321
 8161TIP3    H245975   5.682   5.739   1.143  1.6636 -0.9623 -0.0714
 8162TIP3   OH245976   1.331   4.006  13.118  0.4641  0.5018  0.0904
 8162TIP3    H145977   1.336   4.092  13.075 -0.2204 -0.7982 -2.8219
 8162TIP3    H245978   1.259   3.962  13.074 -0.2098 -1.0540  2.6025
 8163TIP3   OH245979   3.554   5.635   2.715 -0.4062  0.2435 -0.2257
 8163TIP3    H145980   3.509   5.556   2.684 -1.7089  1.1377 -0.6733
 8163TIP3    H245981   3.609   5.603   2.787 -0.1087 -1.2425 -1.0678
 8164TIP3   OH245982   1.816   1.904  13.899  0.2486 -0.1520  0.0992
 8164TIP3    H145983   1.724   1.911  13.925 -0.4325 -0.3603 -2.0502
 8164TIP3    H245984   1.827   1.971  13.832  1.5804 -0.3678  0.0750
 8165TIP3   OH245985   0.281   1.437   0.862 -0.6520 -0.6412  0.4710
 8165TIP3    H145986   0.306   1.512   0.808  0.2354 -1.3439 -0.1307
 8165TIP3    H245987   0.281   1.471   0.952 -0.1338  0.0480  0.2188
 8166TIP3   OH245988   0.840   0.575  14.430  0.1703 -0.2642 -0.2600
 8166TIP3    H145989   0.762   0.572  14.375 -0.7582  1.3402  0.8801
 8166TIP3    H245990   0.832   0.657  14.479  2.0926 -0.5300  0.5996
 8167TIP3   OH245991   4.224   3.539  14.333  0.3106 -0.0651 -0.5299
 8167TIP3    H145992   4.308   3.499  14.308 -0.6385 -1.2650 -2.0198
 8167TIP3    H245993   4.205   3.600  14.262 -0.0710  0.2152 -0.1893
 8168TIP3   OH245994   4.419   4.739  12.565 -0.4720 -0.3662  0.2318
 8168TIP3    H145995   4.359   4.712  12.634  0.2942  0.9309  1.4431
 8168TIP3    H245996   4.479   4.801  12.607 -0.4494  1.0662 -1.7674
 8169TIP3   OH245997   4.891   2.322  15.005  0.6015 -0.1556  0.1540
 8169TIP3    H145998   4.979   2.292  15.029  0.9039  0.4428 -0.1881
 8169TIP3    H245999   4.891   2.322  14.909  0.8139  1.4545  0.1249
 8170TIP3   OH246000   5.155   5.419   5.903  0.4746 -0.3579 -0.6654
 8170TIP3    H146001   5.066   5.448   5.882  0.8524  2.9538  1.5814
 8170TIP3    H246002   5.152   5.398   5.996  1.6879 -2.1376 -0.9773
 8171TIP3   OH246003   0.914   3.562   5.796 -0.3104  0.0318 -0.1832
 8171TIP3    H146004   0.953   3.586   5.880  0.8838 -0.2069 -0.6538
 8171TIP3    H246005   0.987   3.529   5.744 -1.1129 -0.2478 -1.1646
 8172TIP3   OH246006   4.513   6.275  16.602 -0.3702  0.2514 -0.3339
 8172TIP3    H146007   4.574   6.204  16.617  0.7444  1.3585  0.5931
 8172TIP3    H246008   4.431   6.232  16.580 -0.4214 -1.4522  2.6181
 8173TIP3   OH246009   0.154   6.120   0.464  0.0425 -0.4307 -0.0896
 8173TIP3    H146010   0.133   6.063   0.390 -1.5667 -1.2657  0.9604
 8173TIP3    H246011   0.085   6.186   0.463  0.4873  0.0469  0.1811
 8174TIP3   OH246012   0.187   5.867  12.502  0.2522  0.1008 -0.0102
 8174TIP3    H146013   0.147   5.892  12.585  2.8239  0.2953  1.2551
 8174TIP3    H246014   0.193   5.771  12.507 -1.3159 -0.0861 -0.8788
 8175TIP3   OH246015   2.811   5.547  10.710  0.3631  0.2859  0.7696
 8175TIP3    H146016   2.786   5.492  10.785 -0.5982  0.7000  0.7727
 8175TIP3    H246017   2.881   5.603  10.744 -0.5568  0.9719  1.5956
 8176TIP3   OH246018   0.450   2.073  13.467 -1.0922 -0.1401  0.7512
 8176TIP3    H146019   0.532   2.028  13.485 -0.7821  0.3343  0.5500
 8176TIP3    H246020   0.382   2.006  13.479 -0.6036 -0.7941 -0.0842
 8177TIP3   OH246021   3.142   2.648  11.755 -0.1868  0.4487  0.6248
 8177TIP3    H146022   3.237   2.655  11.762 -0.2645  1.1831  1.0211
 8177TIP3    H246023   3.108   2.721  11.807 -1.0221 -1.0120  2.2249
 8178TIP3   OH246024   4.459   2.154  13.816 -0.0587 -0.4031 -0.0041
 8178TIP3    H146025   4.464   2.179  13.723  3.8931 -3.0549 -0.7444
 8178TIP3    H246026   4.386   2.093  13.820  0.2295 -0.9087 -1.5916
 8179TIP3   OH246027   6.155   4.526  16.749 -0.1658 -0.8523  0.4584
 8179TIP3    H146028   6.162   4.538  16.843  0.2690  2.2519  0.1202
 8179TIP3    H246029   6.062   4.539  16.730 -0.3173 -1.8323  0.4523
 8180TIP3   OH246030   5.099   4.151  13.466  0.1985 -0.0152 -0.5097
 8180TIP3    H146031   5.057   4.173  13.383  0.4151  2.3487 -0.0683
 8180TIP3    H246032   5.190   4.179  13.455  0.0717  0.9958  0.7024
 8181TIP3   OH246033   1.777   2.305  11.794  0.1303  0.0614 -0.0713
 8181TIP3    H146034   1.790   2.244  11.866 -2.1922  1.2174  1.4975
 8181TIP3    H246035   1.819   2.264  11.719  0.0695 -2.6573  1.2534
 8182TIP3   OH246036   3.304   5.614   3.844  0.7941 -0.1157 -0.1405
 8182TIP3    H146037   3.339   5.647   3.761 -3.3307  0.6909 -1.8069
 8182TIP3    H246038   3.328   5.681   3.908  4.3754 -0.9388 -0.4410
 8183TIP3   OH246039   6.195   3.439  12.067  0.1236  0.4669  0.7471
 8183TIP3    H146040   6.172   3.444  12.160  2.3532 -0.7587  1.4499
 8183TIP3    H246041   6.256   3.365  12.061  1.0362  1.2955 -1.4654
 8184TIP3   OH246042   2.471   6.002   6.220 -0.2423  0.5444  0.1004
 8184TIP3    H146043   2.563   6.024   6.203  0.3133 -2.0731 -0.8307
 8184TIP3    H246044   2.430   5.999   6.134 -1.0188  0.9432  0.4497
 8185TIP3   OH246045   6.629   1.408   2.356 -0.0070  0.6216  0.3435
 8185TIP3    H146046   6.655   1.315   2.361  0.4944  0.8148  2.3471
 8185TIP3    H246047   6.535   1.408   2.374 -0.2905  0.4063 -1.0586
 8186TIP3   OH246048   4.065   3.517  11.754 -0.0243 -0.1237  0.1745
 8186TIP3    H146049   4.146   3.556  11.720 -0.5906  0.8343 -0.1214
 8186TIP3    H246050   4.018   3.490  11.676 -1.2526  1.9228  0.1396
 8187TIP3   OH246051   3.988   4.884   5.078 -0.3629 -0.2235  0.4872
 8187TIP3    H146052   3.954   4.971   5.098 -1.6970 -0.5178 -0.3498
 8187TIP3    H246053   4.010   4.887   4.985  1.1876 -0.3051  0.8178
 8188TIP3   OH246054   5.915   0.682  11.462 -0.3560 -0.1248 -0.4569
 8188TIP3    H146055   5.955   0.634  11.390 -2.0943  0.2846 -1.7509
 8188TIP3    H246056   5.978   0.673  11.534  0.7973 -1.6979 -1.5804
 8189TIP3   OH246057   4.706   4.773   2.053  0.6281 -0.0542  0.4885
 8189TIP3    H146058   4.613   4.793   2.052  0.8971  1.2473  0.2089
 8189TIP3    H246059   4.711   4.682   2.023 -0.6818 -0.8089  2.3502
 8190TIP3   OH246060   2.289   1.606   2.219 -0.2969  0.7752 -0.2819
 8190TIP3    H146061   2.275   1.537   2.154 -0.7070  1.8657 -1.3953
 8190TIP3    H246062   2.384   1.616   2.223 -0.2798  0.9028 -0.9427
 8191TIP3   OH246063   1.077   3.175   3.576 -0.1050 -0.3415 -0.3354
 8191TIP3    H146064   1.012   3.121   3.532 -0.1519 -0.7262  0.1974
 8191TIP3    H246065   1.142   3.113   3.610 -0.4685 -0.1228  0.7917
 8192TIP3   OH246066   5.373   2.678  14.970  0.9933  0.0774  0.8220
 8192TIP3    H146067   5.312   2.608  14.992  1.3245 -0.6161 -0.3628
 8192TIP3    H246068   5.397   2.716  15.054 -0.0156 -0.5268  1.4064
 8193TIP3   OH246069   5.768   5.901   4.453  0.4159 -0.2784 -0.0412
 8193TIP3    H146070   5.707   5.908   4.526  0.0829 -0.5887 -0.2869
 8193TIP3    H246071   5.762   5.985   4.408 -0.8615 -0.7865 -0.8675
 8194TIP3   OH246072   5.559   0.542   4.599 -0.6468  0.2384  0.2786
 8194TIP3    H146073   5.625   0.588   4.547  1.3423  0.2644  2.6465
 8194TIP3    H246074   5.565   0.580   4.686 -1.8194 -1.7055  1.2997
 8195TIP3   OH246075   3.913   6.008   3.732 -0.0069  0.1911  0.0971
 8195TIP3    H146076   3.922   5.915   3.714  0.2634  0.3921 -0.8545
 8195TIP3    H246077   3.869   6.012   3.817  2.3652 -0.7973  1.4485
 8196TIP3   OH246078   1.200   2.916   3.655 -0.0426  0.4386 -0.3570
 8196TIP3    H146079   1.205   2.831   3.700 -1.0783  0.3685 -0.3594
 8196TIP3    H246080   1.256   2.906   3.579  1.0650  0.2714  0.4549
 8197TIP3   OH246081   4.794   2.111  11.973  0.1476 -0.4819 -0.2967
 8197TIP3    H146082   4.707   2.149  11.963  0.4002  0.2929  0.3398
 8197TIP3    H246083   4.829   2.151  12.052  1.1898 -0.5765 -0.6887
 8198TIP3   OH246084   2.966   5.558  15.168 -0.0791  0.3232 -0.1657
 8198TIP3    H146085   3.050   5.525  15.134  0.4608 -0.6039  1.9256
 8198TIP3    H246086   2.902   5.534  15.101  1.1544  0.0546 -1.2937
 8199TIP3   OH246087   2.192   1.191   3.248 -0.6721  0.0006  0.7908
 8199TIP3    H146088   2.105   1.166   3.217 -0.3010 -1.0825  0.5693
 8199TIP3    H246089   2.183   1.196   3.343 -1.5363  2.2284  0.6572
 8200TIP3   OH246090   0.370   6.664  15.089  0.4074  0.0914 -0.1509
 8200TIP3    H146091   0.457   6.644  15.122 -0.8371 -0.8245  2.9062
 8200TIP3    H246092   0.333   6.726  15.152 -1.4460 -0.1658 -0.8933
 8201TIP3   OH246093   1.609   5.076   6.126  0.0853 -0.1555 -0.3514
 8201TIP3    H146094   1.583   5.158   6.169  1.7947 -0.0569  0.5840
 8201TIP3    H246095   1.634   5.102   6.037 -0.0836  0.2319 -0.2844
 8202TIP3   OH246096   5.189   3.085  13.948 -0.1574 -0.2355  0.3487
 8202TIP3    H146097   5.219   2.996  13.930  1.1916  0.3804 -0.7198
 8202TIP3    H246098   5.195   3.095  14.043 -0.7191 -1.3976  0.5186
 8203TIP3   OH246099   0.432   2.228  11.978  0.6034  0.1041  0.2162
 8203TIP3    H146100   0.504   2.291  11.971  0.0412  0.7560  0.1644
 8203TIP3    H246101   0.368   2.272  12.035  0.9608 -1.1557  1.6668
 8204TIP3   OH246102   2.726   2.266  13.010  0.0039  0.4964  0.1944
 8204TIP3    H146103   2.693   2.257  13.099 -1.7290 -0.3738 -0.4755
 8204TIP3    H246104   2.731   2.177  12.977  1.9386  0.7112 -0.1624
 8205TIP3   OH246105   3.413   5.139   1.353 -0.0165 -0.0250  0.1365
 8205TIP3    H146106   3.509   5.143   1.355  0.0286 -0.8908  2.6544
 8205TIP3    H246107   3.394   5.051   1.320  0.0098  0.4333 -1.1468
 8206TIP3   OH246108   6.814   0.859   2.258  0.3458 -0.4643  0.2202
 8206TIP3    H146109   6.807   0.913   2.337  0.9216 -1.6738  1.1401
 8206TIP3    H246110   6.803   0.920   2.185 -1.7677  0.4524  1.2424
 8207TIP3   OH246111   2.142   5.547   0.163 -0.0987  0.0664  0.5839
 8207TIP3    H146112   2.179   5.596   0.237  0.2742 -0.5289  0.7997
 8207TIP3    H246113   2.137   5.611   0.092 -1.3796  0.9197  1.3816
 8208TIP3   OH246114   6.517   0.913   4.228  0.6236 -0.0428 -0.0341
 8208TIP3    H146115   6.444   0.956   4.272  1.0737 -0.3714  1.0640
 8208TIP3    H246116   6.594   0.935   4.281  1.0884 -0.9440 -0.3111
 8209TIP3   OH246117   6.768   1.886   3.594  0.1204  0.2003  0.0540
 8209TIP3    H146118   6.767   1.798   3.632  1.7267 -1.0068 -2.4081
 8209TIP3    H246119   6.807   1.941   3.662  0.5416 -1.3226  1.1061
 8210TIP3   OH246120   5.989   1.211  13.880 -0.2309  0.0148 -0.0049
 8210TIP3    H146121   6.059   1.264  13.916  0.0500 -0.6101  0.3845
 8210TIP3    H246122   5.911   1.236  13.931 -0.0290 -0.1851  0.4087
 8211TIP3   OH246123   3.345   3.915  11.418 -0.2150  0.1872 -0.4175
 8211TIP3    H146124   3.261   3.892  11.379 -1.8583  2.4285  1.5397
 8211TIP3    H246125   3.346   4.011  11.419  2.0109  0.2078  0.3674
 8212TIP3   OH246126   1.263   6.572  12.189 -0.4580  0.3964  0.0880
 8212TIP3    H146127   1.230   6.660  12.210 -0.7738  1.1080 -2.8588
 8212TIP3    H246128   1.291   6.579  12.097  0.3000 -2.3836  0.0269
 8213TIP3   OH246129   0.778   5.121  11.875 -0.0685 -0.0689  0.5462
 8213TIP3    H146130   0.727   5.105  11.954  0.5234  1.4117  1.2714
 8213TIP3    H246131   0.821   5.205  11.891  0.7449 -0.1533 -1.0035
 8214TIP3   OH246132   6.450   2.812   2.796 -0.0429 -0.2276  0.0152
 8214TIP3    H146133   6.464   2.815   2.891 -1.6912 -2.2920  0.3900
 8214TIP3    H246134   6.420   2.900   2.773  1.4839  0.6482  1.1743
 8215TIP3   OH246135   3.276   2.711   5.519  0.0270  0.1757 -0.0110
 8215TIP3    H146136   3.251   2.803   5.512  0.4698  0.3190  0.2239
 8215TIP3    H246137   3.313   2.703   5.607 -2.5184 -0.8489  1.0513
 8216TIP3   OH246138   0.266   2.003  14.316 -0.2386 -0.3111 -0.0009
 8216TIP3    H146139   0.293   1.917  14.348 -0.4770 -0.0068  1.0531
 8216TIP3    H246140   0.280   2.062  14.390 -0.2338  0.5285 -0.6600
 8217TIP3   OH246141   3.052   4.464   5.003  0.0542 -0.9472 -0.3954
 8217TIP3    H146142   2.996   4.538   5.030  0.7833 -0.0811 -1.1848
 8217TIP3    H246143   3.006   4.426   4.928  1.2829  0.8157 -2.1334
 8218TIP3   OH246144   4.114   1.926  10.723 -0.3987 -0.2901  0.5438
 8218TIP3    H146145   4.140   1.997  10.782 -1.7407 -0.4402  1.3678
 8218TIP3    H246146   4.192   1.908  10.671 -0.0553  1.8343  0.2386
 8219TIP3   OH246147   2.464   5.784  16.774 -1.0329  0.5286 -0.5325
 8219TIP3    H146148   2.446   5.699  16.813  1.6511 -0.5011 -1.2987
 8219TIP3    H246149   2.414   5.784  16.692  1.5697 -1.9066 -2.2858
 8220TIP3   OH246150   3.156   5.759   1.177  0.0930 -0.5057  0.5057
 8220TIP3    H146151   3.070   5.723   1.197  0.6990 -2.0803  0.3724
 8220TIP3    H246152   3.163   5.836   1.234 -1.2518 -0.5375  0.7515
 8221TIP3   OH246153   0.809   2.174  13.264  0.2541  0.2045  0.2723
 8221TIP3    H146154   0.789   2.144  13.353  0.7397 -1.4664 -0.1448
 8221TIP3    H246155   0.859   2.103  13.225  1.6629  1.6702 -0.7537
 8222TIP3   OH246156   0.474   3.184  17.170  0.0472 -0.4409 -0.1676
 8222TIP3    H146157   0.561   3.158  17.140 -0.3631 -0.5736 -1.2893
 8222TIP3    H246158   0.463   3.137  17.253  1.0336 -0.4254 -0.0112
 8223TIP3   OH246159   0.951   5.305   5.401 -0.2969 -0.0067 -0.3114
 8223TIP3    H146160   0.902   5.238   5.449 -1.4012  1.3702  0.5171
 8223TIP3    H246161   0.884   5.358   5.358  0.3327  2.3518  1.4083
 8224TIP3   OH246162   3.561   4.976  11.055  0.0134 -0.5825  0.5497
 8224TIP3    H146163   3.625   4.943  11.118  1.5375 -0.4667 -0.8430
 8224TIP3    H246164   3.540   5.064  11.086  1.7768  0.0014  0.2291
 8225TIP3   OH246165   1.981   2.578   1.752  0.4686  0.2450 -0.1749
 8225TIP3    H146166   2.060   2.552   1.800 -0.1432 -1.9138 -0.2478
 8225TIP3    H246167   1.927   2.500   1.750 -2.4145  2.0291  1.1917
 8226TIP3   OH246168   1.445   5.121  11.908  0.1129 -0.4701  0.0099
 8226TIP3    H146169   1.532   5.100  11.874 -1.0434 -1.6341 -2.5011
 8226TIP3    H246170   1.421   5.044  11.960  0.6484 -0.0174  0.9663
 8227TIP3   OH246171   2.628   0.306   1.726 -0.2920 -0.0613  0.8074
 8227TIP3    H146172   2.595   0.391   1.699  1.7715  0.2862 -0.8255
 8227TIP3    H246173   2.625   0.309   1.822 -1.1112  1.4604  0.7703
 8228TIP3   OH246174   6.659   1.531   4.180 -0.2226  0.3253 -0.4144
 8228TIP3    H146175   6.740   1.577   4.200  0.1178 -0.6441  0.5411
 8228TIP3    H246176   6.651   1.536   4.085 -0.3299  2.5173 -0.3288
 8229TIP3   OH246177   1.124   2.830   2.838  0.2936  0.6209  0.7465
 8229TIP3    H146178   1.192   2.763   2.831  1.1274  0.9433  3.9698
 8229TIP3    H246179   1.043   2.784   2.819  1.1837 -0.2388 -1.2660
 8230TIP3   OH246180   0.654   6.619  10.629  0.2507  0.0805  0.3795
 8230TIP3    H146181   0.604   6.554  10.679  0.5226  1.4813  2.6129
 8230TIP3    H246182   0.745   6.591  10.639  0.3443  0.6132  1.1168
 8231TIP3   OH246183   5.953   4.471   4.538  1.0071  0.1691  0.0063
 8231TIP3    H146184   5.930   4.535   4.470  1.1856 -0.2964 -0.5049
 8231TIP3    H246185   5.877   4.469   4.596  0.7712  0.4359 -0.2874
 8232TIP3   OH246186   3.613   4.661  14.557 -0.4981  0.8786 -0.2785
 8232TIP3    H146187   3.576   4.572  14.559  0.8981  0.2542 -1.1770
 8232TIP3    H246188   3.696   4.651  14.512 -0.7057  2.8120 -1.1477
 8233TIP3   OH246189   0.532   3.757  15.419 -0.9802  0.0092  0.2112
 8233TIP3    H146190   0.454   3.763  15.474 -0.2725 -0.0038  1.2532
 8233TIP3    H246191   0.537   3.664  15.396 -0.2023 -0.3847  1.8038
 8234TIP3   OH246192   5.265   4.235   1.584 -0.8936  0.0124 -0.2910
 8234TIP3    H146193   5.271   4.241   1.679 -1.1375  0.5374 -0.3036
 8234TIP3    H246194   5.328   4.167   1.560 -2.0717 -1.3681  0.3877
 8235TIP3   OH246195   1.191   2.637   5.559 -0.4673 -0.4277 -0.2291
 8235TIP3    H146196   1.272   2.591   5.534  1.4744  1.2261  2.4507
 8235TIP3    H246197   1.198   2.647   5.654 -3.5539  0.4247  0.0103
 8236TIP3   OH246198   2.055   0.374  16.769 -0.4220  0.2704 -0.7439
 8236TIP3    H146199   2.014   0.288  16.784  0.3838  0.0381  0.3059
 8236TIP3    H246200   2.148   0.354  16.757  0.3448  1.1473  2.5905
 8237TIP3   OH246201   2.667   4.970  11.997  0.5544 -0.3591  0.2444
 8237TIP3    H146202   2.628   4.956  12.084  0.3969  1.5302  0.5247
 8237TIP3    H246203   2.637   4.896  11.945 -0.6837 -0.6842  1.3702
 8238TIP3   OH246204   5.000   1.221  15.151 -0.5501  0.1410  0.0794
 8238TIP3    H146205   5.013   1.244  15.059 -0.6050  0.9035  0.2545
 8238TIP3    H246206   5.063   1.150  15.167 -1.5457 -0.9967 -0.9085
 8239TIP3   OH246207   3.503   5.691   4.134 -0.4070  0.1520 -0.1419
 8239TIP3    H146208   3.461   5.610   4.162  1.8667 -0.6493  1.2341
 8239TIP3    H246209   3.535   5.672   4.046  0.2552 -0.5232  0.2377
 8240TIP3   OH246210   4.475   2.724   3.436 -0.2199  0.0375  0.2433
 8240TIP3    H146211   4.556   2.763   3.403  1.7211 -2.9026  1.1511
 8240TIP3    H246212   4.477   2.740   3.530 -1.1017  0.5426  0.1898
 8241TIP3   OH246213   1.367   6.666  12.846 -0.2510 -0.3565 -0.4170
 8241TIP3    H146214   1.437   6.728  12.867 -0.5229 -0.3282  0.4453
 8241TIP3    H246215   1.363   6.607  12.922 -1.7077  0.1518 -0.0577
 8242TIP3   OH246216   2.301   1.035  12.621  0.1700  0.1483 -0.8442
 8242TIP3    H146217   2.277   1.060  12.532 -0.7846  1.8085 -0.1614
 8242TIP3    H246218   2.393   1.062  12.629  0.4864 -0.6761 -1.5336
 8243TIP3   OH246219   4.809   5.782  16.153 -0.1877 -0.0387  0.3854
 8243TIP3    H146220   4.863   5.827  16.088  1.6051 -2.8435 -0.2157
 8243TIP3    H246221   4.723   5.825  16.146  0.5673  1.2630 -2.1952
 8244TIP3   OH246222   3.066   3.427  16.580 -0.4031 -0.1859  0.2862
 8244TIP3    H146223   3.025   3.351  16.537 -0.4553 -0.9788  1.6849
 8244TIP3    H246224   3.160   3.415  16.566 -0.4709  0.1984 -0.5953
 8245TIP3   OH246225   4.963   4.309  11.764 -0.0535  0.1676  0.4896
 8245TIP3    H146226   5.054   4.287  11.747 -0.3499 -0.3266 -0.5304
 8245TIP3    H246227   4.965   4.361  11.845  1.1064  0.0566  0.5416
 8246TIP3   OH246228   5.857   4.549  13.691 -0.4430  0.6743  0.6297
 8246TIP3    H146229   5.930   4.498  13.726 -0.5259 -0.3890 -0.6557
 8246TIP3    H246230   5.894   4.597  13.618 -1.1866 -0.6148 -0.6476
 8247TIP3   OH246231   4.837   6.682  14.482 -0.8100 -1.1382  0.5996
 8247TIP3    H146232   4.742   6.689  14.480 -0.7040  0.8221  0.5983
 8247TIP3    H246233   4.858   6.663  14.573 -1.2120 -1.9298  0.5331
 8248TIP3   OH246234   4.804   1.972   4.039 -0.0895  0.3365  0.6406
 8248TIP3    H146235   4.806   2.012   3.952 -0.8682  0.3941  0.6398
 8248TIP3    H246236   4.726   1.917   4.038  1.0570 -1.3746  0.5620
 8249TIP3   OH246237   6.751   0.797   5.988 -0.5038 -0.4616  0.3143
 8249TIP3    H146238   6.748   0.883   5.947 -0.8399  0.4445  2.1371
 8249TIP3    H246239   6.821   0.750   5.942 -0.2128  0.8389 -0.5952
 8250TIP3   OH246240   6.341   5.790  11.512 -0.0974 -0.4088 -0.2165
 8250TIP3    H146241   6.295   5.772  11.430 -1.2052 -0.7451  0.4461
 8250TIP3    H246242   6.432   5.802  11.487 -0.5520  0.3176 -1.5897
 8251TIP3   OH246243   3.778   4.916   3.243 -0.3270  0.1093 -0.7495
 8251TIP3    H146244   3.705   4.957   3.288 -1.2836 -0.5909 -1.6306
 8251TIP3    H246245   3.793   4.970   3.166  1.1679  1.1805  0.2368
 8252TIP3   OH246246   0.998   5.588   2.604 -0.2314  0.1412 -0.3929
 8252TIP3    H146247   1.022   5.505   2.564  1.7092  0.0375  0.8354
 8252TIP3    H246248   0.952   5.564   2.685 -1.2390  0.3152 -0.8931
 8253TIP3   OH246249   4.684   6.405  11.833  0.2822  0.5273 -0.2210
 8253TIP3    H146250   4.644   6.491  11.845 -1.4872 -0.2333 -0.2777
 8253TIP3    H246251   4.677   6.388  11.739 -0.3834 -0.1197 -0.0618
 8254TIP3   OH246252   5.931   0.957  16.524 -0.3412  0.0819 -0.1003
 8254TIP3    H146253   5.879   0.947  16.604 -2.0120  1.9848 -0.8486
 8254TIP3    H246254   5.964   0.870  16.506 -0.3910 -0.5239  2.3277
 8255TIP3   OH246255   6.602   0.430  15.141 -0.3697 -0.0457 -0.2212
 8255TIP3    H146256   6.523   0.448  15.191 -1.1092 -1.4144 -0.8453
 8255TIP3    H246257   6.672   0.423  15.207 -0.9592  0.1501  0.4283
 8256TIP3   OH246258   2.713   3.123  11.530  0.3677  0.0158  0.0363
 8256TIP3    H146259   2.706   3.214  11.559  1.2832  0.1546 -0.1532
 8256TIP3    H246260   2.661   3.120  11.449  1.1271  0.6211 -0.4903
 8257TIP3   OH246261   4.086   4.667  14.308 -0.0271 -0.4524 -0.0193
 8257TIP3    H146262   4.099   4.755  14.343  0.1150 -0.2832 -0.4835
 8257TIP3    H246263   4.171   4.625  14.317 -0.1519 -0.6174  0.4037
 8258TIP3   OH246264   6.569   0.826  13.619  0.2963 -0.2063  0.2602
 8258TIP3    H146265   6.533   0.845  13.705 -0.7493  1.3085 -0.4666
 8258TIP3    H246266   6.664   0.829  13.632  0.2266  2.7843  0.8748
 8259TIP3   OH246267   0.603   5.198  12.084 -0.2924 -0.2146 -0.0464
 8259TIP3    H146268   0.583   5.276  12.137  2.0086 -0.4159  1.2437
 8259TIP3    H246269   0.521   5.149  12.084 -1.3621  1.4706  0.4021
 8260TIP3   OH246270   3.071   3.963   2.279 -0.3077  0.0386  0.3570
 8260TIP3    H146271   3.138   3.896   2.271  0.4063  0.4682  2.2299
 8260TIP3    H246272   3.120   4.045   2.290 -1.1544  0.7816 -1.0963
 8261TIP3   OH246273   2.503   5.918   1.010  0.1210 -0.8044 -0.5257
 8261TIP3    H146274   2.585   5.869   0.993  0.1194 -0.6944 -0.8594
 8261TIP3    H246275   2.522   5.969   1.088  0.6973 -0.0618 -1.1315
 8262TIP3   OH246276   1.036   0.937  12.172 -0.3082 -0.1276 -0.2886
 8262TIP3    H146277   0.971   0.875  12.206 -1.5855  1.7628  0.8970
 8262TIP3    H246278   1.015   0.944  12.078 -2.2118  0.8197  0.1573
 8263TIP3   OH246279   0.145   2.850  15.247  0.5336  0.2749 -0.4617
 8263TIP3    H146280   0.173   2.940  15.259  2.3551 -0.4986  1.6021
 8263TIP3    H246281   0.203   2.798  15.302 -2.9265 -1.8124  1.6105
 8264TIP3   OH246282   5.137   6.363   3.575  0.2397  0.8912 -0.3881
 8264TIP3    H146283   5.101   6.354   3.487 -0.6945  0.8800 -0.0249
 8264TIP3    H246284   5.230   6.344   3.566 -0.1907 -1.2339 -1.0180
 8265TIP3   OH246285   5.317   1.522   2.344 -0.1969  0.2054 -0.1200
 8265TIP3    H146286   5.269   1.585   2.290 -1.9260 -0.5048  0.5424
 8265TIP3    H246287   5.250   1.468   2.385  1.0108  0.6598  2.7069
 8266TIP3   OH246288   5.639   1.464  10.361 -0.2648 -0.4578  0.1819
 8266TIP3    H146289   5.587   1.499  10.433 -0.3329  1.8164 -0.8850
 8266TIP3    H246290   5.578   1.458  10.287  0.3360 -0.5473 -0.3171
 8267TIP3   OH246291   4.229   6.511   4.406  0.3006 -0.6696 -0.7602
 8267TIP3    H146292   4.184   6.514   4.491  0.2879 -1.5332 -0.7275
 8267TIP3    H246293   4.285   6.589   4.406  0.5810 -0.8538  0.1982
 8268TIP3   OH246294   1.204   2.968   4.904  0.3549 -0.4196 -0.0147
 8268TIP3    H146295   1.158   2.999   4.982  0.9229 -1.6470  0.8345
 8268TIP3    H246296   1.287   2.933   4.937  0.4816 -1.2167 -1.1285
 8269TIP3   OH246297   0.456   1.109  14.458 -0.3019  0.2480  0.1860
 8269TIP3    H146298   0.498   1.149  14.534 -0.0250 -0.7412  0.5722
 8269TIP3    H246299   0.363   1.110  14.480 -0.2480  0.2072  0.4237
 8270TIP3   OH246300   4.726   1.411   5.296 -0.4883 -0.5054  0.8693
 8270TIP3    H146301   4.791   1.429   5.363 -0.1462  0.8572  0.2041
 8270TIP3    H246302   4.673   1.491   5.290  0.0306 -0.2448 -1.0444
 8271TIP3   OH246303   6.518   5.004  15.237  0.3577  0.1124  0.3020
 8271TIP3    H146304   6.474   5.042  15.162 -0.6580 -2.0248 -0.2665
 8271TIP3    H246305   6.608   5.036  15.231  0.8719 -1.5650 -3.0553
 8272TIP3   OH246306   2.031   0.100  11.755 -0.5456 -0.4181 -0.3568
 8272TIP3    H146307   2.046   0.125  11.664 -2.3398 -2.5599 -1.3262
 8272TIP3    H246308   2.099   0.035  11.773 -0.0746  0.1385 -0.0455
 8273TIP3   OH246309   3.085   2.470   2.079  0.3677  0.0103 -0.1279
 8273TIP3    H146310   3.058   2.461   1.988 -1.2340  0.6986  0.2257
 8273TIP3    H246311   3.004   2.454   2.129  0.9515  0.7415  1.0970
 8274TIP3   OH246312   6.126   3.370  14.155  0.1659 -0.2335 -0.0644
 8274TIP3    H146313   6.118   3.465  14.151  1.2919 -0.1399 -0.4159
 8274TIP3    H246314   6.096   3.347  14.243 -1.8672  0.2359 -0.5706
 8275TIP3   OH246315   0.679   1.602   5.080  0.0523 -0.7727  0.8349
 8275TIP3    H146316   0.769   1.606   5.114  0.1142  1.3486  0.5169
 8275TIP3    H246317   0.628   1.655   5.140 -0.9404 -1.6799  0.8111
 8276TIP3   OH246318   1.358   3.078   2.001  0.0288 -0.1262 -0.3548
 8276TIP3    H146319   1.421   3.035   1.944 -1.6265 -1.8392 -0.9882
 8276TIP3    H246320   1.273   3.039   1.978 -0.8376 -0.3002  2.6734
 8277TIP3   OH246321   2.060   0.948  14.763 -0.4382  0.6231 -0.0241
 8277TIP3    H146322   2.024   0.961  14.675  0.2880  2.0789 -0.1380
 8277TIP3    H246323   1.995   0.988  14.821  0.4087  2.3086 -0.1555
 8278TIP3   OH246324   1.341   2.690   1.153  0.4620  0.7121  0.4621
 8278TIP3    H146325   1.417   2.747   1.137  0.3760  0.2585 -2.0278
 8278TIP3    H246326   1.313   2.663   1.065 -0.7172 -1.5974  1.4630
 8279TIP3   OH246327   1.199   1.979   2.540  0.2046  0.4979 -0.9452
 8279TIP3    H146328   1.291   1.996   2.523  0.0664  0.8919 -1.3027
 8279TIP3    H246329   1.169   2.055   2.590  0.4123 -0.2773  0.3926
 8280TIP3   OH246330   1.982   6.348   5.211  0.0921 -0.0645 -0.9677
 8280TIP3    H146331   2.007   6.423   5.265 -0.0752 -0.2301 -0.6611
 8280TIP3    H246332   1.902   6.314   5.251  0.7258 -1.0419 -0.4923
 8281TIP3   OH246333   2.408   3.069   5.050 -0.8009  0.0059  0.2003
 8281TIP3    H146334   2.433   3.132   4.982 -0.1977 -0.0720  0.3476
 8281TIP3    H246335   2.414   2.984   5.006 -2.3385  0.0805 -0.2183
 8282TIP3   OH246336   4.233   5.501   4.911 -0.3115  0.3044  0.6967
 8282TIP3    H146337   4.195   5.561   4.974 -2.5051 -0.1735 -0.0790
 8282TIP3    H246338   4.159   5.448   4.881  0.8713 -0.3047 -1.3379
 8283TIP3   OH246339   3.233   4.790  13.617 -0.0643 -0.3253  0.2935
 8283TIP3    H146340   3.205   4.728  13.684  0.2152 -0.5850  0.1740
 8283TIP3    H246341   3.292   4.740  13.561 -0.2565 -0.0990 -0.1192
 8284TIP3   OH246342   0.136   2.105   4.701 -0.3322 -0.0343 -0.2576
 8284TIP3    H146343   0.229   2.085   4.707 -0.4559 -0.2864  1.3658
 8284TIP3    H246344   0.124   2.139   4.612  0.8942 -1.9593 -1.2186
 8285TIP3   OH246345   3.344   3.861   3.207  0.4796 -0.0713 -0.8347
 8285TIP3    H146346   3.334   3.953   3.231  0.5472 -0.4348  0.6960
 8285TIP3    H246347   3.262   3.820   3.233  0.4957 -0.4726 -1.3977
 8286TIP3   OH246348   4.123   3.839   0.106  0.1692 -0.3584 -0.5392
 8286TIP3    H146349   4.053   3.893   0.144 -0.2140 -1.9126  1.1150
 8286TIP3    H246350   4.202   3.867   0.151  0.0816 -0.7194 -0.1592
 8287TIP3   OH246351   4.459   6.300   1.941 -0.2935  0.1287  0.8035
 8287TIP3    H146352   4.380   6.352   1.957 -0.4867 -0.2622  1.1114
 8287TIP3    H246353   4.517   6.321   2.014  0.0000  0.6123  0.4461
 8288TIP3   OH246354   4.184   2.227   1.393 -0.5985 -0.1122 -0.2892
 8288TIP3    H146355   4.114   2.265   1.447  2.3835 -0.1892  4.1315
 8288TIP3    H246356   4.161   2.135   1.386 -1.4207  0.0347  0.2623
 8289TIP3   OH246357   2.200   6.011  11.187 -0.2653 -0.1907 -0.0609
 8289TIP3    H146358   2.175   6.023  11.096  0.5909  2.4265 -0.0441
 8289TIP3    H246359   2.205   6.100  11.222  2.4486 -0.9009  1.6835
 8290TIP3   OH246360   5.338   1.202   4.799 -0.4182 -0.0693 -0.2685
 8290TIP3    H146361   5.377   1.269   4.856 -0.6362 -1.1341  1.1898
 8290TIP3    H246362   5.375   1.119   4.831  0.5456 -0.6195 -2.5994
 8291TIP3   OH246363   2.963   0.418   2.553 -0.2684  0.4359  0.5441
 8291TIP3    H146364   2.987   0.367   2.629 -0.2487 -0.4344 -0.0307
 8291TIP3    H246365   3.039   0.414   2.495 -1.2596 -1.3221 -0.7501
 8292TIP3   OH246366   3.181   1.187   5.196  0.1410  0.4069 -0.0743
 8292TIP3    H146367   3.272   1.215   5.203  0.3673 -0.1703 -0.6276
 8292TIP3    H246368   3.136   1.235   5.265  0.8309  0.8350  0.0864
 8293TIP3   OH246369   3.272   5.618   0.829 -0.4126  0.1168 -0.0292
 8293TIP3    H146370   3.191   5.660   0.800 -1.5390 -0.8489  1.6048
 8293TIP3    H246371   3.256   5.525   0.818 -0.2429 -0.1917  2.0141
 8294TIP3   OH246372   6.096   4.874  12.413 -0.2679 -0.8797  0.0275
 8294TIP3    H146373   6.091   4.944  12.478 -1.9315 -1.1911  0.2790
 8294TIP3    H246374   6.150   4.807  12.455  0.9127  0.0002 -0.0101
 8295TIP3   OH246375   0.804   6.640   3.905  0.1428  0.3274 -0.5704
 8295TIP3    H146376   0.709   6.629   3.901  0.0293  1.6206 -2.0189
 8295TIP3    H246377   0.838   6.550   3.902 -0.9822 -0.0804 -2.5712
 8296TIP3   OH246378   2.958   2.803   4.776 -0.0690  0.0834 -0.0740
 8296TIP3    H146379   2.911   2.766   4.701  0.8499 -0.0505 -0.5959
 8296TIP3    H246380   2.889   2.829   4.837 -0.7754 -3.9441  1.0954
 8297TIP3   OH246381   0.051   0.918  16.897 -0.8664 -0.2335  0.0606
 8297TIP3    H146382   0.103   0.942  16.974 -0.0036 -0.4117 -0.4614
 8297TIP3    H246383   0.028   0.826  16.911 -0.1959 -0.4422 -0.1743
 8298TIP3   OH246384   1.782   0.931   5.830 -0.2582 -0.7565  0.0445
 8298TIP3    H146385   1.854   0.926   5.893 -0.7128 -0.2924  0.6109
 8298TIP3    H246386   1.703   0.931   5.884 -0.6267  0.6782 -0.4500
 8299TIP3   OH246387   5.773   3.787   4.404 -0.0003 -0.1020  0.0306
 8299TIP3    H146388   5.769   3.750   4.316  0.4779  1.1668 -0.5534
 8299TIP3    H246389   5.759   3.881   4.391  1.6762  0.3449  1.1210
 8300TIP3   OH246390   6.669   0.140   5.199 -0.1921 -0.3011  0.0590
 8300TIP3    H146391   6.583   0.102   5.182 -0.0386 -0.2482 -0.8611
 8300TIP3    H246392   6.731   0.076   5.166  0.0634  0.8420 -1.7968
 8301TIP3   OH246393   3.302   1.777  14.475  0.0139  0.5153 -0.0580
 8301TIP3    H146394   3.373   1.722  14.508  0.0416 -0.4800 -1.6958
 8301TIP3    H246395   3.224   1.724  14.485 -0.1427  0.6587 -0.4936
 8302TIP3   OH246396   6.676   4.325  11.880  0.3668  0.1553  0.2685
 8302TIP3    H146397   6.637   4.262  11.940  1.0941 -0.3677  0.1985
 8302TIP3    H246398   6.687   4.404  11.933 -0.9038  0.3608  0.2518
 8303TIP3   OH246399   5.965   5.109  12.966  0.5753  0.2976  0.2537
 8303TIP3    H146400   5.952   5.017  12.988 -0.3298  0.1858 -0.6932
 8303TIP3    H246401   5.920   5.121  12.882 -1.6056  2.2084  1.5733
 8304TIP3   OH246402   6.230   2.577  14.374  0.6373  0.3556  0.3832
 8304TIP3    H146403   6.278   2.660  14.388  1.3444  0.1927 -0.9340
 8304TIP3    H246404   6.155   2.602  14.321 -0.3868  0.4861  1.8365
 8305TIP3   OH246405   3.059   5.227   3.511 -0.1705  0.4902 -0.1066
 8305TIP3    H146406   3.154   5.233   3.507  0.0710 -1.9586  0.6234
 8305TIP3    H246407   3.035   5.276   3.590  0.7120 -0.5660  0.8441
 8306TIP3   OH246408   2.027   3.242  12.933  0.1647 -0.8352 -0.8977
 8306TIP3    H146409   1.963   3.243  12.862 -2.4070 -1.7430  1.2415
 8306TIP3    H246410   2.078   3.163  12.919 -1.7844 -2.2164 -0.6263
 8307TIP3   OH246411   2.338   4.061   2.868 -0.1280  0.6675 -0.2027
 8307TIP3    H146412   2.331   3.977   2.823 -0.3534  0.6850 -0.2023
 8307TIP3    H246413   2.336   4.039   2.961  0.6392  0.6062 -0.1955
 8308TIP3   OH246414   6.089   2.488  11.610  0.2797 -0.2838  0.3373
 8308TIP3    H146415   6.008   2.539  11.610  0.5839  0.2525  1.4956
 8308TIP3    H246416   6.158   2.553  11.599  0.6438 -0.4657  1.3642
 8309TIP3   OH246417   1.979   4.640  16.861 -0.0596 -0.0565 -0.3607
 8309TIP3    H146418   2.000   4.683  16.778 -1.0186 -1.8256 -1.5786
 8309TIP3    H246419   2.043   4.676  16.923  2.5756 -0.7662 -2.4835
 8310TIP3   OH246420   2.845   0.001  12.129  0.3710 -0.0607 -0.0951
 8310TIP3    H146421   2.767  -0.006  12.185 -0.4417  1.6961 -0.8936
 8310TIP3    H246422   2.870  -0.089  12.110 -0.0032 -0.6935  2.1351
 8311TIP3   OH246423   4.875   5.856   5.224 -0.0303  0.3755  0.1576
 8311TIP3    H146424   4.925   5.903   5.291  0.8254  2.4163 -1.7695
 8311TIP3    H246425   4.921   5.772   5.214 -0.2293  0.0014  2.1206
 8312TIP3   OH246426   0.233   1.846  12.282 -0.2354  0.2637 -0.3652
 8312TIP3    H146427   0.180   1.796  12.343  0.7232 -0.7611 -0.3525
 8312TIP3    H246428   0.170   1.903  12.237 -1.3708 -1.0220 -0.4612
 8313TIP3   OH246429   0.575   2.090  10.407  0.0586 -0.5491 -0.1809
 8313TIP3    H146430   0.650   2.057  10.358 -0.3193  0.1011 -1.2239
 8313TIP3    H246431   0.606   2.173  10.445 -0.2362 -0.0906 -0.9254
 8314TIP3   OH246432   5.528   2.722   1.951  0.0251 -0.2572  0.4570
 8314TIP3    H146433   5.530   2.817   1.949  1.2931 -0.2667 -1.2670
 8314TIP3    H246434   5.534   2.696   1.859 -0.6248 -2.0049  0.8700
 8315TIP3   OH246435   1.604   4.375   4.109 -0.3486  0.1346 -0.3276
 8315TIP3    H146436   1.611   4.470   4.121  0.3926  0.0822 -0.2843
 8315TIP3    H246437   1.549   4.365   4.031  1.5714  0.6783 -1.8290
 8316TIP3   OH246438   4.257   2.843   2.674  0.6409  0.1025  0.2393
 8316TIP3    H146439   4.164   2.854   2.691  0.6255 -1.1060  1.0663
 8316TIP3    H246440   4.290   2.932   2.662 -0.8055  0.4754 -1.2383
 8317TIP3   OH246441   1.434   1.372  13.237 -0.2230 -0.0855  0.1344
 8317TIP3    H146442   1.509   1.407  13.191  0.3723 -0.4857  0.7771
 8317TIP3    H246443   1.398   1.305  13.178  0.9602 -1.1045  0.5219
 8318TIP3   OH246444   2.784   0.674  11.447 -0.1337  0.8250 -0.0316
 8318TIP3    H146445   2.700   0.640  11.477  0.2450  0.1514  0.2724
 8318TIP3    H246446   2.827   0.600  11.406 -0.6992  1.7471 -2.4595
 8319TIP3   OH246447   6.074   4.558   2.662 -0.4321  0.3537  0.7093
 8319TIP3    H146448   6.010   4.618   2.701  0.9942  2.8208 -0.5209
 8319TIP3    H246449   6.158   4.591   2.693  0.4078 -1.0113 -0.0673
 8320TIP3   OH246450   1.495   0.125   4.998  0.0966  0.0910 -0.1194
 8320TIP3    H146451   1.540   0.067   4.936  1.1396  3.0650 -2.3649
 8320TIP3    H246452   1.431   0.172   4.944 -4.3358 -2.2174  2.4932
 8321TIP3   OH246453   1.131   3.329   5.987 -0.7177 -0.0183 -0.3685
 8321TIP3    H146454   1.050   3.363   6.026  1.4372  2.0801  2.7162
 8321TIP3    H246455   1.125   3.234   5.999 -1.7248  0.2749  2.0639
 8322TIP3   OH246456   3.802   5.354   3.528 -0.8068  0.5079 -0.2578
 8322TIP3    H146457   3.866   5.286   3.550 -0.4423  1.1546  0.7480
 8322TIP3    H246458   3.717   5.310   3.532 -0.5939  0.1645  0.6308
 8323TIP3   OH246459   3.406   4.789   2.830  0.8308  0.8714 -0.6632
 8323TIP3    H146460   3.461   4.727   2.781  0.3918  0.0126 -0.1006
 8323TIP3    H246461   3.407   4.756   2.920 -3.1365 -1.1260 -1.1261
 8324TIP3   OH246462   5.134   6.505   5.062 -0.4610  0.0401 -0.0641
 8324TIP3    H146463   5.058   6.535   5.111  1.2750  2.0135  1.6214
 8324TIP3    H246464   5.209   6.538   5.111  1.5592 -2.4078 -1.2373
 8325TIP3   OH246465   6.641   4.484   6.049 -0.0759 -0.3171  0.5113
 8325TIP3    H146466   6.686   4.544   5.990 -0.4776 -0.6510 -0.1406
 8325TIP3    H246467   6.630   4.534   6.130  0.8382  0.0042  0.4459
 8326TIP3   OH246468   4.739   3.727  12.583  0.4210  0.0637 -0.2350
 8326TIP3    H146469   4.732   3.809  12.633 -0.2845  0.0989 -0.3851
 8326TIP3    H246470   4.660   3.678  12.606  0.5910 -0.3570 -0.5401
 8327TIP3   OH246471   4.770   1.597   3.865  0.1448 -0.3204 -0.0513
 8327TIP3    H146472   4.708   1.536   3.826 -1.7032  1.3954  0.0271
 8327TIP3    H246473   4.770   1.575   3.958  0.1172 -0.6998 -0.1390
 8328TIP3   OH246474   3.890   5.768  15.872  0.2599 -0.2336 -0.2220
 8328TIP3    H146475   3.798   5.757  15.849 -0.0622 -0.7823  1.2118
 8328TIP3    H246476   3.892   5.850  15.922  0.2641 -0.9752  1.0384
 8329TIP3   OH246477   1.126   2.390  13.685  0.5034  0.3300 -0.4388
 8329TIP3    H146478   1.207   2.410  13.637  0.9661 -1.3099 -0.3973
 8329TIP3    H246479   1.152   2.392  13.777  0.9648 -1.9000 -0.4712
 8330TIP3   OH246480   0.768   1.283   1.486  0.6404  0.4540  0.0570
 8330TIP3    H146481   0.698   1.336   1.524  0.3267  0.4533 -0.5070
 8330TIP3    H246482   0.763   1.199   1.533 -2.5603 -1.1848 -2.7604
 8331TIP3   OH246483   1.011   3.518  12.943  0.2881 -0.1630  0.5586
 8331TIP3    H146484   0.945   3.459  12.907  0.0921 -0.3479  1.2103
 8331TIP3    H246485   0.973   3.605  12.933 -0.1241 -0.2794  1.0647
 8332TIP3   OH246486   1.913   5.202   6.736  0.2437  0.5804  0.1251
 8332TIP3    H146487   1.882   5.111   6.741  1.3265  0.2067  0.4101
 8332TIP3    H246488   2.004   5.194   6.705  0.2979  1.5811  0.0120
 8333TIP3   OH246489   5.243   4.211  11.705 -0.2945 -0.0661 -0.4879
 8333TIP3    H146490   5.182   4.181  11.637 -1.3620 -0.4228  0.5966
 8333TIP3    H246491   5.303   4.137  11.717 -1.1735 -0.6957  0.1628
 8334TIP3   OH246492   0.803   4.423  17.046  0.0459  0.0441  0.6027
 8334TIP3    H146493   0.890   4.397  17.076  0.6479  1.8770  0.5521
 8334TIP3    H246494   0.801   4.518  17.058 -1.7085  0.1150 -0.0307
 8335TIP3   OH246495   0.204   5.008   4.515 -0.2943  0.2582  0.2079
 8335TIP3    H146496   0.230   4.932   4.566 -2.3400  0.0086  0.9785
 8335TIP3    H246497   0.181   4.972   4.429  0.1028  0.2254  0.1128
 8336TIP3   OH246498   5.387   0.902  12.609 -0.8199  0.8947 -0.3034
 8336TIP3    H146499   5.428   0.816  12.620  0.3031  1.6961  2.9807
 8336TIP3    H246500   5.443   0.948  12.545 -0.4851 -0.2282 -0.8330
 8337TIP3   OH246501   0.482   1.702   5.269 -0.6819  0.1412 -0.5300
 8337TIP3    H146502   0.440   1.783   5.242  0.9131  0.9696 -0.6683
 8337TIP3    H246503   0.512   1.719   5.358 -1.2211 -0.6780 -0.1764
 8338TIP3   OH246504   0.865   1.896  12.319  0.1625  0.4030 -0.1737
 8338TIP3    H146505   0.789   1.944  12.352 -0.3145  0.3183 -1.1229
 8338TIP3    H246506   0.937   1.923  12.376 -0.5943  0.3898  0.8242
 8339TIP3   OH246507   1.542   4.152  14.838 -0.6213  0.3872  0.0462
 8339TIP3    H146508   1.583   4.208  14.772  0.2259  1.4997  1.4521
 8339TIP3    H246509   1.538   4.207  14.917 -1.6553 -0.8658  0.9076
 8340TIP3   OH246510   5.472   2.395  13.928  0.0083  0.8293  0.1563
 8340TIP3    H146511   5.556   2.349  13.920 -0.8247 -0.6250 -0.6422
 8340TIP3    H246512   5.472   2.457  13.855 -0.3780 -0.5042 -1.0261
 8341TIP3   OH246513   4.037   6.473  11.227  0.3856  0.2659 -0.4560
 8341TIP3    H146514   3.990   6.464  11.144 -0.5171  0.7439 -0.0117
 8341TIP3    H246515   4.051   6.383  11.256  0.4034  0.1040 -0.9629
 8342TIP3   OH246516   6.307   0.803  17.076 -0.1299  0.2933  0.1987
 8342TIP3    H146517   6.390   0.757  17.088 -0.5061 -0.3214  0.4703
 8342TIP3    H246518   6.320   0.855  16.996  2.0069  3.4994  2.3837
 8343TIP3   OH246519   2.757   5.751   2.720  0.2050  0.5194  0.0652
 8343TIP3    H146520   2.678   5.798   2.694 -0.2145  0.1368  0.6235
 8343TIP3    H246521   2.740   5.721   2.810  0.9109  0.2801  0.1343
 8344TIP3   OH246522   2.532   0.238  15.569  0.0516 -0.2063 -0.0913
 8344TIP3    H146523   2.610   0.225  15.623  0.8314 -0.5191 -1.2287
 8344TIP3    H246524   2.498   0.323  15.594 -0.3662 -0.8862  1.7727
 8345TIP3   OH246525   3.357   1.791  13.027  0.0272  0.4621 -0.3520
 8345TIP3    H146526   3.337   1.875  12.985  0.6455  1.3549  1.0925
 8345TIP3    H246527   3.396   1.738  12.957  2.1781  2.3246 -0.6562
 8346TIP3   OH246528   4.847   1.260  15.477  0.1001  0.2887 -0.1840
 8346TIP3    H146529   4.757   1.251  15.446  0.4669 -0.3876 -1.0975
 8346TIP3    H246530   4.878   1.341  15.437  0.4267 -0.3515 -1.2939
 8347TIP3   OH246531   4.586   3.582  13.150  0.1399 -0.1633 -0.3558
 8347TIP3    H146532   4.572   3.562  13.243 -0.1290  2.4312  0.2539
 8347TIP3    H246533   4.501   3.568  13.109 -0.5605  1.5330  0.4317
 8348TIP3   OH246534   2.073   3.481  10.413  0.0675  0.4295 -0.4050
 8348TIP3    H146535   2.085   3.567  10.373  0.4941  0.0847 -1.0303
 8348TIP3    H246536   1.987   3.486  10.455 -0.6708  0.6146 -1.8698
 8349TIP3   OH246537   5.388   5.014   4.851  0.0164  0.0375 -0.6008
 8349TIP3    H146538   5.300   4.998   4.816  0.2785  0.2937 -1.3843
 8349TIP3    H246539   5.406   5.105   4.830  0.1570  0.2191  0.2708
 8350TIP3   OH246540   2.002   2.378   5.594 -0.0126  0.3266  0.2442
 8350TIP3    H146541   2.063   2.311   5.565 -0.7758 -0.1965 -0.1840
 8350TIP3    H246542   1.920   2.358   5.549 -0.2769  1.5069  0.1564
 8351TIP3   OH246543   2.669   5.014   4.494  0.2877  0.1609  0.2144
 8351TIP3    H146544   2.608   5.063   4.549 -1.0347 -0.3290 -0.7553
 8351TIP3    H246545   2.637   5.027   4.405  1.5515 -0.2093 -0.3254
 8352TIP3   OH246546   1.546   5.374   0.217  0.2955  0.3434 -0.1889
 8352TIP3    H146547   1.470   5.413   0.173  0.7576 -0.4915 -1.8020
 8352TIP3    H246548   1.513   5.348   0.303 -0.8138  1.4358 -0.2513
 8353TIP3   OH246549   1.491   4.349  15.033 -0.3135 -0.2039  0.5135
 8353TIP3    H146550   1.477   4.441  15.055 -2.9326 -0.3345 -0.3056
 8353TIP3    H246551   1.513   4.308  15.117 -0.6094  0.9171  1.1616
 8354TIP3   OH246552   4.373   6.453  15.763  0.0490 -0.3569  0.1465
 8354TIP3    H146553   4.354   6.544  15.786  0.0370  0.2776 -2.1178
 8354TIP3    H246554   4.312   6.434  15.692 -1.3674 -2.8458  1.8881
 8355TIP3   OH246555   6.352   1.450  11.145 -0.1176 -0.3572 -0.6899
 8355TIP3    H146556   6.393   1.382  11.091  0.6105  0.3269 -1.0230
 8355TIP3    H246557   6.269   1.412  11.173 -0.0147 -1.1359 -1.4080
 8356TIP3   OH246558   3.240   1.937   1.648  0.3467  0.2228 -0.6213
 8356TIP3    H146559   3.193   1.886   1.583 -1.4364  0.1062  0.6980
 8356TIP3    H246560   3.294   1.873   1.695 -1.7672 -0.5075  0.9299
 8357TIP3   OH246561   5.349   2.427   2.895 -1.2785 -0.1074 -0.2077
 8357TIP3    H146562   5.391   2.511   2.875 -0.8483 -0.5390 -1.1567
 8357TIP3    H246563   5.255   2.444   2.882 -1.3730  0.6524  1.2056
 8358TIP3   OH246564   1.949   4.288   0.178 -0.1246 -0.1361 -0.0823
 8358TIP3    H146565   1.879   4.256   0.235  0.9510  0.7643  1.8611
 8358TIP3    H246566   1.912   4.365   0.135 -1.3615 -1.5287 -1.6396
 8359TIP3   OH246567   0.529   2.855  11.203  0.0945  0.1587 -0.2658
 8359TIP3    H146568   0.546   2.768  11.165  1.0288  0.5007 -0.6629
 8359TIP3    H246569   0.453   2.888  11.155  0.0138 -0.2525 -0.4246
 8360TIP3   OH246570   5.393   1.520  12.941  0.2117 -0.2389  0.2992
 8360TIP3    H146571   5.376   1.429  12.964  0.6014  0.0312  1.8214
 8360TIP3    H246572   5.379   1.568  13.023 -1.0416  1.2235 -0.7228
 8361TIP3   OH246573   4.748   2.970  13.084 -0.3930  0.6021 -0.1066
 8361TIP3    H146574   4.826   2.943  13.036 -1.1316 -0.5369 -0.6952
 8361TIP3    H246575   4.741   2.907  13.156 -1.2875  0.1003 -0.6123
 8362TIP3   OH246576   0.308   4.127  13.963 -0.2092  0.4843  0.3400
 8362TIP3    H146577   0.238   4.177  13.921 -0.2278 -0.2455 -0.5384
 8362TIP3    H246578   0.273   4.105  14.049 -0.6944  0.9223  0.2595
 8363TIP3   OH246579   5.589   0.031   0.258 -0.2898  0.3897  0.2673
 8363TIP3    H146580   5.525   0.067   0.319 -1.2496  0.3360 -0.6737
 8363TIP3    H246581   5.628   0.109   0.217  1.5678  0.4839  2.1063
 8364TIP3   OH246582   4.581   1.186   2.960  0.2993 -0.7638 -0.3456
 8364TIP3    H146583   4.488   1.168   2.956  0.1889 -0.3009  0.0416
 8364TIP3    H246584   4.606   1.204   2.869  0.2856 -2.1605 -0.6342
 8365TIP3   OH246585   3.719   3.678   0.731 -0.6444 -0.1384 -0.0832
 8365TIP3    H146586   3.757   3.751   0.779  0.3649  0.0069 -1.0692
 8365TIP3    H246587   3.712   3.710   0.641 -0.5095 -1.1322 -0.4583
 8366TIP3   OH246588   4.683   5.874   4.089 -0.1690  0.1433  0.1379
 8366TIP3    H146589   4.761   5.841   4.044  1.1244  1.1773  1.5157
 8366TIP3    H246590   4.652   5.946   4.033  0.5607  0.4782  0.1544
 8367TIP3   OH246591   5.909   0.999   2.328 -0.0385  0.5613 -0.4039
 8367TIP3    H146592   5.859   0.929   2.286  0.3512  0.7043 -1.1427
 8367TIP3    H246593   5.995   0.961   2.344 -0.4798  0.1839  1.2435
 8368TIP3   OH246594   1.408   6.251   0.558  0.2581  0.1952 -0.2393
 8368TIP3    H146595   1.445   6.207   0.482 -1.9955 -0.1504 -1.2286
 8368TIP3    H246596   1.327   6.290   0.526  0.0715  1.4678  1.6202
 8369TIP3   OH246597   4.168   0.032  17.078 -0.5831 -0.0661 -0.3640
 8369TIP3    H146598   4.136   0.070  16.996 -3.2412  1.1055  1.0797
 8369TIP3    H246599   4.088   0.004  17.123  0.8622 -1.2828  1.5467
 8370TIP3   OH246600   3.213   6.153  16.494  0.5686  0.5598 -0.0495
 8370TIP3    H146601   3.175   6.222  16.440  1.7066 -0.1535 -1.8421
 8370TIP3    H246602   3.288   6.195  16.537  0.1300  0.9181  0.3858
 8371TIP3   OH246603   1.267   2.644   0.910  0.2925 -0.2505  0.2544
 8371TIP3    H146604   1.181   2.685   0.903  0.6716  0.6071  0.5095
 8371TIP3    H246605   1.313   2.671   0.831  0.9679  0.8517  1.0008
 8372TIP3   OH246606   3.798   0.906  12.601  0.3602  0.2569 -0.0835
 8372TIP3    H146607   3.766   0.875  12.516 -1.0539 -0.4256  0.6710
 8372TIP3    H246608   3.889   0.932  12.584 -0.6041  2.6219 -2.4039
 8373TIP3   OH246609   0.033   5.667  16.781 -0.0693 -0.0796  0.9336
 8373TIP3    H146610  -0.005   5.730  16.842  0.6106  1.7643 -0.4387
 8373TIP3    H246611  -0.039   5.645  16.721  0.2525  1.2345  0.0253
 8374TIP3   OH246612   1.839   5.036   5.530 -0.4580  0.3558  0.2719
 8374TIP3    H146613   1.785   5.107   5.496 -1.5641 -0.1827  0.8532
 8374TIP3    H246614   1.787   4.998   5.601  0.7672 -0.0668  0.9757
 8375TIP3   OH246615   3.199   6.078   5.366 -0.5485  0.1815 -0.4067
 8375TIP3    H146616   3.254   6.155   5.349 -1.3665  0.6529 -0.9607
 8375TIP3    H246617   3.214   6.021   5.290  0.0322 -0.1964 -0.0123
 8376TIP3   OH246618   5.704   1.039  15.157 -0.4111  0.5531  0.4039
 8376TIP3    H146619   5.735   1.114  15.105 -2.1168  0.5822 -0.6602
 8376TIP3    H246620   5.626   1.072  15.202 -1.4201 -0.6748 -0.3930
 8377TIP3   OH246621   2.128   2.580   3.830 -0.4016  0.1560 -0.2685
 8377TIP3    H146622   2.164   2.610   3.913 -0.4347  0.4102 -0.3481
 8377TIP3    H246623   2.203   2.577   3.771 -0.5337  0.7996 -0.4669
 8378TIP3   OH246624   3.844   5.281   0.599 -0.3562  0.8033  0.6872
 8378TIP3    H146625   3.790   5.340   0.652 -1.9121  0.0445 -0.0039
 8378TIP3    H246626   3.866   5.209   0.657 -1.8729  0.0819  0.3928
 8379TIP3   OH246627   6.742   6.763  13.421  0.2603  0.3566  0.1318
 8379TIP3    H146628   6.762   6.701  13.492 -1.3384 -1.1040 -0.6321
 8379TIP3    H246629   6.725   6.846  13.467  3.3914  0.6171  1.1124
 8380TIP3   OH246630   4.516   5.071  12.574 -0.4057  0.3958 -0.0715
 8380TIP3    H146631   4.586   5.038  12.630  0.5562  2.2779 -0.0877
 8380TIP3    H246632   4.435   5.055  12.623  0.3737  1.6111  1.7149
 8381TIP3   OH246633   5.072   2.873  16.110  0.0640  0.9363 -0.3954
 8381TIP3    H146634   5.073   2.945  16.172 -0.1305  1.0317 -0.5005
 8381TIP3    H246635   4.985   2.877  16.070  0.7030  1.8023 -1.7604
 8382TIP3   OH246636   1.644   1.828   4.162 -0.5063  0.1048  0.4163
 8382TIP3    H146637   1.566   1.790   4.121 -1.8904  1.5147  1.6064
 8382TIP3    H246638   1.657   1.775   4.241 -0.6003  0.2317  0.5161
 8383TIP3   OH246639   2.930   6.052  15.861 -0.7593 -0.1174  0.0758
 8383TIP3    H146640   3.009   6.008  15.830 -0.4127 -0.3456  1.2336
 8383TIP3    H246641   2.859   6.013  15.809 -0.0937  0.3390 -1.2154
 8384TIP3   OH246642   2.365   5.416   0.657 -0.3174  0.2699  0.0239
 8384TIP3    H146643   2.440   5.372   0.698 -1.1885 -0.5526  0.8130
 8384TIP3    H246644   2.379   5.404   0.563  0.2218 -0.4398  0.1802
 8385TIP3   OH246645   6.324   2.576   1.775  0.5570 -0.0313  0.0971
 8385TIP3    H146646   6.239   2.617   1.756  0.3447  0.1902  1.3930
 8385TIP3    H246647   6.382   2.607   1.706 -0.0845  0.9277 -0.0267
 8386TIP3   OH246648   1.526   2.777  13.829 -0.3602  0.0668 -0.2343
 8386TIP3    H146649   1.502   2.797  13.739 -0.2465 -0.3125 -0.3531
 8386TIP3    H246650   1.516   2.682  13.836  1.7012 -0.2164 -0.4797
 8387TIP3   OH246651   3.034   3.230   5.915 -0.2304 -0.0210  0.3466
 8387TIP3    H146652   3.104   3.275   5.869  1.0386 -0.1681  2.0344
 8387TIP3    H246653   2.968   3.298   5.932 -0.1564  0.2899 -0.5746
 8388TIP3   OH246654   4.860   1.859   0.002 -0.3155  0.3968  0.1176
 8388TIP3    H146655   4.838   1.888  -0.087 -1.2468  0.4896  0.3673
 8388TIP3    H246656   4.927   1.791  -0.011  1.2242  1.9670 -0.5249
 8389TIP3   OH246657   2.552   5.187   1.558  0.4339  0.1375  0.1280
 8389TIP3    H146658   2.568   5.119   1.491  0.8623 -1.0925  1.4274
 8389TIP3    H246659   2.460   5.208   1.548 -0.1549 -1.8737  0.7437
 8390TIP3   OH246660   6.639   5.332   5.976 -0.0347  0.1316 -0.5262
 8390TIP3    H146661   6.722   5.340   6.023  0.7491  0.2473 -1.8702
 8390TIP3    H246662   6.647   5.250   5.927 -0.1312  0.7961 -1.7013
 8391TIP3   OH246663   5.262   4.436   3.413 -0.1275 -0.1757 -0.1771
 8391TIP3    H146664   5.316   4.511   3.386  0.4092  0.2451  1.9198
 8391TIP3    H246665   5.227   4.402   3.331  1.3317  1.0627 -1.3892
 8392TIP3   OH246666   1.380   4.581  11.104 -0.5868 -0.5852 -0.2456
 8392TIP3    H146667   1.285   4.583  11.092 -0.6270  0.4374  0.1581
 8392TIP3    H246668   1.415   4.585  11.015 -0.9109 -1.8833 -0.4512
 8393TIP3   OH246669   0.867   3.487  15.366 -0.7641  0.3085 -0.4810
 8393TIP3    H146670   0.920   3.530  15.299 -1.4706  0.0356 -1.2359
 8393TIP3    H246671   0.905   3.400  15.375  0.1617  0.7900  0.4594
 8394TIP3   OH246672   3.206   4.694  10.938 -0.0717 -0.0607  0.1228
 8394TIP3    H146673   3.155   4.655  10.867  0.7537  0.3173 -0.7076
 8394TIP3    H246674   3.291   4.650  10.933  0.2515  0.5285  0.3746
 8395TIP3   OH246675   2.925   0.332  14.308 -0.7738 -0.6725 -0.5126
 8395TIP3    H146676   2.880   0.372  14.383 -0.3190 -1.4403  0.1987
 8395TIP3    H246677   2.948   0.405  14.252  0.7346  0.1918  1.1224
 8396TIP3   OH246678   1.327   2.524  11.819  0.1188  0.7303  0.0179
 8396TIP3    H146679   1.302   2.465  11.747  1.2311 -0.7370  0.7965
 8396TIP3    H246680   1.267   2.598  11.810 -2.7344 -1.3928  0.2043
 8397TIP3   OH246681   1.074   0.122   1.791  0.0972 -0.0977  0.1631
 8397TIP3    H146682   1.046   0.044   1.840  0.2909  0.0267  0.4743
 8397TIP3    H246683   1.088   0.189   1.858  0.1215  0.1478 -0.0868
 8398TIP3   OH246684   3.674   3.073  12.701 -0.2684 -0.6180 -0.6569
 8398TIP3    H146685   3.614   2.999  12.701 -2.6267  1.1943 -0.8813
 8398TIP3    H246686   3.618   3.150  12.698  2.0769  1.2181 -0.4152
 8399TIP3   OH246687   2.979   5.806  15.030 -0.6060 -0.1808  0.6038
 8399TIP3    H146688   3.011   5.891  15.059  1.1211 -0.0370 -1.4290
 8399TIP3    H246689   2.970   5.754  15.110  3.0940  0.3758  1.5560
 8400TIP3   OH246690   3.377   0.843  16.460  0.0541 -0.4138  0.3678
 8400TIP3    H146691   3.347   0.809  16.376 -1.6067 -1.0960  1.1826
 8400TIP3    H246692   3.471   0.825  16.461 -0.2553 -2.3654 -0.4798
 8401TIP3   OH246693   3.353   1.035  12.312  0.1432 -0.1713 -1.1430
 8401TIP3    H146694   3.313   1.122  12.302  0.4954 -0.0789 -1.8357
 8401TIP3    H246695   3.370   1.027  12.406 -1.2341 -0.1020 -0.8617
 8402TIP3   OH246696   3.853   0.481  11.246 -0.0530 -0.3227  0.7206
 8402TIP3    H146697   3.948   0.488  11.239 -0.1096 -1.3652 -2.2103
 8402TIP3    H246698   3.819   0.528  11.170 -1.7911 -1.4688  0.7341
 8403TIP3   OH246699   1.878   1.882   0.420 -0.0411  0.0141  0.7796
 8403TIP3    H146700   1.912   1.794   0.408 -0.7017 -0.2051  0.4916
 8403TIP3    H246701   1.881   1.896   0.515  0.3313 -0.2054  0.8012
 8404TIP3   OH246702   3.990   0.002  14.625  0.3304 -0.0953  0.7071
 8404TIP3    H146703   4.015  -0.090  14.633 -1.5923 -0.8685 -1.0549
 8404TIP3    H246704   4.042   0.036  14.552 -0.8266 -0.5959 -0.3936
 8405TIP3   OH246705   3.548   6.729  15.249  0.7590 -0.0434  0.6917
 8405TIP3    H146706   3.596   6.667  15.193 -0.5558  0.8608 -1.5808
 8405TIP3    H246707   3.507   6.675  15.316  1.4178 -1.3425  0.0809
 8406TIP3   OH246708   1.972   1.495   1.619 -0.3030  0.6376 -0.3747
 8406TIP3    H146709   1.996   1.587   1.602  0.8650  0.4154 -0.0200
 8406TIP3    H246710   2.049   1.458   1.662 -0.8175 -0.4815 -0.3871
 8407TIP3   OH246711   6.610   3.125   1.318 -0.2071  0.5995 -0.1966
 8407TIP3    H146712   6.691   3.097   1.360  0.9426  1.3232 -1.8549
 8407TIP3    H246713   6.588   3.208   1.359  0.7794  1.1884 -0.8454
 8408TIP3   OH246714   0.369   2.783   1.197  0.3828  0.0051 -0.3974
 8408TIP3    H146715   0.380   2.837   1.119 -0.6698 -1.9267 -2.0084
 8408TIP3    H246716   0.420   2.703   1.178  0.0642 -0.5216  0.8675
 8409TIP3   OH246717   4.210   1.199  17.026  0.7214  0.4610 -0.2942
 8409TIP3    H146718   4.168   1.114  17.013 -0.3220  0.8184  0.5569
 8409TIP3    H246719   4.248   1.220  16.941 -0.6331 -0.0074 -1.0556
 8410TIP3   OH246720   0.584   5.801   3.840 -0.0666  0.6712 -0.1591
 8410TIP3    H146721   0.541   5.755   3.768 -1.7154 -0.1536  1.2992
 8410TIP3    H246722   0.575   5.894   3.818 -2.0335  0.4943 -0.2329
 8411TIP3   OH246723   5.740   3.019   4.022  0.3855  0.0717  0.7728
 8411TIP3    H146724   5.762   2.955   3.954  0.2808  0.6306  0.1911
 8411TIP3    H246725   5.730   3.102   3.974  0.9174  0.6079  1.5587
 8412TIP3   OH246726   4.734   1.357  13.716 -0.0399  0.4531 -0.6547
 8412TIP3    H146727   4.703   1.421  13.653 -1.0308 -1.6315 -2.4212
 8412TIP3    H246728   4.825   1.339  13.690  0.4791  1.5821  0.2815
 8413TIP3   OH246729   4.921   4.928   0.524  0.0010 -0.5061  0.2648
 8413TIP3    H146730   4.837   4.938   0.570  1.0690 -0.9182  2.4655
 8413TIP3    H246731   4.946   5.017   0.502 -0.3762 -0.2381  0.8595
 8414TIP3   OH246732   2.337   1.176   5.257  0.1791 -0.5702 -0.3606
 8414TIP3    H146733   2.276   1.114   5.298  0.1505  0.3982  1.1848
 8414TIP3    H246734   2.370   1.229   5.331  2.7848 -0.9440 -1.1492
 8415TIP3   OH246735   3.255   4.552   0.203  0.0697  0.5240  0.3447
 8415TIP3    H146736   3.292   4.534   0.290 -1.4334  0.9645  1.1209
 8415TIP3    H246737   3.199   4.628   0.217  1.6279  2.1144 -1.5499
 8416TIP3   OH246738   4.859   2.139  15.269  0.4107 -0.4485 -0.1725
 8416TIP3    H146739   4.881   2.172  15.182 -0.3244 -0.3602 -0.3303
 8416TIP3    H246740   4.939   2.095  15.299  0.9997  0.3812 -0.4793
 8417TIP3   OH246741   2.529   2.136  14.684 -0.4081  0.1539 -0.1440
 8417TIP3    H146742   2.623   2.156  14.676 -0.2954 -0.0258  0.6633
 8417TIP3    H246743   2.486   2.204  14.632  0.2178 -0.4514 -1.5067
 8418TIP3   OH246744   4.846   2.857  14.675 -0.3703  0.3611  0.3793
 8418TIP3    H146745   4.751   2.873  14.677 -0.3218  0.9273 -0.8226
 8418TIP3    H246746   4.863   2.827  14.585  0.9202  2.6188 -0.1981
 8419TIP3   OH246747   5.240   0.821   5.759  0.2421  0.5662 -0.0502
 8419TIP3    H146748   5.160   0.785   5.799 -0.1322 -1.9122 -2.7282
 8419TIP3    H246749   5.309   0.802   5.823 -1.0624  1.5743  1.7370
 8420TIP3   OH246750   2.780   4.264   5.071  0.2073 -0.0443 -0.2390
 8420TIP3    H146751   2.721   4.326   5.115 -0.7081 -1.2381  0.2532
 8420TIP3    H246752   2.856   4.258   5.129  0.4777  0.8770 -0.4752
 8421TIP3   OH246753   6.243   5.991  14.751  0.3613  0.4502  0.0061
 8421TIP3    H146754   6.154   5.975  14.720 -0.0575 -1.1908  1.8328
 8421TIP3    H246755   6.253   6.086  14.748 -0.7028  0.5633 -2.0811
 8422TIP3   OH246756   4.688   2.957  11.249 -0.0636  0.0384 -0.4222
 8422TIP3    H146757   4.770   2.937  11.204  0.9860  0.9076  1.0432
 8422TIP3    H246758   4.680   2.888  11.316 -0.4178  0.0988 -0.3995
 8423TIP3   OH246759   0.913   0.957   5.208 -0.0672 -0.2730 -0.3518
 8423TIP3    H146760   0.941   0.878   5.161 -2.6094 -0.2196 -2.2311
 8423TIP3    H246761   0.855   0.924   5.277  1.0422 -0.1546  0.6646
 8424TIP3   OH246762   4.245   3.978  15.505 -0.7603  0.0193  0.2898
 8424TIP3    H146763   4.209   3.898  15.466 -1.5458  0.1620  0.7220
 8424TIP3    H246764   4.251   3.959  15.598  0.8524 -0.2150  0.1682
 8425TIP3   OH246765   1.204   4.877  14.559 -0.1348 -0.0141  0.2176
 8425TIP3    H146766   1.277   4.861  14.620 -0.4892 -1.7562  0.2342
 8425TIP3    H246767   1.158   4.793  14.554 -0.7260  0.3735 -1.6764
 8426TIP3   OH246768   0.956   4.681  12.721 -0.0220  0.1360 -0.7962
 8426TIP3    H146769   0.932   4.684  12.628 -1.0670  0.2544 -0.5435
 8426TIP3    H246770   0.941   4.770  12.753 -0.2665 -0.0487 -0.3830
 8427TIP3   OH246771   3.166   2.124   4.372  0.0101  0.2339  0.3862
 8427TIP3    H146772   3.087   2.100   4.324 -0.5166  3.0052 -0.3237
 8427TIP3    H246773   3.139   2.200   4.424  1.6731 -0.1209  1.8277
 8428TIP3   OH246774   3.056   1.766  15.808 -0.2985 -0.0565  0.2067
 8428TIP3    H146775   2.969   1.737  15.782 -0.2114 -2.2891  2.0883
 8428TIP3    H246776   3.097   1.688  15.845  2.3534  1.0350 -0.1998
 8429TIP3   OH246777   5.189   3.851  11.906  0.2106 -0.2748  0.7162
 8429TIP3    H146778   5.239   3.902  11.970  0.6838 -0.6223  0.6250
 8429TIP3    H246779   5.182   3.764  11.944  0.7066 -0.5526  0.1964
 8430TIP3   OH246780   0.768   2.945   4.312  0.2828 -0.1415  0.2717
 8430TIP3    H146781   0.803   2.864   4.274  0.8888  0.8649 -1.4236
 8430TIP3    H246782   0.707   2.978   4.246  1.2789  1.6009  0.1620
 8431TIP3   OH246783   2.293   1.209  15.550 -0.5034 -0.2198 -0.5329
 8431TIP3    H146784   2.235   1.160  15.608 -0.4134 -0.9977 -1.0818
 8431TIP3    H246785   2.378   1.168  15.561 -0.3202  0.1283 -0.6353
 8432TIP3   OH246786   1.431   5.243  16.502 -0.1257 -0.1839  0.0018
 8432TIP3    H146787   1.508   5.270  16.554  1.1132 -0.8909 -1.3936
 8432TIP3    H246788   1.427   5.148  16.513 -1.0289 -0.1127  0.3323
 8433TIP3   OH246789   5.751   2.264  16.610 -0.3127  0.6119 -0.1732
 8433TIP3    H146790   5.840   2.288  16.634 -0.1562  0.0936 -0.2095
 8433TIP3    H246791   5.709   2.240  16.693  0.3550 -1.5870 -0.4065
 8434TIP3   OH246792   0.655   2.208  14.892 -0.5083  0.0938 -0.0433
 8434TIP3    H146793   0.745   2.212  14.859  0.1571 -1.5546  1.4482
 8434TIP3    H246794   0.627   2.119  14.873 -1.6410  0.4362 -0.0051
 8435TIP3   OH246795   2.873   0.490  13.833 -0.1220 -0.1011  1.2646
 8435TIP3    H146796   2.864   0.583  13.856 -0.3604 -0.1841  1.5185
 8435TIP3    H246797   2.947   0.459  13.885 -0.2487 -0.1319  1.4259
 8436TIP3   OH246798   1.603   5.722  14.267  0.3403  0.9376  0.0196
 8436TIP3    H146799   1.638   5.650  14.320  1.0243  0.8254 -0.5620
 8436TIP3    H246800   1.508   5.710  14.269  0.2646  1.5049  2.0023
 8437TIP3   OH246801   1.269   3.501  14.548  0.3823 -0.0404  0.2866
 8437TIP3    H146802   1.190   3.452  14.524  0.4251  0.5550 -1.1667
 8437TIP3    H246803   1.236   3.583  14.583  0.3373  0.2615 -0.4411
 8438TIP3   OH246804   5.964   0.113   0.693  0.1144  0.4606 -0.4235
 8438TIP3    H146805   5.934   0.120   0.783 -0.1648 -2.2303 -0.2305
 8438TIP3    H246806   5.897   0.061   0.649  1.4593 -0.3961 -1.5528
 8439TIP3   OH246807   2.943   2.173  15.474 -0.4409  0.1322  0.8507
 8439TIP3    H146808   2.892   2.207  15.548 -0.2600  0.3996  0.8529
 8439TIP3    H246809   2.986   2.095  15.509 -1.6822 -0.7230  0.5539
 8440TIP3   OH246810   1.512   6.579  11.418  0.3185 -0.1908  0.4073
 8440TIP3    H146811   1.558   6.538  11.345  0.4941  0.6998 -0.0009
 8440TIP3    H246812   1.573   6.575  11.491  0.1793 -1.0043  0.4790
 8441TIP3   OH246813   6.665   4.521   4.711  0.0726 -0.0102  0.3004
 8441TIP3    H146814   6.583   4.559   4.741 -0.6269 -1.1670 -0.0438
 8441TIP3    H246815   6.667   4.434   4.751  1.5551  0.3090  0.9837
 8442TIP3   OH246816   2.399   2.460   2.746  0.1546 -0.1848 -0.1077
 8442TIP3    H146817   2.363   2.465   2.657 -2.0035  0.8892  0.7567
 8442TIP3    H246818   2.460   2.385   2.742 -0.1670 -0.4177 -2.3629
 8443TIP3   OH246819   1.428   5.780   0.754 -0.2807  0.1964 -0.6505
 8443TIP3    H146820   1.457   5.704   0.703 -0.1099 -0.2221  0.0497
 8443TIP3    H246821   1.459   5.762   0.843 -0.1125  1.1610 -0.5005
 8444TIP3   OH246822   2.094   3.337   5.301 -0.2746 -0.1202 -0.3313
 8444TIP3    H146823   2.026   3.276   5.327  0.2340 -0.5774 -0.0342
 8444TIP3    H246824   2.130   3.301   5.220 -1.5614  1.0708 -1.4741
 8445TIP3   OH246825   4.087   0.103   3.195  0.4971 -0.0748 -0.7924
 8445TIP3    H146826   4.096   0.197   3.209 -1.4619 -0.0401  0.5590
 8445TIP3    H246827   4.108   0.064   3.280 -4.0415 -0.3940  0.4261
 8446TIP3   OH246828   2.783   4.526   3.250  0.3919 -0.0832  0.5466
 8446TIP3    H146829   2.713   4.547   3.312  0.1348 -0.1933  0.2948
 8446TIP3    H246830   2.841   4.467   3.298 -0.3565 -1.0013  0.3435
 8447TIP3   OH246831   3.169   3.390   2.605  0.0726  0.5413 -0.7012
 8447TIP3    H146832   3.261   3.367   2.617 -0.1933 -0.8183 -1.1658
 8447TIP3    H246833   3.164   3.420   2.514 -0.1976 -0.7500 -1.1265
 8448TIP3   OH246834   5.288   5.855  11.874  0.1368 -0.4040 -0.3274
 8448TIP3    H146835   5.219   5.827  11.933 -0.6237  1.5211 -0.2276
 8448TIP3    H246836   5.310   5.777  11.823 -1.7672 -1.1799 -0.0211
 8449TIP3   OH246837   6.215   5.770   3.949  0.2521  0.0184  0.0781
 8449TIP3    H146838   6.234   5.723   3.868  1.7220  0.8070 -0.0711
 8449TIP3    H246839   6.228   5.705   4.019 -1.2647 -0.7292 -0.3092
 8450TIP3   OH246840   5.947   0.449   4.718  0.8667  0.3866  0.4452
 8450TIP3    H146841   5.932   0.434   4.624  0.4760  1.6856  0.2686
 8450TIP3    H246842   6.001   0.376   4.746  2.4182  0.8125 -1.1895
 8451TIP3   OH246843   2.629   2.522   1.713  0.0150  0.3430  0.2687
 8451TIP3    H146844   2.613   2.606   1.755  0.1144  0.9926 -0.9366
 8451TIP3    H246845   2.552   2.469   1.734 -0.1696  0.8252  0.8246
 8452TIP3   OH246846   0.631   4.272  10.380  0.7775  0.3423  0.0936
 8452TIP3    H146847   0.692   4.345  10.381  1.7357 -0.4336  0.0060
 8452TIP3    H246848   0.618   4.250  10.472 -0.6700  1.5372  0.2051
 8453TIP3   OH246849   4.919   1.915  14.385  0.4581  0.5029 -0.4358
 8453TIP3    H146850   5.007   1.914  14.423  0.2567  1.6598  0.0801
 8453TIP3    H246851   4.928   1.967  14.305  0.0221  1.5323  0.1789
 8454TIP3   OH246852   1.197   4.978   1.856 -0.5358 -0.1880 -0.1059
 8454TIP3    H146853   1.223   5.027   1.934  0.0055  0.4417 -0.6657
 8454TIP3    H246854   1.102   4.991   1.851 -0.2986  1.6431 -0.7619
 8455TIP3   OH246855   1.623   6.695   2.111  0.3222  0.0967  0.1539
 8455TIP3    H146856   1.634   6.611   2.155 -1.2414 -0.2847 -0.1097
 8455TIP3    H246857   1.653   6.680   2.022  0.8673  0.0686  0.3421
 8456TIP3   OH246858   1.731   2.176  16.227  0.4020  0.0194  0.4413
 8456TIP3    H146859   1.658   2.123  16.260 -2.3685  3.2834  0.1014
 8456TIP3    H246860   1.766   2.219  16.306 -0.2121  0.8978  0.2470
 8457TIP3   OH246861   1.485   3.050  12.732  0.1527 -0.3028  0.6516
 8457TIP3    H146862   1.496   2.980  12.797 -1.4648  0.3897  1.7579
 8457TIP3    H246863   1.406   3.096  12.761  0.2300  0.9457 -1.0074
 8458TIP3   OH246864   5.939   3.993   4.975  0.4490 -0.1351  0.0649
 8458TIP3    H146865   5.859   3.940   4.966  0.2605 -0.1038  1.3245
 8458TIP3    H246866   5.969   4.006   4.886  0.3576 -2.1517 -0.3023
 8459TIP3   OH246867   0.727   3.280   0.214 -0.0248 -0.1618 -0.3165
 8459TIP3    H146868   0.712   3.204   0.158  1.4460 -1.2518  0.6984
 8459TIP3    H246869   0.682   3.258   0.296 -0.2495  0.4056 -0.2854
 8460TIP3   OH246870   4.746   4.635   4.968 -0.4845  0.0558 -0.0478
 8460TIP3    H146871   4.746   4.544   4.996 -0.4371  0.1986  0.4366
 8460TIP3    H246872   4.675   4.676   5.018 -0.0138  0.4450  0.3163
 8461TIP3   OH246873   3.532   4.012  13.943 -0.6475 -0.2556  0.5420
 8461TIP3    H146874   3.580   3.942  13.987 -1.5631 -0.5482  1.1003
 8461TIP3    H246875   3.449   4.018  13.990 -1.2794  0.0617 -0.5640
 8462TIP3   OH246876   2.829   0.802   2.126  0.1246  0.4612 -0.0834
 8462TIP3    H146877   2.825   0.886   2.172 -1.7899  0.9007 -0.9453
 8462TIP3    H246878   2.742   0.764   2.137 -0.1781  0.2239 -2.5745
 8463TIP3   OH246879   4.517   4.429  17.113 -0.8404  0.6096 -0.0098
 8463TIP3    H146880   4.540   4.376  17.189 -0.8498  0.3858 -0.1604
 8463TIP3    H246881   4.490   4.513  17.149 -0.9749  0.4602  0.2409
 8464TIP3   OH246882   4.092   1.293  15.880  0.2584 -0.0839  0.2516
 8464TIP3    H146883   4.141   1.219  15.916  0.1588 -0.6025 -0.6580
 8464TIP3    H246884   4.076   1.350  15.956  0.9139 -0.6605  0.8409
 8465TIP3   OH246885   1.612   3.997   2.227 -0.6169 -0.0316  1.1370
 8465TIP3    H146886   1.535   4.006   2.172 -0.4293  0.5098  0.9523
 8465TIP3    H246887   1.613   4.077   2.281  0.3473  0.4562  0.4407
 8466TIP3   OH246888   2.881   0.994   0.833 -0.8095  0.0546 -0.4024
 8466TIP3    H146889   2.851   0.919   0.884  1.7346 -0.4145  0.5226
 8466TIP3    H246890   2.903   1.060   0.898 -2.4373  1.4365 -1.1848
 8467TIP3   OH246891   3.317   5.688  14.410 -0.2572  0.6767  0.5126
 8467TIP3    H146892   3.354   5.601  14.396 -0.0704  0.8792 -0.3069
 8467TIP3    H246893   3.245   5.673  14.471 -0.6178 -0.1544 -0.0877
 8468TIP3   OH246894   2.013   0.803   1.431 -0.0149  0.1128  0.8646
 8468TIP3    H146895   1.946   0.863   1.463 -1.2744 -1.0578  0.4624
 8468TIP3    H246896   1.965   0.730   1.393  1.4841 -1.0905  1.1932
 8469TIP3   OH246897   3.101   0.361   3.101 -0.2484  0.1565  0.8097
 8469TIP3    H146898   3.140   0.274   3.116  0.0521  0.1387 -0.0439
 8469TIP3    H246899   3.084   0.364   3.007  0.5963  1.3702  0.6702
 8470TIP3   OH246900   5.029   6.723   1.844  0.3210 -0.3441 -0.0736
 8470TIP3    H146901   5.049   6.630   1.837  2.2665  0.0550 -0.1730
 8470TIP3    H246902   4.960   6.737   1.778 -0.8761 -1.8996  0.7712
 8471TIP3   OH246903   0.927   1.719   0.473  0.2453  0.5571 -0.6559
 8471TIP3    H146904   0.915   1.812   0.494 -0.3088  1.0167 -2.7417
 8471TIP3    H246905   0.851   1.676   0.512  0.1311  1.0800 -0.2792
 8472TIP3   OH246906   1.796   3.214  12.750 -0.4074  0.2870  0.2573
 8472TIP3    H146907   1.796   3.120  12.735  0.3624  0.3179 -0.0013
 8472TIP3    H246908   1.747   3.226  12.831 -1.3044 -0.2487 -0.1895
 8473TIP3   OH246909   4.564   2.343  13.953 -0.3938 -0.8328 -0.0295
 8473TIP3    H146910   4.518   2.267  13.916  0.6066 -0.6159 -1.8032
 8473TIP3    H246911   4.612   2.380  13.880  1.3044 -0.0603  1.4035
 8474TIP3   OH246912   1.245   1.785   2.836 -0.5782  0.3253  0.4424
 8474TIP3    H146913   1.197   1.830   2.905 -1.9964 -0.9848  0.3590
 8474TIP3    H246914   1.287   1.711   2.881 -0.0228  0.4894  0.2057
 8475TIP3   OH246915   6.558   0.354  14.507  0.1314  0.0281  0.1428
 8475TIP3    H146916   6.476   0.322  14.471 -0.1435 -0.5766  1.2377
 8475TIP3    H246917   6.580   0.291  14.576  0.9849  0.7396  0.5498
 8476TIP3   OH246918   5.077   6.389   4.812  0.5337  0.0929 -0.1377
 8476TIP3    H146919   5.112   6.420   4.895 -1.1661 -2.0360  1.4980
 8476TIP3    H246920   4.982   6.392   4.823  0.2382 -0.0433 -2.1118
 8477TIP3   OH246921   5.533   5.501   2.524 -0.0929  0.6459 -0.3400
 8477TIP3    H146922   5.513   5.409   2.507 -3.3233  0.6402  2.3512
 8477TIP3    H246923   5.585   5.500   2.604  0.9116  1.1602 -0.9701
 8478TIP3   OH246924   4.157   5.016   3.727 -0.4636  0.0429  0.0458
 8478TIP3    H146925   4.251   5.006   3.736 -0.4007  1.3529  1.1373
 8478TIP3    H246926   4.133   4.956   3.656  1.1142 -0.5876  0.0100
 8479TIP3   OH246927   4.640   4.682  11.520 -0.6025 -0.4606  0.6028
 8479TIP3    H146928   4.661   4.594  11.490  0.5758 -0.6386  1.8287
 8479TIP3    H246929   4.547   4.679  11.542 -0.4982 -1.4971  0.9341
 8480TIP3   OH246930   6.028   6.217   2.784  0.1870  0.0787 -0.4726
 8480TIP3    H146931   6.007   6.290   2.727  0.4180 -0.8600 -1.8098
 8480TIP3    H246932   6.122   6.202   2.770  0.0611 -0.7166 -0.5219
 8481TIP3   OH246933   2.837   3.040   5.403  0.3391 -0.5300 -0.2201
 8481TIP3    H146934   2.785   3.118   5.423  2.5119  0.2677  3.2693
 8481TIP3    H246935   2.892   3.066   5.329 -0.3328  0.5349 -0.3683
 8482TIP3   OH246936   1.574   2.229  12.904  0.4571  0.4494  0.3366
 8482TIP3    H146937   1.513   2.282  12.852 -0.1898 -0.4385  0.1588
 8482TIP3    H246938   1.537   2.230  12.992 -0.8519 -1.5005 -0.1071
 8483TIP3   OH246939   6.633   4.573  12.003  0.5845 -0.6386 -0.6710
 8483TIP3    H146940   6.579   4.536  12.072  1.2120  1.3511  0.9652
 8483TIP3    H246941   6.572   4.595  11.933 -0.3924 -0.5757  0.1886
 8484TIP3   OH246942   6.805   1.926   5.437 -0.0839 -0.8609 -0.6992
 8484TIP3    H146943   6.840   1.900   5.352 -0.2996 -2.0533 -0.4421
 8484TIP3    H246944   6.764   1.847   5.471 -1.6109  0.0725 -0.2789
 8485TIP3   OH246945   1.930   3.011  16.380 -0.0886  0.6418  0.6652
 8485TIP3    H146946   2.025   3.023  16.375 -0.2816  1.7961 -1.3497
 8485TIP3    H246947   1.918   2.917  16.378  0.9943  0.4935 -0.4461
 8486TIP3   OH246948   4.240   1.500   3.516 -0.0633  0.3579 -0.3204
 8486TIP3    H146949   4.299   1.438   3.560  0.3557 -0.6235 -2.1561
 8486TIP3    H246950   4.158   1.494   3.565  0.1105 -1.3360 -0.1740
 8487TIP3   OH246951   1.127   5.324   2.992  0.6214 -1.0502 -0.6808
 8487TIP3    H146952   1.060   5.348   3.056  1.0186  0.0909 -0.6773
 8487TIP3    H246953   1.090   5.249   2.946 -0.1352 -1.2077  0.1446
 8488TIP3   OH246954   1.495   3.956  13.775 -0.2370 -0.0935 -0.1547
 8488TIP3    H146955   1.493   4.052  13.768  0.9749 -0.1125 -0.9969
 8488TIP3    H246956   1.588   3.934  13.770 -0.2932 -1.1814  2.1595
 8489TIP3   OH246957   2.800   0.900   3.134  0.4203 -0.2765  0.2856
 8489TIP3    H146958   2.796   0.994   3.117  1.7835  0.0367  1.4416
 8489TIP3    H246959   2.839   0.894   3.222 -1.5878 -1.8769  1.1296
 8490TIP3   OH246960   2.950   6.573  16.273 -0.1635  0.3698 -0.8091
 8490TIP3    H146961   2.914   6.605  16.190  0.1229  1.0687 -0.6731
 8490TIP3    H246962   2.944   6.648  16.332  2.0700  0.7046 -0.9518
 8491TIP3   OH246963   1.806   6.657   1.876  0.3158  0.0905  0.1051
 8491TIP3    H146964   1.813   6.564   1.853 -0.3472 -0.2999  1.4204
 8491TIP3    H246965   1.894   6.681   1.905 -0.0865 -0.8490  2.2750
 8492TIP3   OH246966   6.038   2.535   4.293 -0.0717 -0.4405  0.0818
 8492TIP3    H146967   6.048   2.451   4.247  0.7132 -0.7018  0.7079
 8492TIP3    H246968   5.997   2.511   4.376 -2.5515  0.1623 -0.8887
 8493TIP3   OH246969   4.401   0.557  15.293  0.6746 -0.3357  0.7086
 8493TIP3    H146970   4.413   0.521  15.381  1.6391  1.0092  1.1666
 8493TIP3    H246971   4.431   0.648  15.300  1.0640 -0.2873 -1.0892
 8494TIP3   OH246972   1.345   3.307  13.463 -0.4893  0.2263 -0.2898
 8494TIP3    H146973   1.284   3.380  13.459 -1.3002 -0.2149  2.2639
 8494TIP3    H246974   1.292   3.233  13.491  0.6758 -0.9306 -1.0217
 8495TIP3   OH246975   5.701   3.432   3.346 -0.7161  0.3201 -0.0841
 8495TIP3    H146976   5.701   3.449   3.252  2.2242  2.0183  0.1175
 8495TIP3    H246977   5.704   3.518   3.386 -1.3580 -0.3919  1.6016
 8496TIP3   OH246978   0.564   3.345  13.044  0.1245  0.0938  0.1333
 8496TIP3    H146979   0.637   3.354  12.981 -1.9643 -0.8654 -2.6334
 8496TIP3    H246980   0.546   3.251  13.045 -3.1349  0.5474 -1.9614
 8497TIP3   OH246981   0.643   4.473   1.437 -0.7214  0.2006 -0.5512
 8497TIP3    H146982   0.705   4.406   1.408 -1.0267 -0.1170 -0.4820
 8497TIP3    H246983   0.614   4.516   1.357 -0.8057  0.0006 -0.6278
 8498TIP3   OH246984   4.578   0.740  13.531 -0.0863  0.0945 -0.2634
 8498TIP3    H146985   4.639   0.771  13.597  0.9157 -0.2389 -1.0054
 8498TIP3    H246986   4.632   0.691  13.469 -1.3488 -1.6722 -0.0549
 8499TIP3   OH246987   5.219   4.510  16.685  0.4608  0.1601 -0.5991
 8499TIP3    H146988   5.309   4.514  16.718  1.1238  0.8388 -2.3708
 8499TIP3    H246989   5.197   4.417  16.685  1.5642 -0.1169 -1.1376
 8500TIP3   OH246990   2.151   5.153   3.223 -0.5269 -0.4985  0.2829
 8500TIP3    H146991   2.197   5.161   3.307 -0.7747  1.4818  0.2838
 8500TIP3    H246992   2.154   5.241   3.186  0.9219 -1.6254 -2.5535
 8501TIP3   OH246993   4.733   4.036  15.180 -0.2487  0.1050 -0.5333
 8501TIP3    H146994   4.692   3.951  15.165 -0.1887 -0.3809  1.7008
 8501TIP3    H246995   4.750   4.070  15.092 -1.0923 -1.7745 -1.4909
 8502TIP3   OH246996   1.237   1.565  11.912 -0.0154  0.3685  0.3592
 8502TIP3    H146997   1.221   1.655  11.940 -1.9359 -0.2443  1.4531
 8502TIP3    H246998   1.151   1.532  11.887  1.0953 -0.2331 -3.1787
 8503TIP3   OH246999   5.259   0.780   1.735 -0.3288 -0.2647  1.0503
 8503TIP3    H147000   5.272   0.840   1.662  2.0074  1.1244  2.4692
 8503TIP3    H247001   5.167   0.789   1.758 -0.3438  1.7896  0.3599
 8504TIP3   OH247002   4.601   5.959   0.686  0.5505 -0.5291 -0.5836
 8504TIP3    H147003   4.553   6.042   0.682  0.3700 -0.6279 -0.4532
 8504TIP3    H247004   4.536   5.895   0.716  0.7064 -0.7056 -0.6227
 8505TIP3   OH247005   6.109   0.045  12.318  0.0288 -0.7799  0.5067
 8505TIP3    H147006   6.170   0.094  12.263 -0.2615  1.6564  2.1994
 8505TIP3    H247007   6.032   0.031  12.262  0.2832  0.3596 -0.1547
 8506TIP3   OH247008   5.957   3.456  11.891 -0.2917 -0.1316 -0.3257
 8506TIP3    H147009   5.977   3.367  11.921 -0.5045 -1.6233 -4.1041
 8506TIP3    H247010   6.039   3.504  11.905  0.2944 -1.3079  0.4826
 8507TIP3   OH247011   1.748   0.539  13.905 -0.0775 -0.0595 -0.3683
 8507TIP3    H147012   1.769   0.628  13.934 -2.2029  0.2503  0.4125
 8507TIP3    H247013   1.790   0.482  13.970 -0.3338  0.4480  0.2522
 8508TIP3   OH247014   0.371   0.627  14.105  0.7443  0.3149 -0.1298
 8508TIP3    H147015   0.317   0.557  14.142  0.7196  1.1699  1.5195
 8508TIP3    H247016   0.307   0.687  14.065  0.4961  0.8515  1.0128
 8509TIP3   OH247017   1.555   6.368  12.894  0.2204  0.0633  0.3291
 8509TIP3    H147018   1.650   6.376  12.908  0.3778 -0.9760 -0.0689
 8509TIP3    H247019   1.525   6.310  12.963 -0.4807  1.9069  1.6537
 8510TIP3   OH247020   2.780   6.381  16.492 -0.3691 -0.1077 -0.0798
 8510TIP3    H147021   2.723   6.306  16.475 -0.0189 -0.1384 -1.1905
 8510TIP3    H247022   2.868   6.343  16.500 -0.5001 -0.0900  1.8560
 8511TIP3   OH247023   2.455   3.392  15.356  0.1528  0.6673 -0.2728
 8511TIP3    H147024   2.454   3.354  15.268  1.2621 -0.8659  0.3182
 8511TIP3    H247025   2.389   3.461  15.354 -2.2493 -1.4889 -1.3900
 8512TIP3   OH247026   1.426   1.830   4.462  0.1556  0.3812  0.2261
 8512TIP3    H147027   1.371   1.831   4.541 -2.7732 -0.0218 -1.6406
 8512TIP3    H247028   1.383   1.891   4.402  2.2215  0.5838 -1.1359
 8513TIP3   OH247029   4.110   4.138   3.017 -0.0073 -0.0334  0.3045
 8513TIP3    H147030   4.160   4.088   3.081 -0.8848  0.4258  1.3947
 8513TIP3    H247031   4.021   4.103   3.024 -0.3700  0.8408  0.2017
 8514TIP3   OH247032   2.394   4.630  15.309  0.3589 -0.1239 -0.1319
 8514TIP3    H147033   2.329   4.566  15.338  0.4874 -0.1305  0.1468
 8514TIP3    H247034   2.353   4.715  15.324  0.1675 -0.1418 -0.5525
 8515TIP3   OH247035   6.740   0.749  14.576  1.0905 -0.1378  0.2402
 8515TIP3    H147036   6.661   0.700  14.599  1.3360  0.1059  1.6578
 8515TIP3    H247037   6.780   0.698  14.506 -0.9450  0.3689 -1.4130
 8516TIP3   OH247038   5.723   1.203   5.841  0.1399 -0.3009  0.1820
 8516TIP3    H147039   5.699   1.215   5.933 -1.0715  1.3432 -0.3002
 8516TIP3    H247040   5.755   1.113   5.836  0.3758 -0.3779  2.2265
 8517TIP3   OH247041   5.990   4.652  10.865  0.5392  0.3305  0.5627
 8517TIP3    H147042   5.990   4.558  10.881  0.3450  0.4913  1.6144
 8517TIP3    H247043   5.897   4.675  10.861  0.5723  0.6232  1.3183
 8518TIP3   OH247044   6.211   4.042   4.595  0.0866  0.1477  0.7085
 8518TIP3    H147045   6.192   4.119   4.542  0.8087  0.1056  0.3785
 8518TIP3    H247046   6.214   3.970   4.531  1.6322  0.1990  0.6899
 8519TIP3   OH247047   2.462   3.789   2.900  0.1615  0.1705 -0.6376
 8519TIP3    H147048   2.436   3.704   2.864  0.7608  0.2064 -1.1658
 8519TIP3    H247049   2.549   3.805   2.864  0.7613  0.2463  0.7786
 8520TIP3   OH247050   2.972   1.731   1.996 -0.0003  0.0273  0.2808
 8520TIP3    H147051   3.019   1.699   1.919 -0.0193 -0.0780  0.3130
 8520TIP3    H247052   3.022   1.698   2.070  0.4909  0.8146  0.3189
 8521TIP3   OH247053   4.411   2.896  15.924 -0.2582 -0.2858 -0.2502
 8521TIP3    H147054   4.450   2.862  16.005  2.6645 -0.3986 -1.5957
 8521TIP3    H247055   4.484   2.935  15.877 -2.1207  0.8889 -2.3104
 8522TIP3   OH247056   2.425   1.168  11.285  0.0240  0.4889 -0.2844
 8522TIP3    H147057   2.368   1.123  11.348 -0.3616  0.5959 -0.5542
 8522TIP3    H247058   2.391   1.258  11.283  2.3775  1.5856  2.2453
 8523TIP3   OH247059   4.803   1.766  10.987 -0.0291  0.0069  0.0900
 8523TIP3    H147060   4.886   1.718  10.992 -0.0139 -0.0144 -0.3632
 8523TIP3    H247061   4.789   1.798  11.076 -0.8390 -2.1862  0.8279
 8524TIP3   OH247062   3.852   3.183   1.604  0.3649 -0.3990  0.0315
 8524TIP3    H147063   3.806   3.146   1.680 -0.9618 -1.4628 -1.2301
 8524TIP3    H247064   3.854   3.111   1.540 -0.4191  1.0829 -1.7432
 8525TIP3   OH247065   6.273   5.809  12.784 -0.8193 -0.3548  0.0214
 8525TIP3    H147066   6.272   5.716  12.807  1.3312 -0.0564  1.6395
 8525TIP3    H247067   6.188   5.842  12.813 -1.2893 -1.6524  0.1628
 8526TIP3   OH247068   5.389   2.467   4.788  0.4518 -0.3195 -0.3536
 8526TIP3    H147069   5.327   2.533   4.759 -0.2990 -1.2951 -1.0090
 8526TIP3    H247070   5.338   2.408   4.843  1.2383 -0.0599  0.6950
 8527TIP3   OH247071   5.297   5.611   4.489 -0.0004 -0.6227 -0.1684
 8527TIP3    H147072   5.358   5.584   4.421  0.0680 -0.9068  0.0070
 8527TIP3    H247073   5.215   5.567   4.467 -0.8439  1.5514 -1.7401
 8528TIP3   OH247074   1.212   3.691   2.734 -0.7560 -0.5322 -0.2108
 8528TIP3    H147075   1.254   3.771   2.766 -1.2396 -0.8037  1.2010
 8528TIP3    H247076   1.283   3.627   2.730 -0.3251  0.0057 -1.5528
 8529TIP3   OH247077   1.444   6.346   5.663  0.2795 -0.4208  0.2105
 8529TIP3    H147078   1.493   6.385   5.590 -2.1202  0.1590 -1.2060
 8529TIP3    H247079   1.446   6.252   5.645  1.0942 -0.4324  0.3363
 8530TIP3   OH247080   2.347   0.568  13.743 -0.0508  0.2244 -0.1462
 8530TIP3    H147081   2.437   0.552  13.773  0.1778  0.7450 -0.5577
 8530TIP3    H247082   2.302   0.485  13.760  0.6029 -0.1682 -0.2999
 8531TIP3   OH247083   0.849   3.523   0.121  0.1769 -0.1135  0.0329
 8531TIP3    H147084   0.769   3.575   0.136  0.5406 -0.3628  3.6243
 8531TIP3    H247085   0.820   3.432   0.129  0.5020 -0.3042 -0.8188
 8532TIP3   OH247086   4.359   4.576   0.081  0.0285  0.3591 -0.2856
 8532TIP3    H147087   4.264   4.573   0.069  0.0518 -0.1118 -0.3780
 8532TIP3    H247088   4.377   4.666   0.107 -0.4017  0.5502 -0.6290
 8533TIP3   OH247089   0.589   2.327  14.445  0.2556  0.0357 -0.0907
 8533TIP3    H147090   0.509   2.302  14.399  0.1645 -0.2154  0.2067
 8533TIP3    H247091   0.659   2.312  14.381  0.2232 -1.1328  0.1234
 8534TIP3   OH247092   0.435   5.151  14.616 -0.4550 -0.1355  0.0889
 8534TIP3    H147093   0.398   5.231  14.578 -2.4854 -0.8132  0.5397
 8534TIP3    H247094   0.396   5.080  14.565  1.2163 -0.8919 -0.2126
 8535TIP3   OH247095   1.952   2.757  14.564 -0.4932  0.1545  0.0549
 8535TIP3    H147096   1.879   2.806  14.600 -0.7913  0.0709 -0.4228
 8535TIP3    H247097   2.002   2.727  14.640 -3.1670 -3.3095  0.6859
 8536TIP3   OH247098   4.742   0.825   0.855  0.2919 -0.1919  0.3487
 8536TIP3    H147099   4.741   0.920   0.865  0.7009 -0.2423  0.9102
 8536TIP3    H247100   4.809   0.795   0.916 -1.3019 -1.0317  1.7554
 8537TIP3   OH247101   5.986   0.320  14.988 -0.2830  0.1952  0.1924
 8537TIP3    H147102   5.938   0.250  14.945 -1.2035 -0.0950  1.6359
 8537TIP3    H247103   6.013   0.284  15.072 -0.1396  1.3380  0.6626
 8538TIP3   OH247104   2.719   5.541   2.463 -0.7727 -0.3463  0.2000
 8538TIP3    H147105   2.780   5.554   2.535  0.0666  0.8646 -0.6983
 8538TIP3    H247106   2.672   5.624   2.456 -1.4929 -0.7681 -0.0566
 8539TIP3   OH247107   2.202   2.421   2.946  0.6789  0.6903  0.3839
 8539TIP3    H147108   2.148   2.342   2.936  0.1812  0.8440  1.7136
 8539TIP3    H247109   2.255   2.424   2.866 -1.9077  1.0269 -1.4629
 8540TIP3   OH247110   2.431   2.139   4.314 -0.1127 -0.1218 -0.1263
 8540TIP3    H147111   2.340   2.123   4.287 -0.3825 -0.8224  1.0900
 8540TIP3    H247112   2.470   2.052   4.319 -0.1203 -0.0594  1.7630
 8541TIP3   OH247113   0.885   4.963  12.844 -0.1205 -0.5429  0.0068
 8541TIP3    H147114   0.801   4.943  12.887  0.2507  0.9051  1.4896
 8541TIP3    H247115   0.861   5.024  12.774 -0.7026 -2.7766 -1.8828
 8542TIP3   OH247116   5.801   0.611  11.186  0.3959  0.0144  0.2359
 8542TIP3    H147117   5.809   0.701  11.153 -0.2072 -0.1320 -0.3298
 8542TIP3    H247118   5.759   0.621  11.271 -2.7746  0.0917 -1.2090
 8543TIP3   OH247119   5.886   1.861  11.638 -0.2645 -0.0340 -0.2899
 8543TIP3    H147120   5.791   1.858  11.646 -0.1015 -0.6350  2.1153
 8543TIP3    H247121   5.904   1.815  11.556 -1.9818 -1.4317  0.0527
 8544TIP3   OH247122   1.719   0.989   4.061 -0.0649 -0.6262 -0.1931
 8544TIP3    H147123   1.754   0.900   4.058  1.8496  0.0582  0.2799
 8544TIP3    H247124   1.784   1.038   4.112 -1.2558  0.9678 -0.1501
 8545TIP3   OH247125   4.172   4.440  13.620 -0.1275 -0.4159  0.1231
 8545TIP3    H147126   4.186   4.428  13.714 -2.0221 -1.0576  0.3741
 8545TIP3    H247127   4.209   4.526  13.601 -2.6334  1.2766  2.1819
 8546TIP3   OH247128   1.492   2.841  15.449  0.1950 -0.3437 -0.0681
 8546TIP3    H147129   1.531   2.887  15.523 -0.1694 -0.2450  0.0640
 8546TIP3    H247130   1.465   2.756  15.485  0.5205 -0.5125 -0.2210
 8547TIP3   OH247131   2.485   0.334   5.079 -0.2238  0.3017 -0.2832
 8547TIP3    H147132   2.498   0.285   4.998 -0.1459 -2.5412  1.3141
 8547TIP3    H247133   2.395   0.314   5.105  0.5926 -1.1895  1.6851
 8548TIP3   OH247134   2.956   2.607  13.508 -0.8110  0.4110 -0.0908
 8548TIP3    H147135   2.897   2.651  13.569  0.1500  1.8424 -0.1577
 8548TIP3    H247136   2.955   2.662  13.430 -1.1086 -0.7723 -0.9453
 8549TIP3   OH247137   0.594   0.700   4.425 -0.6415 -0.0369 -0.7821
 8549TIP3    H147138   0.610   0.772   4.487  0.2412  0.4037 -1.5028
 8549TIP3    H247139   0.509   0.664   4.451 -1.7526  2.1152 -1.2323
 8550TIP3   OH247140   2.712   2.841  11.044 -0.0763  0.0254 -0.0711
 8550TIP3    H147141   2.709   2.795  11.128 -1.9426  0.5008  0.1505
 8550TIP3    H247142   2.640   2.903  11.047  1.1308  1.5786 -1.1861
 8551TIP3   OH247143   3.969   4.582   3.558 -0.0666 -0.2662  0.1150
 8551TIP3    H147144   4.016   4.499   3.565 -0.9956 -0.8351 -0.0959
 8551TIP3    H247145   3.942   4.587   3.466 -1.8131 -0.7840  0.5486
 8552TIP3   OH247146   5.555   5.997  14.896 -0.4157  0.5338 -0.0367
 8552TIP3    H147147   5.595   5.921  14.853 -1.0605  0.5096 -0.6081
 8552TIP3    H247148   5.461   5.978  14.895 -0.8444  2.3397 -2.2617
 8553TIP3   OH247149   6.584   4.486  12.996 -0.2213 -0.9628  0.2055
 8553TIP3    H147150   6.561   4.481  12.903  1.1767 -0.8149 -0.1680
 8553TIP3    H247151   6.623   4.401  13.016  0.3740 -0.6463  0.4072
 8554TIP3   OH247152   1.387   1.243  12.796 -0.3579  0.1339 -0.1732
 8554TIP3    H147153   1.346   1.188  12.729  0.7298 -2.3772  1.0904
 8554TIP3    H247154   1.431   1.312  12.747 -0.6164 -0.9210 -1.9638
 8555TIP3   OH247155   3.451   1.014  15.158 -0.0039  0.8311  0.3208
 8555TIP3    H147156   3.512   1.005  15.085  0.5361 -1.1208  0.9566
 8555TIP3    H247157   3.381   1.069  15.123  2.4459  3.9293 -0.1569
 8556TIP3   OH247158   5.043   3.057  14.469 -0.2187 -0.0442 -0.2229
 8556TIP3    H147159   5.019   3.022  14.554  2.2964  0.1383  0.6527
 8556TIP3    H247160   5.020   3.149  14.473  2.5224  0.6918  1.5080
 8557TIP3   OH247161   0.358   0.922  14.896  0.0363  0.7197 -0.0620
 8557TIP3    H147162   0.362   1.018  14.900  0.8648  0.7918 -1.7263
 8557TIP3    H247163   0.334   0.896  14.985  1.8580  2.3726  1.0095
 8558TIP3   OH247164   1.459   3.522  15.016 -0.3374  0.2976  0.5539
 8558TIP3    H147165   1.477   3.604  15.062 -1.4700  1.1658 -0.4796
 8558TIP3    H247166   1.419   3.466  15.082  2.1906 -0.2004  1.7894
 8559TIP3   OH247167   0.766   4.178   1.394  0.2170 -0.3471 -0.6215
 8559TIP3    H147168   0.859   4.185   1.369  0.2765 -0.8318 -0.5389
 8559TIP3    H247169   0.720   4.167   1.311  0.1274  0.9004 -0.7520
 8560TIP3   OH247170   6.551   5.934  15.011 -0.2438  0.9831 -0.0032
 8560TIP3    H147171   6.585   5.860  15.061 -1.6938 -0.1795 -0.6652
 8560TIP3    H247172   6.607   5.939  14.934  2.3036  3.0798  1.8193
 8561TIP3   OH247173   6.085   5.605   2.841 -0.5995  0.2521  0.1594
 8561TIP3    H147174   6.115   5.530   2.892 -1.3733  0.3495  0.7877
 8561TIP3    H247175   6.122   5.681   2.886  0.3339  0.2526 -0.5809
 8562TIP3   OH247176   6.258   2.266  11.719 -0.6363 -0.5057  0.1230
 8562TIP3    H147177   6.220   2.344  11.679  0.3388 -0.3534 -0.5581
 8562TIP3    H247178   6.217   2.193  11.673  0.0959 -0.3396 -0.8396
 8563TIP3   OH247179   4.077   1.691  10.510  0.3430 -0.4778 -0.2430
 8563TIP3    H147180   4.087   1.766  10.568 -1.3651 -1.9200  2.0862
 8563TIP3    H247181   4.167   1.665  10.488  0.9967  0.9124  0.6836
 8564TIP3   OH247182   1.200   5.405   3.707  0.1557  0.4228  0.4270
 8564TIP3    H147183   1.255   5.460   3.650 -3.0779 -0.0608 -3.5779
 8564TIP3    H247184   1.242   5.319   3.705  1.4504  1.0001  1.0075
 8565TIP3   OH247185   4.384   4.007  14.954 -0.2092 -0.0409 -0.1952
 8565TIP3    H147186   4.456   3.957  14.992 -1.3325 -1.7404 -0.1963
 8565TIP3    H247187   4.427   4.076  14.903  1.3541  0.6469  1.9316
 8566TIP3   OH247188   2.614   2.112   2.491  0.0758 -0.2848  0.1399
 8566TIP3    H147189   2.612   2.020   2.465  1.1966 -0.6410  1.2423
 8566TIP3    H247190   2.664   2.155   2.422  0.0786 -0.6023 -0.0615
 8567TIP3   OH247191   0.969   6.128   3.282  0.2562 -0.1725 -0.1368
 8567TIP3    H147192   0.922   6.207   3.255  1.4690  0.7223  0.2659
 8567TIP3    H247193   0.905   6.058   3.275 -0.9784  0.9195 -0.1053
 8568TIP3   OH247194   1.885   0.726   2.379 -0.1997 -0.2077  0.3501
 8568TIP3    H147195   1.901   0.636   2.405  1.4175 -0.3036 -0.7767
 8568TIP3    H247196   1.964   0.773   2.404 -1.4622  1.1899  1.9532
 8569TIP3   OH247197   2.119   0.241   1.863  0.5631 -0.4158  0.2392
 8569TIP3    H147198   2.206   0.203   1.855  0.7017 -0.1078  0.2693
 8569TIP3    H247199   2.065   0.191   1.801  0.6589 -0.8937  0.5314
 8570TIP3   OH247200   5.727   6.524   4.972 -0.0378 -0.0945 -0.3660
 8570TIP3    H147201   5.798   6.545   4.912 -0.1709  0.9271 -0.1839
 8570TIP3    H247202   5.714   6.604   5.023 -0.3502 -0.7361  0.5927
 8571TIP3   OH247203   1.931   1.602  15.362  0.4348  0.0809 -0.0373
 8571TIP3    H147204   1.932   1.547  15.284  2.8410  0.3741 -0.2788
 8571TIP3    H247205   2.023   1.615  15.383 -0.0967 -0.7598  3.4278
 8572TIP3   OH247206   4.920   5.727  15.606 -0.5496  0.0621 -0.4750
 8572TIP3    H147207   4.947   5.791  15.671  0.4444  0.2440 -1.0441
 8572TIP3    H247208   4.896   5.779  15.529  0.0845 -0.2313 -0.8779
 8573TIP3   OH247209   3.911   5.043  13.308  0.0486 -0.3657 -0.0754
 8573TIP3    H147210   3.865   4.992  13.375 -0.3739 -0.6278 -0.5541
 8573TIP3    H247211   3.844   5.102  13.274  0.4148  0.1807  0.1423
 8574TIP3   OH247212   0.392   1.938  15.572  0.0662  0.2501 -0.0495
 8574TIP3    H147213   0.334   2.002  15.531 -0.8547 -0.1338  0.6289
 8574TIP3    H247214   0.339   1.897  15.640  0.1216 -2.2786 -1.3777
 8575TIP3   OH247215   5.054   3.242   2.036 -0.0239  0.0946  0.0210
 8575TIP3    H147216   5.064   3.304   2.108  1.1020  0.9847 -0.8609
 8575TIP3    H247217   4.970   3.264   1.996  0.0670  0.6294  0.1192
 8576TIP3   OH247218   3.511   2.949  17.063  0.0344 -0.0177 -0.0683
 8576TIP3    H147219   3.528   2.968  17.155  0.5012  1.2148 -0.3864
 8576TIP3    H247220   3.573   2.879  17.041  0.7691  0.5171  0.2541
 8577TIP3   OH247221   2.865   3.357  13.612 -0.1585 -0.1095  0.1293
 8577TIP3    H147222   2.778   3.323  13.592 -0.0133 -1.1724  1.1996
 8577TIP3    H247223   2.886   3.413  13.537 -2.5712  1.8278  0.7696
 8578TIP3   OH247224   2.852   4.798  16.742 -0.2422  0.2393 -0.0118
 8578TIP3    H147225   2.822   4.764  16.826 -1.3540 -0.1235 -0.5386
 8578TIP3    H247226   2.783   4.858  16.714 -0.5502 -0.6476 -1.2700
 8579TIP3   OH247227   4.270   6.384  12.035 -0.0368  0.2848 -0.2570
 8579TIP3    H147228   4.355   6.361  12.073 -0.9941 -2.3800  0.5114
 8579TIP3    H247229   4.258   6.321  11.964 -1.2459  0.8278 -0.5535
 8580TIP3   OH247230   2.883   2.774   1.020  0.0409 -0.0819  0.3561
 8580TIP3    H147231   2.869   2.759   0.927  1.6766 -0.9565  0.2006
 8580TIP3    H247232   2.978   2.783   1.029  0.0097 -0.8802  2.0371
 8581TIP3   OH247233   3.168   0.450   2.363  0.1270 -0.3078 -0.6108
 8581TIP3    H147234   3.218   0.387   2.311 -0.8391 -0.6490 -1.1426
 8581TIP3    H247235   3.124   0.505   2.298  0.6560  0.6909 -0.1498
 8582TIP3   OH247236   6.690   3.034  12.141  0.7728 -0.0323 -0.4531
 8582TIP3    H147237   6.727   3.122  12.151 -2.1959  1.4507 -1.4098
 8582TIP3    H247238   6.598   3.044  12.166  0.9490 -3.5884  2.2651
 8583TIP3   OH247239   0.375   0.338   1.891  0.6055  0.6062  0.0944
 8583TIP3    H147240   0.329   0.403   1.944 -2.2342  0.5117 -2.0252
 8583TIP3    H247241   0.425   0.286   1.954  0.9191  3.1750  2.1165
 8584TIP3   OH247242   3.426   4.026  15.337  0.1383 -0.9148 -0.1125
 8584TIP3    H147243   3.337   4.061  15.340  0.0781 -1.1058  0.3465
 8584TIP3    H247244   3.480   4.099  15.306 -0.3811 -1.2040 -1.8245
 8585TIP3   OH247245   1.000   3.143   1.628 -0.0691  0.1898  0.0757
 8585TIP3    H147246   1.023   3.051   1.612 -1.7151 -0.5763  1.6510
 8585TIP3    H247247   0.935   3.163   1.561 -1.1287 -0.4571  0.8761
 8586TIP3   OH247248   2.533   3.652  13.682  0.1068  0.4494 -0.2346
 8586TIP3    H147249   2.446   3.614  13.690  0.8517 -1.1048  1.0263
 8586TIP3    H247250   2.565   3.622  13.597 -0.1582  0.0900 -0.2098
 8587TIP3   OH247251   1.559   3.800   1.819 -0.3388  0.1941 -0.8321
 8587TIP3    H147252   1.498   3.735   1.784  0.2951 -0.7474 -0.2069
 8587TIP3    H247253   1.557   3.871   1.754 -3.1865  0.8879 -0.1299
 8588TIP3   OH247254   5.502   0.038   4.440 -0.1303 -0.5962 -0.0106
 8588TIP3    H147255   5.542   0.014   4.356  0.9659 -2.1559  0.8904
 8588TIP3    H247256   5.548   0.118   4.466 -2.8870  2.0279 -2.4345
 8589TIP3   OH247257   4.048   5.026   3.135  0.0739  0.1232  0.1473
 8589TIP3    H147258   4.074   5.110   3.173  1.3857 -0.0857 -0.2178
 8589TIP3    H247259   4.081   4.961   3.197  0.5892 -0.1648 -0.4241
 8590TIP3   OH247260   6.612   3.062   4.770  0.6677  0.3648 -0.6971
 8590TIP3    H147261   6.613   3.157   4.757  3.8128  0.6295  0.6340
 8590TIP3    H247262   6.570   3.051   4.856  1.6353  0.7172 -0.1637
 8591TIP3   OH247263   4.437   6.733  11.748  0.3625 -0.1637 -0.5304
 8591TIP3    H147264   4.388   6.662  11.706 -3.5931  1.9587  0.0338
 8591TIP3    H247265   4.432   6.714  11.841  0.2352  0.2987 -0.4402
 8592TIP3   OH247266   2.662   0.184  10.792  0.2960 -0.5689 -0.6446
 8592TIP3    H147267   2.639   0.221  10.707  1.7238 -1.2228 -1.3588
 8592TIP3    H247268   2.591   0.123  10.812  1.0104 -2.1161 -2.4920
 8593TIP3   OH247269   0.061   3.115  11.344 -0.2037 -0.1405  0.3109
 8593TIP3    H147270   0.053   3.210  11.340  0.5105 -0.1002 -0.6222
 8593TIP3    H247271   0.082   3.089  11.254 -1.6133 -1.3134  0.2758
 8594TIP3   OH247272   5.094   3.003  12.328  0.4989 -0.0546 -0.5845
 8594TIP3    H147273   5.137   2.971  12.248  0.4061 -1.5635 -0.0739
 8594TIP3    H247274   5.013   2.953  12.332  0.4480  0.0921  0.3903
 8595TIP3   OH247275   2.517   3.918  15.643  0.3497 -0.1775 -0.3268
 8595TIP3    H147276   2.564   3.843  15.606  0.9168  0.4542 -0.9281
 8595TIP3    H247277   2.431   3.884  15.666 -0.1438 -0.5487 -2.5236
 8596TIP3   OH247278   6.194   6.318  14.700 -0.5868  0.4673 -0.7616
 8596TIP3    H147279   6.279   6.359  14.714 -0.6896  0.5014 -0.2263
 8596TIP3    H247280   6.130   6.388  14.714 -0.8035 -0.0086  0.8924
 8597TIP3   OH247281   6.683   4.831   0.296  0.3750 -0.3216 -0.2694
 8597TIP3    H147282   6.647   4.853   0.210 -1.0871 -0.9510  0.1546
 8597TIP3    H247283   6.661   4.739   0.309  2.9415 -1.0261 -0.3381
 8598TIP3   OH247284   5.662   2.107  14.520 -0.1805 -0.2906 -0.1312
 8598TIP3    H147285   5.731   2.170  14.499  0.4009 -1.0796 -0.6909
 8598TIP3    H247286   5.652   2.112  14.615  0.2666  0.2283 -0.1073
 8599TIP3   OH247287   5.167   6.779  15.130 -0.3768  0.0317  0.1988
 8599TIP3    H147288   5.079   6.815  15.120  0.6354  3.1265  0.9969
 8599TIP3    H247289   5.179   6.770  15.225  0.7364  1.4770  0.2327
 8600TIP3   OH247290   4.434   0.094   1.049  0.4922  0.1278  0.1629
 8600TIP3    H147291   4.433   0.032   1.122 -2.2638  0.1289  0.2158
 8600TIP3    H247292   4.426   0.039   0.971  3.9264  0.0816 -0.3501
 8601TIP3   OH247293   6.385   5.069   3.119  0.3183  0.9121 -0.1562
 8601TIP3    H147294   6.476   5.089   3.095  0.3846  0.6120 -0.1578
 8601TIP3    H247295   6.390   4.984   3.163  0.4330  2.1604  2.4083
 8602TIP3   OH247296   1.636   6.825  16.549  0.4339  0.7370 -0.2608
 8602TIP3    H147297   1.703   6.830  16.618  0.4587 -1.3709 -0.0559
 8602TIP3    H247298   1.670   6.759  16.488 -1.1146  0.1432 -0.5216
 8603TIP3   OH247299   1.357   0.018   6.863 -0.0122  0.6561  0.3779
 8603TIP3    H147300   1.433   0.061   6.823 -0.3014 -0.0822 -0.9943
 8603TIP3    H247301   1.391  -0.066   6.894 -0.3078  0.2274 -0.4411
 8604TIP3   OH247302   0.905   2.595   1.038  0.2994  0.1557  0.4939
 8604TIP3    H147303   0.942   2.606   0.950 -1.9106  3.0521 -0.2110
 8604TIP3    H247304   0.925   2.677   1.083 -0.7700 -0.2952  1.8667
 8605TIP3   OH247305   5.877   3.375   4.491 -0.3255 -0.1883  0.7208
 8605TIP3    H147306   5.945   3.331   4.543  1.0594  1.2013  0.1612
 8605TIP3    H247307   5.921   3.400   4.410 -1.6971  0.1762  0.0512
 8606TIP3   OH247308   3.482   6.024  10.682  0.4568 -0.4662  0.2951
 8606TIP3    H147309   3.573   6.049  10.665  0.7912 -0.0652  2.3571
 8606TIP3    H247310   3.476   5.934  10.649  1.7494 -0.6723  0.5459
 8607TIP3   OH247311   4.485   2.591   4.203 -0.2005  0.1142  0.2528
 8607TIP3    H147312   4.426   2.571   4.275 -0.6375 -2.0246 -0.6357
 8607TIP3    H247313   4.439   2.658   4.152  0.6354  2.5633  2.5127
 8608TIP3   OH247314   5.626   2.376  11.325  0.3413  0.2185 -0.2789
 8608TIP3    H147315   5.589   2.291  11.350 -2.2391  1.1308 -0.6183
 8608TIP3    H247316   5.677   2.358  11.246 -0.2728 -0.9976 -0.4239
 8609TIP3   OH247317   5.889   6.430   3.120  0.1200  0.2672  0.6922
 8609TIP3    H147318   5.952   6.449   3.189  0.5211  0.2923  0.3247
 8609TIP3    H247319   5.858   6.342   3.140  1.6672 -0.5166 -0.1487
 8610TIP3   OH247320   3.544   1.247   2.389 -0.0892 -0.0892 -0.2925
 8610TIP3    H147321   3.562   1.192   2.312 -0.3358  1.1074 -1.2455
 8610TIP3    H247322   3.566   1.335   2.360 -2.4158  0.7266  0.2239
 8611TIP3   OH247323   1.137   6.167   2.870  0.0649  0.6067  0.0589
 8611TIP3    H147324   1.172   6.207   2.790 -0.7046  2.3247  0.5289
 8611TIP3    H247325   1.212   6.162   2.929  0.6515 -0.7350 -0.7690
 8612TIP3   OH247326   0.059   5.708  14.549  0.2144  0.6739  0.0986
 8612TIP3    H147327   0.051   5.705  14.453 -0.7421 -0.2740  0.1940
 8612TIP3    H247328  -0.009   5.649  14.581  0.5528  0.9426  1.3741
 8613TIP3   OH247329   6.722   3.862   6.515 -0.0303 -0.9027 -0.2313
 8613TIP3    H147330   6.761   3.798   6.573  0.2613 -1.4658 -1.0289
 8613TIP3    H247331   6.796   3.908   6.476 -0.2377  0.1551  0.5656
 8614TIP3   OH247332   1.538   3.129   6.541 -0.1154  0.0524 -0.0069
 8614TIP3    H147333   1.601   3.075   6.493 -0.6150 -2.3967  1.8902
 8614TIP3    H247334   1.518   3.201   6.481  1.5701 -1.1547 -2.1927
 8615TIP3   OH247335   1.247   1.347   2.520 -0.3610 -0.6587  0.3008
 8615TIP3    H147336   1.228   1.439   2.540  3.1016  0.2296  0.1178
 8615TIP3    H247337   1.242   1.303   2.605 -2.2748 -0.4045  0.3531
 8616TIP3   OH247338   3.622   2.500  13.639 -0.1676  0.2283 -0.4581
 8616TIP3    H147339   3.662   2.586  13.654  0.1927  0.0004 -0.1103
 8616TIP3    H247340   3.692   2.438  13.657 -0.6810 -0.1744  0.1863
 8617TIP3   OH247341   2.129   5.436   1.400 -0.1138 -0.0336 -0.3405
 8617TIP3    H147342   2.181   5.409   1.475  0.8632  0.9693 -0.6278
 8617TIP3    H247343   2.048   5.470   1.438 -1.3749 -3.1686  0.0323
 8618TIP3   OH247344   5.041   1.973   3.119  0.1884 -0.4253 -0.0766
 8618TIP3    H147345   5.101   2.047   3.114  0.1485 -0.3534  0.4743
 8618TIP3    H247346   5.049   1.941   3.209 -0.8698 -0.1853  0.1130
 8619TIP3   OH247347   3.733   1.653  11.251 -0.4186  0.1330  0.0791
 8619TIP3    H147348   3.737   1.686  11.341 -0.3881 -0.8476  0.4593
 8619TIP3    H247349   3.697   1.564  11.261  2.3628 -1.1578 -0.5301
 8620TIP3   OH247350   3.329   4.322  11.114 -0.2627  0.2611  0.0874
 8620TIP3    H147351   3.321   4.231  11.085  1.5616  0.9054 -2.8878
 8620TIP3    H247352   3.421   4.331  11.139 -0.6099  1.1190  1.1350
 8621TIP3   OH247353   4.282   0.209  16.181  0.1141  0.1252  0.3843
 8621TIP3    H147354   4.229   0.130  16.186 -1.1737  0.5993 -2.8074
 8621TIP3    H247355   4.372   0.178  16.176 -0.3988 -1.2530 -1.3243
 8622TIP3   OH247356   3.620   6.271   0.727  0.1165 -0.2695 -0.3578
 8622TIP3    H147357   3.690   6.279   0.791 -0.9532 -0.3327  0.8657
 8622TIP3    H247358   3.542   6.301   0.774 -0.5197  0.7364 -1.9744
 8623TIP3   OH247359   1.791   0.317   3.681 -0.1303 -0.0051  0.0462
 8623TIP3    H147360   1.713   0.316   3.736  0.3898 -1.3027  0.7869
 8623TIP3    H247361   1.761   0.355   3.598 -2.0847 -2.3414 -0.4435
 8624TIP3   OH247362   2.600   4.468  15.419  0.2370  0.2796  0.4405
 8624TIP3    H147363   2.529   4.527  15.394  1.0636  1.1186  0.0256
 8624TIP3    H247364   2.598   4.467  15.515 -0.4728  0.1186  0.4276
 8625TIP3   OH247365   6.789   1.264   3.858  0.0187  0.3112 -0.2152
 8625TIP3    H147366   6.843   1.214   3.920 -0.7398 -1.4495 -0.9034
 8625TIP3    H247367   6.700   1.255   3.892 -0.1909  0.7660 -0.6400
 8626TIP3   OH247368   5.477   2.109  12.615  0.1847  0.7558  0.0991
 8626TIP3    H147369   5.493   2.145  12.702  1.8400  1.1089 -0.3164
 8626TIP3    H247370   5.472   2.014  12.630  2.9007  0.5588  0.3414
 8627TIP3   OH247371   5.334   4.712  10.545 -0.0961 -0.6485 -0.1323
 8627TIP3    H147372   5.261   4.774  10.546  1.8101  1.7181 -0.1040
 8627TIP3    H247373   5.341   4.685  10.453 -0.6301 -0.4198 -0.2454
 8628TIP3   OH247374   2.690   6.290  13.513  0.0152 -0.0866 -0.5668
 8628TIP3    H147375   2.632   6.226  13.472 -1.0064  0.6054 -0.2743
 8628TIP3    H247376   2.662   6.374  13.476  1.6078  0.1669 -1.2617
 8629TIP3   OH247377   4.587   6.570   6.534  0.0531  0.3660 -0.4543
 8629TIP3    H147378   4.600   6.653   6.580 -0.4285  0.4301 -0.4375
 8629TIP3    H247379   4.510   6.531   6.574  0.4843 -0.2662 -0.2112
 8630TIP3   OH247380   6.762   1.963  15.920 -0.8668  0.3587  0.3973
 8630TIP3    H147381   6.737   1.871  15.926 -0.8687  0.4211  1.6031
 8630TIP3    H247382   6.857   1.960  15.905 -0.8132  0.1686  0.7739
 8631TIP3   OH247383   3.831   4.393   4.494 -0.1072 -0.4415 -0.1175
 8631TIP3    H147384   3.863   4.467   4.546 -1.5933  0.2150 -0.0694
 8631TIP3    H247385   3.746   4.372   4.532 -0.0889 -1.6241 -0.6843
 8632TIP3   OH247386   2.466   4.605  17.156  0.1028  0.4363  0.6135
 8632TIP3    H147387   2.434   4.667  17.221  2.6220  1.6434  0.8187
 8632TIP3    H247388   2.388   4.555  17.130 -1.7085  2.5543  1.6544
 8633TIP3   OH247389   5.563   4.061  16.420  0.2776 -0.0679  0.2238
 8633TIP3    H147390   5.591   4.029  16.506  1.0712 -0.9649 -0.3390
 8633TIP3    H247391   5.518   3.986  16.381  2.4523 -0.6930 -1.2608
 8634TIP3   OH247392   4.670   1.479  14.279 -0.1260 -0.7600  0.1245
 8634TIP3    H147393   4.713   1.517  14.356 -0.2944  1.6235 -0.8972
 8634TIP3    H247394   4.738   1.425  14.238  0.4928 -0.6590  0.9869
 8635TIP3   OH247395   3.871   5.328   1.283  0.5883  0.0302  0.6592
 8635TIP3    H147396   3.965   5.347   1.280  0.5880 -0.0875 -0.6999
 8635TIP3    H247397   3.833   5.405   1.326  1.1395  0.8284 -0.2358
 8636TIP3   OH247398   0.576   1.145  16.813 -0.3729  0.2844 -0.4088
 8636TIP3    H147399   0.605   1.210  16.749 -1.3925  0.7690 -0.4000
 8636TIP3    H247400   0.559   1.196  16.893 -0.9804 -0.0086 -0.3388
 8637TIP3   OH247401   6.043   1.961  15.823 -0.2356 -0.2549  0.2010
 8637TIP3    H147402   6.083   1.982  15.738  0.5993 -2.0442  0.1013
 8637TIP3    H247403   6.116   1.965  15.885 -0.5327 -0.4505  0.5666
 8638TIP3   OH247404   1.909   0.145  11.167  0.7278  0.1236  0.0793
 8638TIP3    H147405   1.851   0.129  11.092 -0.3565  0.3776  0.8560
 8638TIP3    H247406   1.917   0.240  11.171  0.1348  0.1503  0.7664
 8639TIP3   OH247407   5.787   3.903   5.498 -0.1545  0.3139  0.2146
 8639TIP3    H147408   5.845   3.892   5.423  1.3634 -1.2272  1.5188
 8639TIP3    H247409   5.834   3.961   5.558 -0.2936 -0.2978  0.9445
 8640TIP3   OH247410   0.918   6.285   3.555 -0.2046  0.6506  0.0540
 8640TIP3    H147411   0.996   6.306   3.504  0.2773 -0.8233  0.1329
 8640TIP3    H247412   0.934   6.326   3.640  1.8053 -1.8371  0.9960
 8641TIP3   OH247413   5.199   3.770  13.451  0.6950 -0.0408  0.3314
 8641TIP3    H147414   5.204   3.675  13.462 -1.4523 -0.1658  0.6074
 8641TIP3    H247415   5.281   3.802  13.488  2.8952 -1.9344 -2.4813
 8642TIP3   OH247416   4.539   1.422  17.029  0.1058  0.4922 -0.0056
 8642TIP3    H147417   4.591   1.501  17.042 -0.4958  0.8821  0.0766
 8642TIP3    H247418   4.537   1.379  17.114 -1.7917  1.7797  0.6538
 8643TIP3   OH247419   6.630   2.424  13.200 -0.4471 -0.1237 -0.6650
 8643TIP3    H147420   6.628   2.494  13.265 -1.5015  0.3729 -1.2026
 8643TIP3    H247421   6.671   2.463  13.123 -1.5747  0.0980 -1.1655
 8644TIP3   OH247422   5.761   5.502  12.995  0.2215 -0.0543 -0.6989
 8644TIP3    H147423   5.716   5.581  12.966  1.1127  0.7561  0.0591
 8644TIP3    H247424   5.846   5.532  13.026  0.5955 -1.3184 -0.4201
 8645TIP3   OH247425   4.907   3.906   2.067 -0.1965 -0.4164  0.0513
 8645TIP3    H147426   4.873   3.817   2.066  0.9098 -0.8778  0.9331
 8645TIP3    H247427   5.002   3.895   2.057 -0.1618  0.7437 -1.1577
 8646TIP3   OH247428   1.755   5.381   1.167  0.0143  0.5376  0.4420
 8646TIP3    H147429   1.703   5.439   1.222  0.0606  0.8200  0.1929
 8646TIP3    H247430   1.844   5.414   1.174  0.1276  0.1858  0.6985
 8647TIP3   OH247431   5.103   0.359   1.109  0.0397  0.0600 -0.2872
 8647TIP3    H147432   5.103   0.385   1.201  4.8161 -0.4131  0.0703
 8647TIP3    H247433   5.061   0.273   1.108 -0.1858  0.1126  1.4239
 8648TIP3   OH247434   3.953   4.288  13.008  0.2875  0.3894 -0.0648
 8648TIP3    H147435   3.875   4.272  13.062  0.6421 -0.1644  0.2926
 8648TIP3    H247436   3.949   4.382  12.988  1.6040  1.2823  3.2421
 8649TIP3   OH247437   6.081   0.403   4.386  0.2970  0.0514 -0.1119
 8649TIP3    H147438   6.134   0.481   4.405 -1.2154  1.0699  0.0834
 8649TIP3    H247439   6.044   0.421   4.300  0.9455 -1.0616 -0.6410
 8650TIP3   OH247440   2.573   5.831   4.748  0.2158  0.2626 -0.1409
 8650TIP3    H147441   2.614   5.794   4.826  1.3850  2.0797  0.1670
 8650TIP3    H247442   2.486   5.857   4.777  0.3171  0.1027  0.3189
 8651TIP3   OH247443   4.757   4.823  12.982 -0.0765  0.1845  0.4957
 8651TIP3    H147444   4.765   4.737  13.024 -0.4429  0.6945  1.6355
 8651TIP3    H247445   4.847   4.848  12.962  0.0692 -0.2421  0.6033
 8652TIP3   OH247446   1.689   4.540   6.006 -0.1029 -0.1185 -0.0805
 8652TIP3    H147447   1.677   4.633   5.987  1.3201  0.2476  0.6959
 8652TIP3    H247448   1.610   4.498   5.972  0.6380  0.9217 -3.4235
 8653TIP3   OH247449   5.724   6.344  16.210 -0.7207 -0.4348  0.0942
 8653TIP3    H147450   5.807   6.355  16.164 -1.4042  0.0187 -1.0784
 8653TIP3    H247451   5.687   6.263  16.175  0.0672 -1.7052  2.0148
 8654TIP3   OH247452   4.282   5.612   1.319  0.2066  0.3162  0.6156
 8654TIP3    H147453   4.234   5.530   1.303  2.4996 -0.7375 -1.3700
 8654TIP3    H247454   4.223   5.681   1.288 -0.6257 -0.8039 -0.3547
 8655TIP3   OH247455   0.254   2.824  13.322 -0.7255  0.0348 -0.6692
 8655TIP3    H147456   0.302   2.857  13.247  0.3119 -0.3641 -0.2136
 8655TIP3    H247457   0.284   2.877  13.396 -0.1113 -0.9512 -0.1810
 8656TIP3   OH247458   1.926   3.540  12.090  0.3323 -0.2938 -0.4704
 8656TIP3    H147459   1.942   3.476  12.159 -0.0603  1.5204  1.4146
 8656TIP3    H247460   2.013   3.570  12.064  0.4630  0.6649  0.9446
 8657TIP3   OH247461   2.934   5.826  12.456 -0.6489  0.0695  0.4380
 8657TIP3    H147462   2.981   5.824  12.539  0.2114  1.0456 -0.0097
 8657TIP3    H247463   2.973   5.899  12.408 -1.3494 -0.2857 -0.7014
 8658TIP3   OH247464   2.769   1.234  12.266  0.0699 -0.0895 -0.2401
 8658TIP3    H147465   2.793   1.307  12.322  0.9864 -0.2515 -0.4067
 8658TIP3    H247466   2.675   1.222  12.281 -0.1266  1.2319 -0.3647
 8659TIP3   OH247467   3.974   0.062  12.980 -0.0509  0.3941  0.0943
 8659TIP3    H147468   3.942   0.074  13.069  0.4297  1.2302  0.1641
 8659TIP3    H247469   4.054   0.010  12.990  1.2394  2.3368  0.3920
 8660TIP3   OH247470   0.087   4.246  15.954 -0.1905  0.0940 -0.5499
 8660TIP3    H147471   0.051   4.319  15.904  0.3759  1.4343  0.8977
 8660TIP3    H247472   0.011   4.198  15.986 -0.5682 -0.0867 -1.6646
 8661TIP3   OH247473   3.983   2.072   3.421  0.5569  0.1517  0.2884
 8661TIP3    H147474   4.056   2.087   3.480  0.0688 -2.1445  1.6033
 8661TIP3    H247475   3.911   2.124   3.457  0.3085 -1.1109  1.6755
 8662TIP3   OH247476   1.538   5.245  14.826 -0.0485  0.2498 -0.0134
 8662TIP3    H147477   1.457   5.207  14.861 -0.1855  0.4110 -0.1513
 8662TIP3    H247478   1.573   5.296  14.899 -0.8402  1.3754 -0.3921
 8663TIP3   OH247479   0.615   2.691   1.372  0.1746 -0.2140 -0.5426
 8663TIP3    H147480   0.541   2.739   1.409  0.0098 -1.4490  0.8393
 8663TIP3    H247481   0.581   2.653   1.291 -1.4170 -2.3753  1.0007
 8664TIP3   OH247482   0.860   2.745  15.548 -0.7143 -0.0906 -0.3304
 8664TIP3    H147483   0.800   2.701  15.488 -0.2884  0.7248 -1.3888
 8664TIP3    H247484   0.818   2.829  15.567  0.3033  0.7468 -1.5491
 8665TIP3   OH247485   3.330   1.710  16.598 -0.1771 -0.1016 -0.0487
 8665TIP3    H147486   3.262   1.725  16.663 -0.1466  0.6111 -0.1739
 8665TIP3    H247487   3.283   1.674  16.522 -0.4162  0.3710 -0.1279
 8666TIP3   OH247488   4.862   3.232   1.406 -0.4383 -0.2630  0.1752
 8666TIP3    H147489   4.798   3.283   1.357 -0.2735  0.6218  0.8475
 8666TIP3    H247490   4.810   3.173   1.461 -0.6269 -1.0037 -0.7672
 8667TIP3   OH247491   4.115   5.557   5.594 -0.2173  0.0310  0.4486
 8667TIP3    H147492   4.077   5.644   5.584  1.2264  1.1474  3.4741
 8667TIP3    H247493   4.207   5.568   5.572 -0.0765 -0.8319  0.5586
 8668TIP3   OH247494   5.652   0.704   3.264  0.2586 -0.3674  0.5349
 8668TIP3    H147495   5.726   0.712   3.204  1.3404  0.6183  1.9352
 8668TIP3    H247496   5.692   0.695   3.351 -1.2679 -0.5108  1.2557
 8669TIP3   OH247497   1.716   2.178   3.083  0.3022 -0.2643 -0.1601
 8669TIP3    H147498   1.766   2.120   3.140 -0.0637 -0.5829 -0.1567
 8669TIP3    H247499   1.779   2.212   3.020  1.2551  1.9473  1.8359
 8670TIP3   OH247500   4.648   3.759  11.513 -0.3052 -0.6215  0.3223
 8670TIP3    H147501   4.577   3.821  11.499 -1.6301 -1.6101  2.1436
 8670TIP3    H247502   4.715   3.810  11.559  0.3327  0.3884 -1.6527
 8671TIP3   OH247503   2.615   4.972   1.401 -0.7388 -0.3516  0.2020
 8671TIP3    H147504   2.539   4.953   1.346  0.5099 -2.0821 -1.0217
 8671TIP3    H247505   2.628   4.893   1.453  0.9954 -0.6225 -0.5873
 8672TIP3   OH247506   3.665   3.734   4.674 -0.4466  0.1039 -0.1455
 8672TIP3    H147507   3.582   3.705   4.635 -0.5918  0.4229 -0.0770
 8672TIP3    H247508   3.639   3.796   4.742 -0.1459  0.2899 -0.1991
 8673TIP3   OH247509   0.490   5.119  15.682  0.3726 -0.4477 -0.1843
 8673TIP3    H147510   0.396   5.120  15.662  0.5465  1.3135 -1.0850
 8673TIP3    H247511   0.495   5.130  15.777 -0.3321 -1.4185 -0.0241
 8674TIP3   OH247512   1.951   6.639  14.452  0.0770  0.6796 -0.3725
 8674TIP3    H147513   2.010   6.675  14.386 -1.4758  2.4079 -0.8811
 8674TIP3    H247514   1.940   6.709  14.516 -2.1755  0.8043 -0.8230
 8675TIP3   OH247515   5.892   6.335   4.093  0.1296  0.4518 -0.0728
 8675TIP3    H147516   5.901   6.413   4.147 -1.1153  0.4618  0.1511
 8675TIP3    H247517   5.924   6.362   4.007 -0.9186  1.4217 -0.1779
 8676TIP3   OH247518   4.559   3.462  16.161 -0.1694 -0.8732 -0.6110
 8676TIP3    H147519   4.539   3.552  16.189  1.4099 -1.1657  1.7818
 8676TIP3    H247520   4.654   3.461  16.151  0.0641 -2.6404  1.0767
 8677TIP3   OH247521   1.620   2.952  15.244 -0.1362 -0.1429  0.3649
 8677TIP3    H147522   1.576   2.910  15.318 -0.6352 -0.1980  0.0375
 8677TIP3    H247523   1.699   2.900  15.231 -0.5837 -0.7974  0.1727
 8678TIP3   OH247524   1.671   2.840  11.210 -0.1267 -0.1495  0.1171
 8678TIP3    H147525   1.678   2.887  11.127  0.0984  0.2053  0.3358
 8678TIP3    H247526   1.652   2.907  11.275  1.3240 -0.1780  0.6215
 8679TIP3   OH247527   3.238   4.345  15.358 -0.0876 -0.4255  0.6236
 8679TIP3    H147528   3.195   4.273  15.311  0.7287 -0.1425 -0.6083
 8679TIP3    H247529   3.216   4.330  15.450 -0.5908 -1.7972  0.3071
 8680TIP3   OH247530   2.164   4.590   0.902  0.0050 -0.0515 -0.1913
 8680TIP3    H147531   2.071   4.607   0.885 -0.3715 -0.5410  1.1944
 8680TIP3    H247532   2.184   4.513   0.850 -0.2147  0.3848 -0.9303
 8681TIP3   OH247533   0.656   2.661  16.150 -0.0628  0.1644  0.6851
 8681TIP3    H147534   0.640   2.570  16.124 -0.7786 -0.0631  1.8406
 8681TIP3    H247535   0.679   2.705  16.069 -1.3823 -0.6885 -0.1995
 8682TIP3   OH247536   4.287   2.702   1.807 -0.2783 -0.1654 -0.4170
 8682TIP3    H147537   4.322   2.644   1.875 -1.8134  0.7069  1.2070
 8682TIP3    H247538   4.359   2.761   1.787 -0.0582  0.1631  1.1844
 8683TIP3   OH247539   6.106   2.764  16.464  0.3625  0.2003  0.2988
 8683TIP3    H147540   6.130   2.719  16.545 -0.0733  0.4642  0.5756
 8683TIP3    H247541   6.190   2.786  16.423  0.5888  0.5433  0.9401
 8684TIP3   OH247542   6.806   0.821  14.179  0.4758 -0.2336  0.1280
 8684TIP3    H147543   6.766   0.899  14.216  2.4371  0.3317  1.1990
 8684TIP3    H247544   6.817   0.762  14.254  1.4954 -0.4288 -0.1626
 8685TIP3   OH247545   5.661   1.287  15.488  0.0751 -0.2278 -0.1620
 8685TIP3    H147546   5.648   1.349  15.417  1.5508 -0.3924 -0.6058
 8685TIP3    H247547   5.754   1.266  15.485  0.8016  1.6749  3.3691
 8686TIP3   OH247548   0.272   4.437  16.519  0.7036  0.3809 -0.2197
 8686TIP3    H147549   0.252   4.408  16.430 -1.3095 -0.5412  0.4776
 8686TIP3    H247550   0.341   4.378  16.549 -1.1423 -1.7257  0.0719
 8687TIP3   OH247551   3.126   6.370   4.078 -0.0556  0.3731  0.0169
 8687TIP3    H147552   3.180   6.367   3.999 -1.0085 -0.7424 -0.6268
 8687TIP3    H247553   3.055   6.430   4.056 -1.6475 -1.7265 -0.9183
 8688TIP3   OH247554   6.660   0.680  13.914 -0.6892  0.3969  0.1595
 8688TIP3    H147555   6.737   0.730  13.941 -1.0435  0.7777  0.4814
 8688TIP3    H247556   6.595   0.747  13.892 -0.3383  0.1165 -1.9275
 8689TIP3   OH247557   1.313   2.744   2.581  0.0011  0.7222  0.3610
 8689TIP3    H147558   1.373   2.787   2.642  2.0464 -0.4113 -0.7424
 8689TIP3    H247559   1.343   2.770   2.494 -0.9997 -0.0219 -0.2413
 8690TIP3   OH247560   1.859   6.417  16.924  0.0389  0.4756 -0.3042
 8690TIP3    H147561   1.799   6.480  16.887 -0.2239  0.1022 -0.5217
 8690TIP3    H247562   1.946   6.447  16.897 -0.1789 -0.1078 -1.7306
 8691TIP3   OH247563   1.208   1.431  13.391 -0.1954  0.2040 -0.4423
 8691TIP3    H147564   1.215   1.390  13.477  1.6827 -1.2225 -1.1873
 8691TIP3    H247565   1.291   1.408  13.348 -0.9255  1.2064 -2.4778
 8692TIP3   OH247566   4.278   3.598  16.390 -0.0391 -0.0066  0.2588
 8692TIP3    H147567   4.332   3.636  16.320 -1.3885  0.5329 -0.5210
 8692TIP3    H247568   4.333   3.528  16.426 -0.4277 -2.5747 -3.5562
 8693TIP3   OH247569   6.462   5.292  10.589 -0.1999 -0.7441  0.0751
 8693TIP3    H147570   6.536   5.353  10.588 -1.3368  0.8932  3.0421
 8693TIP3    H247571   6.489   5.222  10.649 -0.5546 -0.8359  0.1302
 8694TIP3   OH247572   0.650   4.971   3.313  0.0733 -0.2862 -0.4766
 8694TIP3    H147573   0.700   5.026   3.373  2.0076 -1.3595 -1.0375
 8694TIP3    H247574   0.562   4.968   3.352  0.2142  2.1446  0.2088
 8695TIP3   OH247575   1.659   4.760   0.468  0.2263  0.5440  0.4522
 8695TIP3    H147576   1.723   4.692   0.449  1.0893  1.5898 -0.4725
 8695TIP3    H247577   1.577   4.727   0.431  0.8261  0.3713 -0.7638
 8696TIP3   OH247578   6.283   5.099  11.572  0.4676  0.2069  0.4705
 8696TIP3    H147579   6.311   5.080  11.483 -2.2440 -3.5780  0.1987
 8696TIP3    H247580   6.197   5.140  11.561  0.0576 -0.4064  1.3348
 8697TIP3   OH247581   1.330   6.765   5.178 -0.5103  0.3563 -0.0107
 8697TIP3    H147582   1.341   6.682   5.133 -1.3924 -0.6929  1.6095
 8697TIP3    H247583   1.353   6.831   5.113  1.0010 -1.1578 -1.1077
 8698TIP3   OH247584   2.674   1.270  13.212  0.5058 -0.4143 -0.3235
 8698TIP3    H147585   2.726   1.322  13.151  0.7523 -0.7521 -0.4045
 8698TIP3    H247586   2.618   1.334  13.256  0.4510 -0.1457 -0.7747
 8699TIP3   OH247587   1.397   4.706   1.906 -0.5074 -0.0013  0.4740
 8699TIP3    H147588   1.443   4.628   1.876 -1.1750  0.5387 -2.2271
 8699TIP3    H247589   1.461   4.777   1.895 -0.6375  0.1577  0.7308
 8700TIP3   OH247590   5.582   1.698   3.673 -0.0441 -0.0841 -0.1273
 8700TIP3    H147591   5.554   1.706   3.582 -0.6696 -0.4091  0.0252
 8700TIP3    H247592   5.595   1.604   3.686 -2.2658 -0.3456  0.7453
 8701TIP3   OH247593   3.968   3.155  15.603  0.2198  0.1020  0.3795
 8701TIP3    H147594   3.940   3.112  15.522 -0.5077  0.2687  0.5269
 8701TIP3    H247595   3.887   3.166  15.653  1.0058 -2.8096  2.5233
 8702TIP3   OH247596   1.344   5.281  14.320 -0.7678  0.3467 -0.0178
 8702TIP3    H147597   1.307   5.268  14.233 -1.5032  1.5538  0.0933
 8702TIP3    H247598   1.333   5.197  14.364  1.2971 -0.8862 -1.6672
 8703TIP3   OH247599   5.338   0.949   0.425 -0.0895  0.0348  0.0308
 8703TIP3    H147600   5.310   0.968   0.336  2.3604 -2.0836 -1.3263
 8703TIP3    H247601   5.325   0.854   0.435  4.3960 -0.8322 -0.1330
 8704TIP3   OH247602   2.753   3.289   1.337  0.2369  0.2005  0.2272
 8704TIP3    H147603   2.835   3.338   1.326  0.8512 -0.5190  1.4216
 8704TIP3    H247604   2.781   3.200   1.358 -0.8529 -0.1259  0.3339
 8705TIP3   OH247605   0.975   2.876   1.130 -0.1055 -0.1349 -0.3909
 8705TIP3    H147606   1.048   2.899   1.072  0.0944 -0.4206 -0.2529
 8705TIP3    H247607   0.912   2.947   1.118 -0.2740 -0.4305 -1.3131
 8706TIP3   OH247608   4.518   1.410   0.743 -0.0684 -0.6982  0.4463
 8706TIP3    H147609   4.538   1.325   0.783 -1.1548 -0.3282  1.8721
 8706TIP3    H247610   4.455   1.389   0.674  2.1454 -1.3981 -1.5193
 8707TIP3   OH247611   1.176   2.170   2.829  0.2698 -0.4850 -0.0537
 8707TIP3    H147612   1.108   2.188   2.894  0.0513 -0.9240 -0.1577
 8707TIP3    H247613   1.211   2.257   2.806  0.8957 -0.3655  1.2235
 8708TIP3   OH247614   6.298   4.579  13.302 -0.8701 -0.1833 -0.7290
 8708TIP3    H147615   6.357   4.625  13.242  0.2544 -1.0915 -0.3571
 8708TIP3    H247616   6.334   4.597  13.389 -0.4232 -1.7050 -0.5755
 8709TIP3   OH247617   4.327   5.713   5.472 -0.1453 -0.1001  0.2442
 8709TIP3    H147618   4.294   5.787   5.522  0.1811  0.6577 -0.6419
 8709TIP3    H247619   4.408   5.687   5.517 -0.8853 -0.7094  1.2583
 8710TIP3   OH247620   2.003   6.211  15.759 -0.5581 -0.4622 -0.5256
 8710TIP3    H147621   2.011   6.231  15.666  0.3567 -0.8213 -0.5391
 8710TIP3    H247622   2.073   6.148  15.776  0.5425  1.0446  0.8084
 8711TIP3   OH247623   1.106   0.002  15.673 -0.4477 -0.6134 -0.3813
 8711TIP3    H147624   1.078  -0.067  15.733  0.0184 -0.5635 -0.1076
 8711TIP3    H247625   1.047  -0.007  15.598 -1.8473  0.1022  0.5949
 8712TIP3   OH247626   0.960   5.744  12.509 -0.1673 -0.0226 -0.4162
 8712TIP3    H147627   0.995   5.825  12.545 -0.2461 -0.3834  0.4868
 8712TIP3    H247628   0.887   5.721  12.567  0.2200 -1.0463 -0.3211
 8713TIP3   OH247629   2.478   3.361   1.257  0.4899  0.0524  0.0386
 8713TIP3    H147630   2.570   3.353   1.283  0.4731  1.3743  0.5522
 8713TIP3    H247631   2.430   3.313   1.324  0.7905 -0.6019 -0.2046
 8714TIP3   OH247632   0.165   1.623  14.632 -0.1296 -0.0735  0.3527
 8714TIP3    H147633   0.152   1.640  14.725 -0.9597  0.7166  0.1099
 8714TIP3    H247634   0.223   1.546  14.629 -1.2381 -0.9962  1.5195
 8715TIP3   OH247635   1.556   5.167  15.805 -0.6400 -0.4727 -0.8510
 8715TIP3    H147636   1.502   5.120  15.741 -0.4207  1.6134 -2.7061
 8715TIP3    H247637   1.644   5.165  15.767 -0.6970  1.6987 -1.2129
 8716TIP3   OH247638   3.417   4.858  14.486 -0.4465 -0.0314  0.1897
 8716TIP3    H147639   3.491   4.802  14.510 -1.5476 -1.4120  0.5513
 8716TIP3    H247640   3.456   4.942  14.462  1.1549 -0.4772  1.1242
 8717TIP3   OH247641   2.152   6.354   0.838  0.1850  1.0251  0.0483
 8717TIP3    H147642   2.206   6.282   0.871  1.5929  1.6974 -0.7276
 8717TIP3    H247643   2.102   6.383   0.914  0.3395 -0.1130  0.6078
 8718TIP3   OH247644   1.624   0.263  15.555 -0.2350  0.0243  0.2876
 8718TIP3    H147645   1.529   0.272  15.550 -0.5288 -1.6622  1.9113
 8718TIP3    H247646   1.657   0.334  15.500 -2.4068  1.2226  0.3974
 8719TIP3   OH247647   5.626   3.521  17.033 -0.0854  0.2413  0.1840
 8719TIP3    H147648   5.647   3.471  16.954 -0.2116  1.4359 -0.6256
 8719TIP3    H247649   5.569   3.592  17.003  0.4474  1.1501  1.2264
 8720TIP3   OH247650   5.949   6.517  14.706  0.7038  0.1282  0.1465
 8720TIP3    H147651   5.924   6.606  14.684  0.4466 -0.1681 -0.7732
 8720TIP3    H247652   5.907   6.501  14.791 -0.0245  0.5527 -0.1274
 8721TIP3   OH247653   2.397   5.488  15.477 -0.1624 -0.1524  0.6318
 8721TIP3    H147654   2.345   5.431  15.422  0.1246 -0.1026  0.3078
 8721TIP3    H247655   2.351   5.572  15.475  1.2119  0.6569 -1.6967
 8722TIP3   OH247656   5.551   4.197  11.317 -0.1924  0.6031 -0.9963
 8722TIP3    H147657   5.646   4.191  11.303 -0.3638 -0.3900 -1.8585
 8722TIP3    H247658   5.542   4.238  11.403  1.0451 -0.2804 -0.4155
 8723TIP3   OH247659   3.288   6.280  11.630  0.3175 -0.5824 -0.2871
 8723TIP3    H147660   3.195   6.296  11.644  0.6414  0.3018  1.0324
 8723TIP3    H247661   3.325   6.272  11.718  1.8339  1.3076 -0.6704
 8724TIP3   OH247662   0.601   1.277  12.574 -0.1246  0.0715  0.2962
 8724TIP3    H147663   0.586   1.208  12.638 -0.8046  1.9325  2.2625
 8724TIP3    H247664   0.696   1.284  12.569 -0.0188 -1.4033 -0.4561
 8725TIP3   OH247665   4.201   2.544  17.041  0.5022 -0.5215 -0.1276
 8725TIP3    H147666   4.200   2.467  16.984 -3.9236 -2.3409  1.9271
 8725TIP3    H247667   4.134   2.601  17.005  0.6225  0.2863  0.8810
 8726TIP3   OH247668   6.564   6.125   1.107  0.4286 -0.1073 -0.5843
 8726TIP3    H147669   6.592   6.095   1.020  0.2157 -0.3740 -0.5609
 8726TIP3    H247670   6.609   6.067   1.168  0.5090  0.0242 -0.5174
 8727TIP3   OH247671   6.183   3.611  13.519  0.0325  0.0382  0.1980
 8727TIP3    H147672   6.147   3.540  13.466  0.6923 -1.0920  1.1988
 8727TIP3    H247673   6.112   3.675  13.526 -0.8518 -0.8837 -0.0833
 8728TIP3   OH247674   2.378   0.277  16.286 -0.2735 -0.1014 -0.3086
 8728TIP3    H147675   2.424   0.217  16.345 -1.2109 -1.9796 -1.3726
 8728TIP3    H247676   2.329   0.334  16.344 -1.9007 -2.4828  0.8401
 8729TIP3   OH247677   0.450   6.386   6.120 -0.2476  0.1507 -0.0725
 8729TIP3    H147678   0.440   6.299   6.157  1.4597 -0.1289 -0.2009
 8729TIP3    H247679   0.479   6.441   6.193 -2.7441  1.0100  0.3744
 8730TIP3   OH247680   0.024   0.246  16.050  0.3704 -0.2084 -0.0516
 8730TIP3    H147681   0.001   0.153  16.057  0.6281 -0.1407  2.3737
 8730TIP3    H247682   0.120   0.246  16.047  0.3528 -0.0579 -1.8309
 8731TIP3   OH247683   1.841   0.051  13.888 -0.2726 -0.0376  0.0166
 8731TIP3    H147684   1.897   0.125  13.867 -1.7500  1.2909  0.4968
 8731TIP3    H247685   1.775   0.050  13.818 -0.8133 -0.2953  0.5155
 8732TIP3   OH247686   3.512   2.981  14.695 -0.5854 -0.2721 -0.5767
 8732TIP3    H147687   3.551   2.986  14.782  0.6496 -0.5710 -1.0881
 8732TIP3    H247688   3.545   3.060  14.650 -0.1764 -0.7646 -1.1617
 8733TIP3   OH247689   6.810   3.585   6.532 -0.0607  0.1299  0.3587
 8733TIP3    H147690   6.864   3.524   6.481  0.0101  1.0463 -0.7001
 8733TIP3    H247691   6.720   3.563   6.507 -0.1656 -0.8068  1.4560
 8734TIP3   OH247692   5.804   0.855  11.029 -0.0097  0.8719  0.2841
 8734TIP3    H147693   5.722   0.815  10.999  0.4353 -0.7468  1.1156
 8734TIP3    H247694   5.870   0.821  10.970  0.3304  0.5989  0.8092
 8735TIP3   OH247695   2.976   4.975   0.376 -0.4523 -0.1035  0.0306
 8735TIP3    H147696   3.068   4.963   0.351  0.2292  0.4778  2.0697
 8735TIP3    H247697   2.935   5.013   0.299  0.7136 -1.4881 -1.3442
 8736TIP3   OH247698   0.385   6.658  11.534  0.3231 -0.1991  0.5411
 8736TIP3    H147699   0.385   6.682  11.441 -2.1214 -0.5215  0.3633
 8736TIP3    H247700   0.384   6.741  11.581 -1.0126  0.0432  0.1467
 8737TIP3   OH247701   2.969   2.409   4.589 -0.5931  0.3364  0.0072
 8737TIP3    H147702   2.876   2.408   4.566 -0.6028 -1.6697 -0.0580
 8737TIP3    H247703   2.969   2.424   4.684 -1.0117 -0.0659  0.0779
 8738TIP3   OH247704   4.441   3.056   5.436  0.0405 -0.4475  0.3279
 8738TIP3    H147705   4.404   2.986   5.491  0.2426  0.5347  1.7657
 8738TIP3    H247706   4.390   3.052   5.355 -3.9759  1.4215  2.4986
 8739TIP3   OH247707   0.321   1.482  16.407 -0.3356 -0.0620  0.0233
 8739TIP3    H147708   0.404   1.523  16.386 -0.7162  1.4386  1.2517
 8739TIP3    H247709   0.334   1.390  16.387  1.8704 -0.0018  0.9102
 8740TIP3   OH247710   2.476   5.578  16.122 -0.2945 -0.0564 -0.5088
 8740TIP3    H147711   2.487   5.483  16.118  1.7360  0.1513 -2.2592
 8740TIP3    H247712   2.560   5.613  16.090 -1.2608  2.3138 -0.6850
 8741TIP3   OH247713   1.912   5.024  13.971 -0.1298  0.5698  0.2722
 8741TIP3    H147714   1.978   5.022  14.040  0.3706 -0.6326 -0.2046
 8741TIP3    H247715   1.864   5.105  13.985  0.9187  1.0573  1.1349
 8742TIP3   OH247716   4.721   6.575  16.749 -0.0855  0.1150  0.1439
 8742TIP3    H147717   4.776   6.596  16.825  0.8372 -0.2714 -0.4029
 8742TIP3    H247718   4.722   6.655  16.697  0.1961  0.0232  0.0027
 8743TIP3   OH247719   6.524   3.517   1.352 -0.7099 -0.2950  0.0229
 8743TIP3    H147720   6.478   3.547   1.430  1.7813 -1.3031  2.0092
 8743TIP3    H247721   6.555   3.598   1.311 -1.0969  0.2023  0.6754
 8744TIP3   OH247722   0.154   2.123   0.396  0.2142  0.6710  0.1302
 8744TIP3    H147723   0.173   2.202   0.346  0.6073  0.3602 -0.2161
 8744TIP3    H247724   0.095   2.072   0.340 -0.7035  1.0757  0.6926
 8745TIP3   OH247725   2.167   3.788  14.313 -0.3971  0.2773  0.1458
 8745TIP3    H147726   2.212   3.703  14.321 -0.0802  0.5698  1.8446
 8745TIP3    H247727   2.209   3.829  14.238  0.5528 -0.4379  0.2576
 8746TIP3   OH247728   6.174   5.492   0.765  0.3846  0.1079  0.0407
 8746TIP3    H147729   6.105   5.436   0.729 -0.2319 -0.2525  1.6889
 8746TIP3    H247730   6.239   5.499   0.694 -1.1391  0.1455 -1.4044
 8747TIP3   OH247731   2.018   6.154   1.488 -0.1598 -0.5932 -0.7550
 8747TIP3    H147732   2.006   6.060   1.473  0.9169 -0.9896  0.5849
 8747TIP3    H247733   2.111   6.169   1.468  0.0856 -0.1759  0.5873
 8748TIP3   OH247734   1.505   6.293  12.448 -0.0247  0.2909 -0.1957
 8748TIP3    H147735   1.514   6.340  12.531 -0.7246 -1.3422  0.8803
 8748TIP3    H247736   1.431   6.335  12.405 -0.3300  0.4927  0.5040
 8749TIP3   OH247737   2.748   4.786   6.654 -0.2401 -0.6356  0.4124
 8749TIP3    H147738   2.672   4.825   6.697 -1.4386 -2.1293 -0.2405
 8749TIP3    H247739   2.768   4.846   6.582 -1.7680 -0.9439 -0.3136
 8750TIP3   OH247740   3.835   4.471   3.921 -0.7396 -0.5415  0.0394
 8750TIP3    H147741   3.889   4.429   3.854  0.5557  0.6026  0.3131
 8750TIP3    H247742   3.787   4.399   3.962  0.1941 -1.5477 -0.5629
 8751TIP3   OH247743   5.596   2.934  12.648  0.1120 -0.3354  0.2940
 8751TIP3    H147744   5.605   2.845  12.615  0.3235  0.1626 -1.0588
 8751TIP3    H247745   5.502   2.945  12.663  0.2564 -1.3635  2.2450
 8752TIP3   OH247746   0.597   4.039  16.509 -0.5206  0.0773 -0.1419
 8752TIP3    H147747   0.506   4.034  16.480 -0.5743 -0.5540  0.1155
 8752TIP3    H247748   0.592   4.030  16.605 -0.0524 -2.1324 -0.2684
 8753TIP3   OH247749   4.187   0.612   3.115  0.0621  0.3306 -0.3053
 8753TIP3    H147750   4.114   0.660   3.078 -2.3785 -1.2763  2.0603
 8753TIP3    H247751   4.163   0.520   3.105  2.1664 -0.2949 -0.1579
 8754TIP3   OH247752   1.822   5.692   1.275  0.3820 -0.2509  0.2387
 8754TIP3    H147753   1.898   5.659   1.227  0.5301 -0.8443  0.8619
 8754TIP3    H247754   1.858   5.759   1.334  0.3101 -0.0197  0.0190
 8755TIP3   OH247755   5.967   3.564   6.228 -0.0328 -0.1378 -0.0134
 8755TIP3    H147756   5.958   3.640   6.285 -1.3324 -0.8468  0.7745
 8755TIP3    H247757   6.040   3.515   6.265  0.2384  0.2683 -0.0015
 8756TIP3   OH247758   1.666   4.516  11.204  0.0605  0.0316  0.7384
 8756TIP3    H147759   1.723   4.524  11.127 -0.3924 -2.7299  0.0146
 8756TIP3    H247760   1.583   4.484  11.170 -0.2441 -1.0081  2.3240
 8757TIP3   OH247761   4.986   5.077   0.265 -0.6073  0.3939 -0.0727
 8757TIP3    H147762   5.010   5.022   0.190  0.5342 -1.0080  1.2476
 8757TIP3    H247763   4.908   5.034   0.302  1.2639 -1.5477  1.9878
 8758TIP3   OH247764   0.194   5.779  12.789  0.1472  0.1437 -0.7265
 8758TIP3    H147765   0.100   5.765  12.781  0.2079 -1.3948  0.7689
 8758TIP3    H247766   0.203   5.849  12.853  0.0208  1.4589 -2.0964
 8759TIP3   OH247767   3.142   3.404  13.176  0.0747 -0.1861 -0.0443
 8759TIP3    H147768   3.123   3.315  13.146 -1.4234  0.2076 -0.3401
 8759TIP3    H247769   3.142   3.456  13.096  1.7470 -0.0244  0.0332
 8760TIP3   OH247770   5.151   4.076   1.992 -0.0741 -0.2737  0.4464
 8760TIP3    H147771   5.146   3.989   1.952  0.7328 -0.6826  1.1856
 8760TIP3    H247772   5.186   4.059   2.080  1.1227  0.8956  0.2230
 8761TIP3   OH247773   1.876   2.898  16.653 -0.3278  0.0673  0.2386
 8761TIP3    H147774   1.830   2.818  16.625 -2.2304  0.9313  0.7457
 8761TIP3    H247775   1.846   2.966  16.593  0.2143  0.7001  0.6671
 8762TIP3   OH247776   0.757   2.423   2.437 -0.1962 -0.1410  0.0240
 8762TIP3    H147777   0.694   2.364   2.394 -1.6624  2.2634 -1.3486
 8762TIP3    H247778   0.781   2.486   2.369  0.0131  1.8312  1.8370
 8763TIP3   OH247779   0.832   3.581  15.765  0.3865 -0.6102 -0.2825
 8763TIP3    H147780   0.910   3.526  15.764  2.1048  1.7030 -0.7886
 8763TIP3    H247781   0.865   3.670  15.754 -2.2961  0.5196  0.0743
 8764TIP3   OH247782   1.446   3.362  14.294  0.2611 -0.0359  0.5800
 8764TIP3    H147783   1.541   3.366  14.306  0.4143  0.2112 -0.6314
 8764TIP3    H247784   1.418   3.453  14.289 -0.4108  0.0027  3.3831
 8765TIP3   OH247785   4.535   5.668   4.970 -0.2938  0.8558  0.0502
 8765TIP3    H147786   4.539   5.694   5.062 -0.1045  1.6007 -0.1592
 8765TIP3    H247787   4.622   5.687   4.936 -1.0855  3.0730 -0.9074
 8766TIP3   OH247788   0.336   6.320  15.080 -0.0984  0.0735  0.2596
 8766TIP3    H147789   0.280   6.351  15.009 -2.6638 -1.2984  1.5442
 8766TIP3    H247790   0.410   6.278  15.036 -1.0889  0.1494 -1.5729
 8767TIP3   OH247791   1.060   1.702   1.177  0.2587  0.5155  0.1262
 8767TIP3    H147792   0.973   1.727   1.209  1.0383  1.4953  1.6174
 8767TIP3    H247793   1.070   1.750   1.094 -0.9434 -0.3012 -0.5087
 8768TIP3   OH247794   3.978   5.609   0.203  0.0984 -0.3459  0.0675
 8768TIP3    H147795   4.012   5.694   0.232 -0.0982 -0.0880 -0.4380
 8768TIP3    H247796   3.951   5.624   0.113  0.0479 -0.9473 -0.0201
 8769TIP3   OH247797   5.916   6.383  16.887 -0.4842 -0.1332 -0.1604
 8769TIP3    H147798   5.952   6.451  16.831  0.8906 -0.9604 -0.3244
 8769TIP3    H247799   5.972   6.383  16.965 -1.1258 -0.3586  0.3203
 8770TIP3   OH247800   1.301   3.088   6.335  0.5541  0.5196  0.1317
 8770TIP3    H147801   1.283   3.084   6.428  3.5405 -0.4642  0.7756
 8770TIP3    H247802   1.350   3.169   6.323  1.9318 -0.3249 -0.1656
 8771TIP3   OH247803   5.036   6.621  12.642  0.7226 -0.0453  0.5103
 8771TIP3    H147804   5.071   6.532  12.645 -1.0722 -0.7624  1.9545
 8771TIP3    H247805   5.046   6.653  12.732 -1.4093  0.0611  0.7469
 8772TIP3   OH247806   6.379   3.481   5.497  0.0309  0.4145 -0.0348
 8772TIP3    H147807   6.379   3.475   5.401 -1.7323 -0.2597 -0.0326
 8772TIP3    H247808   6.386   3.575   5.515  0.3033  0.5524 -0.8194
 8773TIP3   OH247809   0.146   4.798   2.730  0.3276 -0.1838 -0.4722
 8773TIP3    H147810   0.174   4.738   2.661 -2.0016 -1.0079 -0.8165
 8773TIP3    H247811   0.093   4.864   2.684  0.6939  0.6281  0.2494
 8774TIP3   OH247812   3.564   3.898  14.783  0.0168  0.4842 -0.1032
 8774TIP3    H147813   3.503   3.972  14.777  2.2244  2.4416  0.0514
 8774TIP3    H247814   3.537   3.852  14.863 -0.9224  1.6040  0.2568
 8775TIP3   OH247815   0.475   1.925   0.787 -0.1415 -0.1523 -0.1650
 8775TIP3    H147816   0.407   1.984   0.753  0.4739  0.5593 -0.1973
 8775TIP3    H247817   0.541   1.984   0.823 -0.6858 -0.8416  2.1804
 8776TIP3   OH247818   0.078   1.503   4.007  0.1392  0.1229  0.0309
 8776TIP3    H147819   0.117   1.588   3.987  1.7880 -0.9834 -1.8106
 8776TIP3    H247820   0.076   1.457   3.923 -2.6494 -0.9471  0.5773
 8777TIP3   OH247821   5.363   1.178  17.127  0.2227 -0.4225  0.2055
 8777TIP3    H147822   5.281   1.220  17.102  0.2451 -0.4471  0.0923
 8777TIP3    H247823   5.337   1.095  17.167  0.1288  0.0832  1.2345
 8778TIP3   OH247824   1.560   5.879  14.523  0.0792 -0.6181  0.2189
 8778TIP3    H147825   1.619   5.834  14.583  2.3041  0.0125 -1.3625
 8778TIP3    H247826   1.594   5.859  14.436 -0.3347  2.0226 -0.6551
 8779TIP3   OH247827   2.911   1.259  11.531  0.3905 -0.4573  0.0193
 8779TIP3    H147828   2.955   1.176  11.509  0.7300 -0.2924  0.0661
 8779TIP3    H247829   2.843   1.269  11.464  0.5369 -0.6300 -0.1558
 8780TIP3   OH247830   5.824   0.196   5.392  0.8251  0.1805  0.4375
 8780TIP3    H147831   5.745   0.248   5.373  2.4983  2.5597 -0.5786
 8780TIP3    H247832   5.807   0.156   5.477 -0.8703  1.9310  1.0048
 8781TIP3   OH247833   1.814   0.117   2.280  1.2901 -0.1359 -0.3735
 8781TIP3    H147834   1.773   0.045   2.329  0.6348  0.6121  0.2124
 8781TIP3    H247835   1.785   0.196   2.325  2.9919  0.4605 -0.2622
 8782TIP3   OH247836   6.613   2.129  15.269 -0.6776  0.0138  0.4626
 8782TIP3    H147837   6.698   2.126  15.226  0.5808 -0.1490  2.8132
 8782TIP3    H247838   6.553   2.162  15.202  1.0175 -0.7928 -1.5388
 8783TIP3   OH247839   4.395   4.876   4.342 -0.3708 -0.1926 -0.5365
 8783TIP3    H147840   4.472   4.837   4.300 -0.7568 -0.8273 -0.6662
 8783TIP3    H247841   4.385   4.961   4.300  1.8073  1.0579  1.2876
 8784TIP3   OH247842   1.685   2.971   6.076 -0.7637 -0.0550 -0.1119
 8784TIP3    H147843   1.590   2.975   6.068 -0.8270 -1.6537 -0.4464
 8784TIP3    H247844   1.701   2.906   6.144  0.1074 -0.1982 -0.4386
 8785TIP3   OH247845   4.213   2.400   4.037  0.0457  0.4964  0.0881
 8785TIP3    H147846   4.143   2.378   3.976 -0.7472  1.2581  0.7056
 8785TIP3    H247847   4.288   2.349   4.006 -0.3320  0.8648 -1.5129
 8786TIP3   OH247848   4.265   4.951   0.877 -0.0314  0.5605 -0.0574
 8786TIP3    H147849   4.248   4.937   0.970 -0.8508  0.2669 -0.2463
 8786TIP3    H247850   4.283   5.044   0.870 -0.2620  0.6376  0.3512
 8787TIP3   OH247851   5.094   0.100   1.465 -0.2259 -0.2134 -0.4727
 8787TIP3    H147852   5.101   0.079   1.558  0.0394 -2.2454 -0.9194
 8787TIP3    H247853   5.183   0.125   1.440 -0.2890  0.2953 -0.2196
 8788TIP3   OH247854   1.799   0.799  15.673  0.4324  0.3285 -0.3292
 8788TIP3    H147855   1.810   0.884  15.631  0.3244 -0.0451 -1.1493
 8788TIP3    H247856   1.729   0.812  15.736  0.6691  0.9353 -0.1810
 8789TIP3   OH247857   6.163   6.797   1.499 -0.4574  0.1204 -0.4508
 8789TIP3    H147858   6.125   6.869   1.449 -0.5027  1.4448  1.3780
 8789TIP3    H247859   6.092   6.733   1.506 -1.8188  1.7055  1.2696
 8790TIP3   OH247860   0.104   5.572   5.148 -0.7831 -0.4558 -0.4355
 8790TIP3    H147861   0.153   5.493   5.127 -2.1229 -1.1049 -1.2017
 8790TIP3    H247862   0.049   5.548   5.222 -2.3549 -0.7640 -1.6441
 8791TIP3   OH247863   4.792   3.447  16.362 -0.0263 -0.3396 -0.5538
 8791TIP3    H147864   4.829   3.397  16.435  2.9378 -0.6578 -2.1514
 8791TIP3    H247865   4.782   3.535  16.397 -1.4540 -1.0688  1.0591
 8792TIP3   OH247866   4.067   4.846   3.906 -0.2320  0.1550  0.0572
 8792TIP3    H147867   4.077   4.770   3.848 -1.2315  0.4570 -0.5424
 8792TIP3    H247868   4.074   4.922   3.847 -1.3619  0.4618  0.2981
 8793TIP3   OH247869   2.088   1.045   1.796 -0.1286 -0.0781  0.0475
 8793TIP3    H147870   2.139   1.079   1.869 -1.2706 -0.7337  1.1957
 8793TIP3    H247871   2.153   1.010   1.735  0.8074 -0.5681  1.2910
 8794TIP3   OH247872   4.474   0.828   6.309  0.2886  0.0648 -0.3318
 8794TIP3    H147873   4.525   0.867   6.379  1.6303 -0.2623 -1.1042
 8794TIP3    H247874   4.461   0.900   6.246  0.5024 -0.0668 -0.5250
 8795TIP3   OH247875   4.071   5.650   0.815  0.3328  0.0380 -0.5575
 8795TIP3    H147876   4.001   5.625   0.876 -1.0711  2.0268 -1.2348
 8795TIP3    H247877   4.052   5.601   0.735  0.7545 -0.7295 -0.1993
 8796TIP3   OH247878   4.145   2.562   1.616  0.0787 -0.3717  1.1993
 8796TIP3    H147879   4.194   2.634   1.655 -3.4351  2.0126  1.6227
 8796TIP3    H247880   4.107   2.516   1.691 -1.9140  0.6438  0.8892
 8797TIP3   OH247881   5.530   5.430  16.362  0.1000 -0.2538 -0.0378
 8797TIP3    H147882   5.521   5.364  16.293  1.1512  0.8502 -1.2832
 8797TIP3    H247883   5.624   5.447  16.366 -0.0663  0.5332  0.8829
 8798TIP3   OH247884   4.734   6.235  15.468  0.3551 -0.4828 -0.6582
 8798TIP3    H147885   4.730   6.328  15.490  0.2025 -0.5938 -0.2098
 8798TIP3    H247886   4.793   6.231  15.393  1.5896 -0.1819  0.2530
 8799TIP3   OH247887   6.610   6.815  11.745 -0.1572 -0.1323 -0.0208
 8799TIP3    H147888   6.655   6.733  11.723 -0.1414  0.0123 -0.5454
 8799TIP3    H247889   6.525   6.808  11.701 -0.1425  0.1458 -0.0969
 8800TIP3   OH247890   0.911   0.202  16.979 -0.0650  0.1846  0.3316
 8800TIP3    H147891   0.820   0.220  17.005 -0.3782  0.5003 -0.9156
 8800TIP3    H247892   0.937   0.127  17.033 -1.2754 -0.2977  0.2832
 8801TIP3   OH247893   4.135   6.477  15.583  0.4235 -0.5252  0.1577
 8801TIP3    H147894   4.065   6.420  15.550  1.0822 -1.5394  0.4577
 8801TIP3    H247895   4.206   6.466  15.520  0.5977 -0.1234  0.2863
 8802TIP3   OH247896   2.799   6.763   5.248 -0.4913 -0.1175 -0.2209
 8802TIP3    H147897   2.874   6.799   5.200 -0.6477 -2.7167 -2.6554
 8802TIP3    H247898   2.753   6.840   5.281  0.9521  1.7434 -2.2220
 8803TIP3   OH247899   3.253   6.056  15.446 -0.2513  0.9989 -0.6662
 8803TIP3    H147900   3.306   6.132  15.469  2.9306 -1.1733 -0.1400
 8803TIP3    H247901   3.275   6.038  15.354  1.7510 -1.1379  0.1323
 8804TIP3   OH247902   5.203   0.228   2.029  0.7621  0.1658  0.1922
 8804TIP3    H147903   5.293   0.202   2.009  0.8517 -0.0706  0.8781
 8804TIP3    H247904   5.212   0.306   2.084  0.5297  0.5156 -0.2560
 8805TIP3   OH247905   4.740   3.940  15.475  0.1838 -0.1290 -0.5210
 8805TIP3    H147906   4.726   3.945  15.381 -0.1366  0.1446 -0.4604
 8805TIP3    H247907   4.832   3.964  15.487  0.2948 -0.4086 -0.7818
 8806TIP3   OH247908   5.993   3.356   4.252 -0.0329 -0.6499 -0.5061
 8806TIP3    H147909   6.067   3.417   4.251 -0.4698 -0.0986 -1.8935
 8806TIP3    H247910   6.011   3.297   4.179 -0.8280 -0.6699 -0.6871
 8807TIP3   OH247911   5.620   1.048  12.928  0.5208 -0.1645  0.3443
 8807TIP3    H147912   5.659   1.133  12.905 -1.6254  0.8751  0.3340
 8807TIP3    H247913   5.676   1.015  12.999  1.4709  1.2030  0.2699
 8808TIP3   OH247914   3.539   5.249   1.603  0.3106 -0.5022 -0.2832
 8808TIP3    H147915   3.465   5.309   1.608  2.2833  1.9850  1.8219
 8808TIP3    H247916   3.545   5.226   1.510 -2.0501  0.4924 -0.7682
 8809TIP3   OH247917   5.823   2.297   5.604  0.1511 -0.0258 -0.0422
 8809TIP3    H147918   5.790   2.329   5.520 -2.2793  0.7908  1.1225
 8809TIP3    H247919   5.854   2.208   5.586  1.6769  0.8515 -2.1790
 8810TIP3   OH247920   2.337   6.076   2.738 -0.4211 -0.3615  0.1469
 8810TIP3    H147921   2.363   6.168   2.746 -1.4213 -0.1620  1.5081
 8810TIP3    H247922   2.374   6.034   2.816  0.9086 -1.3685 -0.9812
 8811TIP3   OH247923   3.821   1.752  15.289 -0.2654 -0.0696  0.3489
 8811TIP3    H147924   3.773   1.680  15.248  0.1792 -1.1967  1.7330
 8811TIP3    H247925   3.879   1.783  15.220  0.0150 -1.4969 -0.1030
 8812TIP3   OH247926   3.173   2.489   4.383 -0.3548 -0.3023 -1.1233
 8812TIP3    H147927   3.136   2.573   4.354  0.2241  0.6682  0.7769
 8812TIP3    H247928   3.117   2.463   4.456  1.2474  0.0198  0.2855
 8813TIP3   OH247929   3.139   5.163   1.144 -0.3584 -0.0280  0.3613
 8813TIP3    H147930   3.131   5.253   1.111  0.9674  0.0837  0.2894
 8813TIP3    H247931   3.194   5.119   1.080  0.0835 -0.5346  1.0736
 8814TIP3   OH247932   5.228   6.504   4.342  0.1087 -0.9348 -0.1613
 8814TIP3    H147933   5.208   6.430   4.398  0.5114 -1.4263 -0.6595
 8814TIP3    H247934   5.166   6.497   4.269  0.6465 -1.2318 -0.6016
 8815TIP3   OH247935   0.239   6.105   5.127 -0.2267 -0.1456 -0.4962
 8815TIP3    H147936   0.173   6.036   5.126  0.0479 -0.4562  0.5912
 8815TIP3    H247937   0.310   6.069   5.181 -0.3706  1.2133  0.6773
 8816TIP3   OH247938   1.102   0.278   3.931 -0.1391  0.0650 -0.4623
 8816TIP3    H147939   1.045   0.247   4.001  0.6759 -1.7041 -0.5201
 8816TIP3    H247940   1.189   0.282   3.972 -0.1001  1.6550 -0.6639
 8817TIP3   OH247941   2.774   6.553   4.763  0.1693  0.6141  0.2291
 8817TIP3    H147942   2.709   6.600   4.815  0.2604 -0.0940  0.9953
 8817TIP3    H247943   2.829   6.623   4.726  0.5003  1.1119  1.6055
 8818TIP3   OH247944   3.368   3.877  12.292  0.0470 -0.0222 -0.3349
 8818TIP3    H147945   3.419   3.864  12.371  1.5009 -1.9535 -1.4927
 8818TIP3    H247946   3.294   3.932  12.319  1.3225  0.6571  1.9684
 8819TIP3   OH247947   1.784   6.157  12.228 -0.3760 -0.1222 -0.6049
 8819TIP3    H147948   1.860   6.188  12.179 -0.8458  0.2615 -1.1064
 8819TIP3    H247949   1.720   6.134  12.160 -0.7802 -0.2568 -0.1830
 8820TIP3   OH247950   3.121   5.093   1.992  0.7573  0.6233 -0.5181
 8820TIP3    H147951   3.093   5.009   2.027  0.4554 -0.6855 -3.5596
 8820TIP3    H247952   3.216   5.096   2.008  0.9536 -0.8110 -1.2889
 8821TIP3   OH247953   4.657   3.440   6.186  0.2484 -0.3586 -0.3565
 8821TIP3    H147954   4.562   3.454   6.192  0.4821  0.8315  1.3816
 8821TIP3    H247955   4.678   3.387   6.262  1.1069  0.1875 -0.2024
 8822TIP3   OH247956   5.589   4.176  13.515  0.1624 -0.3684  0.1084
 8822TIP3    H147957   5.626   4.244  13.571 -1.5320  3.1768 -2.6708
 8822TIP3    H247958   5.648   4.172  13.440 -1.4241  0.4300 -1.2336
 8823TIP3   OH247959   0.057   4.584  11.709  0.0094 -0.4500  0.1183
 8823TIP3    H147960   0.039   4.568  11.802 -0.2288 -2.3593 -0.2286
 8823TIP3    H247961   0.127   4.649  11.710  1.3589 -1.8276  1.7005
 8824TIP3   OH247962   0.261   3.783  11.011 -0.7425  0.5921  0.5585
 8824TIP3    H147963   0.185   3.785  10.953 -1.3793 -0.0794  1.3368
 8824TIP3    H247964   0.227   3.748  11.094  1.0691 -3.4261 -0.1071
 8825TIP3   OH247965   1.111   5.478   2.107  0.1031 -0.1718 -0.0212
 8825TIP3    H147966   1.107   5.525   2.190  0.9307  0.3993 -0.2986
 8825TIP3    H247967   1.198   5.496   2.072 -0.8850  1.3062 -1.9957
 8826TIP3   OH247968   0.941   5.991  10.555 -0.3747 -0.0094  0.0489
 8826TIP3    H147969   0.859   6.036  10.577 -0.2066  0.1292  0.3908
 8826TIP3    H247970   1.004   6.022  10.620 -0.0534 -0.1290 -0.2021
 8827TIP3   OH247971   4.957   6.420  14.390  0.3752 -0.0943  0.6074
 8827TIP3    H147972   4.926   6.486  14.453  3.0160  1.6879  0.2277
 8827TIP3    H247973   4.997   6.352  14.444  1.0358  0.5424  0.9393
 8828TIP3   OH247974   4.734   3.962   0.513  0.6133  0.0867 -0.1816
 8828TIP3    H147975   4.749   4.050   0.549 -2.7325  1.1703 -1.0078
 8828TIP3    H247976   4.755   3.971   0.420  1.6300 -0.4321 -0.0123
 8829TIP3   OH247977   6.378   3.708   3.533 -0.5498 -0.6356 -0.1342
 8829TIP3    H147978   6.471   3.688   3.546  0.0501  1.5280 -0.5352
 8829TIP3    H247979   6.349   3.646   3.467  0.9608 -0.5571 -0.9148
 8830TIP3   OH247980   6.218   1.359  16.317 -0.3763  0.2534  0.0449
 8830TIP3    H147981   6.187   1.399  16.399  2.1951  0.0559  1.1967
 8830TIP3    H247982   6.202   1.265  16.329  0.1730  0.2042  0.4176
 8831TIP3   OH247983   4.416   3.563   0.736  0.1031  0.0003  0.5154
 8831TIP3    H147984   4.482   3.507   0.776  0.2354 -0.0222  0.2619
 8831TIP3    H247985   4.386   3.514   0.659 -0.8284 -0.3911  1.0982
 8832TIP3   OH247986   3.401   5.928  13.261  0.3782  0.0429  0.0808
 8832TIP3    H147987   3.335   5.981  13.216 -0.3817 -0.1546  0.9209
 8832TIP3    H247988   3.359   5.902  13.343  1.2089 -0.7882  0.2658
 8833TIP3   OH247989   0.175   0.942   3.635 -0.1863  0.0000  0.0748
 8833TIP3    H147990   0.086   0.978   3.638 -0.3822 -0.5174  0.9652
 8833TIP3    H247991   0.229   1.012   3.672 -0.7331 -0.9744  3.0207
 8834TIP3   OH247992   2.120   0.664  15.125  0.5487 -0.0035 -0.0843
 8834TIP3    H147993   2.148   0.676  15.034  0.2485 -1.8141 -0.4591
 8834TIP3    H247994   2.034   0.623  15.119 -0.5798  2.0610  1.0617
 8835TIP3   OH247995   4.575   0.192   3.761  0.2111  0.7477  0.5148
 8835TIP3    H147996   4.598   0.277   3.798 -0.1697  0.2299  2.0024
 8835TIP3    H247997   4.656   0.160   3.722  0.4807  1.5661  0.3766
 8836TIP3   OH247998   2.686   0.889  12.920  0.0293  0.5519 -0.1568
 8836TIP3    H147999   2.752   0.955  12.941  2.2026 -1.5878  0.2288
 8836TIP3    H248000   2.604   0.926  12.952  1.1940  2.9007  0.3333
 8837TIP3   OH248001   0.460   4.450   3.009  0.4527  0.0954  0.2053
 8837TIP3    H148002   0.550   4.419   3.008  0.3240 -0.2802 -0.7839
 8837TIP3    H248003   0.412   4.385   2.957 -0.6560 -0.4814  1.8439
 8838TIP3   OH248004   5.496   4.072  15.106  0.1429  1.0122  0.2393
 8838TIP3    H148005   5.537   4.154  15.134 -0.2214  1.0705  0.6188
 8838TIP3    H248006   5.404   4.095  15.090 -0.4161  0.3304  2.1177
 8839TIP3   OH248007   5.124   1.944   1.577  0.2517 -0.1576 -0.1728
 8839TIP3    H148008   5.115   1.852   1.550  0.7250 -0.5040  0.8160
 8839TIP3    H248009   5.135   1.940   1.672  1.1835  0.8637 -0.2228
 8840TIP3   OH248010   2.151   1.712   3.201  0.2315 -0.4130 -0.4322
 8840TIP3    H148011   2.206   1.751   3.134  0.9075 -0.7381 -0.0753
 8840TIP3    H248012   2.180   1.621   3.207  0.8215 -0.1705  0.9255
 8841TIP3   OH248013   5.429   1.608  13.598 -0.0253 -0.2876  0.2041
 8841TIP3    H148014   5.335   1.616  13.577 -0.3317 -0.1543  1.5447
 8841TIP3    H248015   5.433   1.619  13.693  1.3039 -0.7980  0.2228
 8842TIP3   OH248016   3.945   1.158  14.664  0.2346  0.3483 -0.2061
 8842TIP3    H148017   3.935   1.192  14.753  1.5471  0.2562 -0.0007
 8842TIP3    H248018   3.856   1.137  14.636 -0.2897  1.2142  0.7510
 8843TIP3   OH248019   3.261   2.283   0.696 -0.4932  0.0234 -0.5827
 8843TIP3    H148020   3.264   2.239   0.781 -0.6287 -1.2213 -1.1952
 8843TIP3    H248021   3.184   2.246   0.653  1.0238 -1.3714 -2.2613
 8844TIP3   OH248022   2.149   2.694   4.138  0.3465  0.1779 -0.0459
 8844TIP3    H148023   2.242   2.700   4.160  1.0325  0.7697 -2.6918
 8844TIP3    H248024   2.121   2.609   4.173  2.3343 -0.7469 -0.5797
 8845TIP3   OH248025   4.207   3.242  15.221 -0.5024  0.2466 -0.5542
 8845TIP3    H148026   4.172   3.248  15.132  1.8754  0.7457 -1.5619
 8845TIP3    H248027   4.138   3.200  15.272 -1.2784 -1.7464 -3.0362
 8846TIP3   OH248028   0.631   4.651   3.638  0.4443 -0.2338 -0.7800
 8846TIP3    H148029   0.719   4.635   3.604  0.6717 -0.1515 -0.2427
 8846TIP3    H248030   0.573   4.608   3.575  0.7602  1.0614 -2.0109
 8847TIP3   OH248031   2.956   3.630  16.948 -0.4652  0.2524 -0.3286
 8847TIP3    H148032   2.886   3.627  17.013 -0.7670 -0.5512 -0.6696
 8847TIP3    H248033   2.910   3.639  16.864 -0.0160  3.9267 -0.3280
 8848TIP3   OH248034   2.947   5.254  12.735 -0.5167 -0.2079 -0.7076
 8848TIP3    H148035   3.014   5.208  12.786 -0.6904 -1.7852 -1.8189
 8848TIP3    H248036   2.985   5.340  12.719  0.5565 -0.5112  0.0462
 8849TIP3   OH248037   2.113   2.348  16.945  0.3999 -0.5667  0.1427
 8849TIP3    H148038   2.039   2.383  16.995  0.9542  1.0666 -0.1405
 8849TIP3    H248039   2.073   2.311  16.866 -0.5443 -3.5547  1.8499
 8850TIP3   OH248040   5.885   4.193  17.123 -0.4931 -0.3220 -0.2247
 8850TIP3    H148041   5.879   4.157  17.035 -0.0324 -1.1408  0.0627
 8850TIP3    H248042   5.798   4.228  17.141 -0.3338  0.7485 -1.3636
 8851TIP3   OH248043   5.797   1.708  10.421 -0.5050  0.2999 -0.7023
 8851TIP3    H148044   5.744   1.632  10.397 -0.5272  1.0925 -3.5273
 8851TIP3    H248045   5.884   1.689  10.386  0.1633  0.5693  0.7229
 8852TIP3   OH248046   3.167   1.179  13.069 -0.3521  0.0342  0.0858
 8852TIP3    H148047   3.238   1.224  13.024  1.4120 -1.3896  1.3061
 8852TIP3    H248048   3.125   1.126  13.000  1.1509 -0.7267 -0.2953
 8853TIP3   OH248049   2.563   5.746  15.838  0.1875 -0.3977  0.0495
 8853TIP3    H148050   2.501   5.677  15.815 -0.8005  0.3129  0.5259
 8853TIP3    H248051   2.646   5.700  15.853 -0.4168 -1.4635  0.2110
 8854TIP3   OH248052   5.042   0.531   2.460 -0.1529 -0.4457  0.0090
 8854TIP3    H148053   5.028   0.626   2.468  1.1727 -0.2600  0.4014
 8854TIP3    H248054   5.138   0.522   2.454 -0.2990 -1.7119 -0.7633
 8855TIP3   OH248055   2.574   2.320  11.421  0.4646 -0.1256 -0.3121
 8855TIP3    H148056   2.541   2.231  11.438  2.8547 -0.9886  0.1432
 8855TIP3    H248057   2.535   2.373  11.491  0.9337 -1.3265  0.9008
 8856TIP3   OH248058   2.047   6.501   1.862 -0.1115 -0.4440 -0.0864
 8856TIP3    H148059   2.075   6.577   1.811  1.7037  0.1199  1.6462
 8856TIP3    H248060   2.100   6.504   1.942 -2.1112 -1.8480  1.4098
 8857TIP3   OH248061   1.210   5.023  16.205  0.2830 -0.5031 -0.0308
 8857TIP3    H148062   1.216   5.093  16.270  1.5861 -0.3531 -0.2898
 8857TIP3    H248063   1.293   5.027  16.157 -0.2551 -1.2295 -1.0728
 8858TIP3   OH248064   6.576   3.195   4.042 -0.1052 -0.0574 -0.5033
 8858TIP3    H148065   6.488   3.200   4.081  0.6650  1.7525  1.1501
 8858TIP3    H248066   6.582   3.106   4.010 -2.1446 -0.5760  0.3537
 8859TIP3   OH248067   6.286   5.494   1.363  0.2039 -0.2281 -0.3778
 8859TIP3    H148068   6.333   5.490   1.446  0.0858 -2.8973 -0.3710
 8859TIP3    H248069   6.219   5.561   1.377  0.8010  0.0716  1.3252
 8860TIP3   OH248070   1.903   5.987   5.201 -0.0723 -0.5310  0.7184
 8860TIP3    H148071   1.832   6.046   5.176  1.2290 -0.0078 -2.1315
 8860TIP3    H248072   1.876   5.902   5.167 -0.4289 -0.8810  1.8478
 8861TIP3   OH248073   5.616   3.966   3.339 -0.1121  0.3817  0.0430
 8861TIP3    H148074   5.590   3.900   3.403 -0.9631  0.6511 -0.0147
 8861TIP3    H248075   5.618   3.919   3.256 -1.3897  0.5603 -0.1088
 8862TIP3   OH248076   4.576   4.956  11.828  0.3517  0.0730  0.4050
 8862TIP3    H148077   4.599   5.014  11.901  1.9380 -1.4674  1.1761
 8862TIP3    H248078   4.553   4.873  11.870  1.3469 -0.8542 -0.8425
 8863TIP3   OH248079   1.787   6.599  15.656 -0.2539  0.2404  0.2986
 8863TIP3    H148080   1.770   6.687  15.622 -0.7350  0.8003  1.8795
 8863TIP3    H248081   1.879   6.582  15.634 -0.0907  1.2333  0.1692
 8864TIP3   OH248082   4.805   5.467   6.273  0.0703 -0.6689 -0.4381
 8864TIP3    H148083   4.720   5.443   6.236 -0.5129  1.8127 -0.9095
 8864TIP3    H248084   4.866   5.457   6.200 -0.7474  2.2871 -1.7116
 8865TIP3   OH248085   2.320   5.330   6.691 -1.1767 -0.2398  0.1240
 8865TIP3    H148086   2.255   5.264   6.667 -0.7579 -0.5644 -0.1301
 8865TIP3    H248087   2.397   5.280   6.718 -0.9923  0.1422  0.3225
 8866TIP3   OH248088   4.798   5.901   2.919 -0.0084 -0.6334 -0.2961
 8866TIP3    H148089   4.799   5.898   2.823  1.8251 -1.2160 -0.2934
 8866TIP3    H248090   4.705   5.896   2.942 -0.4262 -1.5609 -2.0206
 8867TIP3   OH248091   6.429   3.105   1.998 -0.5289 -0.2105 -0.4564
 8867TIP3    H148092   6.427   3.181   2.056  0.2169 -0.4664 -0.0957
 8867TIP3    H248093   6.378   3.039   2.044  1.6396 -1.0592  0.8376
 8868TIP3   OH248094   4.285   6.349  12.957 -0.5874 -0.3174  0.2460
 8868TIP3    H148095   4.261   6.435  12.923  0.4535 -0.3511 -0.6095
 8868TIP3    H248096   4.237   6.342  13.039 -1.3644  0.7192 -0.0937
 8869TIP3   OH248097   2.424   4.400  16.758 -0.3939 -0.2171 -0.1756
 8869TIP3    H148098   2.467   4.402  16.844  0.7822  2.3033 -0.7377
 8869TIP3    H248099   2.495   4.407  16.695 -1.3672 -0.3180 -1.3231
 8870TIP3   OH248100   4.324   4.632  11.376  0.2564  0.4680 -0.4483
 8870TIP3    H148101   4.355   4.698  11.438  0.3479  0.6668 -0.7006
 8870TIP3    H248102   4.322   4.550  11.426  2.2694  0.2061 -0.6794
 8871TIP3   OH248103   0.081   3.353   5.355 -0.3680  0.0054  0.2383
 8871TIP3    H148104  -0.005   3.378   5.323 -0.1135  0.3513 -0.1902
 8871TIP3    H248105   0.064   3.301   5.433 -0.9441  0.6082  0.5203
 8872TIP3   OH248106   3.399   0.652  16.904  0.1498 -0.3695 -0.3335
 8872TIP3    H148107   3.374   0.637  16.813 -0.9148 -1.1693  0.0754
 8872TIP3    H248108   3.364   0.577  16.952  0.6563  0.0550  0.7526
 8873TIP3   OH248109   1.356   0.270   3.042  0.5470  0.4490  0.0012
 8873TIP3    H148110   1.310   0.271   2.959 -0.2547 -2.1119  0.3290
 8873TIP3    H248111   1.412   0.193   3.038 -0.3976 -0.4493  2.2459
 8874TIP3   OH248112   5.164   2.488  11.806 -0.0204  0.0809 -0.2960
 8874TIP3    H148113   5.158   2.397  11.776 -1.2000  0.6512 -1.9900
 8874TIP3    H248114   5.088   2.500  11.863  1.1951 -0.4845  1.5164
 8875TIP3   OH248115   0.862   2.355   4.103 -0.3567  0.6364  0.1607
 8875TIP3    H148116   0.776   2.370   4.063 -0.2593  0.3651 -0.1484
 8875TIP3    H248117   0.867   2.420   4.173 -0.4940  1.1643 -0.3168
 8876TIP3   OH248118   1.782   2.157   1.909  0.4524  0.0436  0.0600
 8876TIP3    H148119   1.731   2.135   1.987 -0.3423  0.8421 -0.2227
 8876TIP3    H248120   1.737   2.113   1.837 -0.6980  1.8449 -0.3954
 8877TIP3   OH248121   3.073   0.980  14.921 -0.2167 -0.5349 -0.2311
 8877TIP3    H148122   3.150   0.971  14.864  0.6941 -2.1372  1.1835
 8877TIP3    H248123   3.016   1.041  14.873  1.7119  0.3764 -1.5380
 8878TIP3   OH248124   4.936   0.863   1.782 -0.4615  0.0272 -0.1605
 8878TIP3    H148125   4.947   0.933   1.718 -0.4184  0.1034 -0.0706
 8878TIP3    H248126   4.889   0.905   1.855  1.3564  0.5141  0.7947
 8879TIP3   OH248127   4.840   4.849   3.344 -0.3884  0.3730 -0.1787
 8879TIP3    H148128   4.879   4.924   3.389 -0.9556  0.2702  0.5154
 8879TIP3    H248129   4.830   4.878   3.253 -1.4632  1.5026  0.2671
 8880TIP3   OH248130   2.250   6.109  11.609 -0.1469 -0.8466 -0.0591
 8880TIP3    H148131   2.199   6.189  11.617  0.3624 -0.4178 -0.8967
 8880TIP3    H248132   2.319   6.117  11.675 -0.2762 -0.7379  0.0616
 8881TIP3   OH248133   4.873   0.766   5.238 -0.7817  0.5858 -0.0366
 8881TIP3    H148134   4.921   0.765   5.155  0.0446 -0.9963  0.4224
 8881TIP3    H248135   4.782   0.749   5.213 -0.5155 -0.0179 -0.6090
 8882TIP3   OH248136   4.326   5.080  11.148  0.1148 -0.1686 -0.1279
 8882TIP3    H148137   4.340   4.986  11.131  0.0975  0.0897 -1.6197
 8882TIP3    H248138   4.264   5.108  11.081 -0.6784  0.7059  0.9426
 8883TIP3   OH248139   5.727   6.390  15.303 -0.3598  0.5746  0.0629
 8883TIP3    H148140   5.815   6.428  15.310 -0.2546  1.0823 -2.9318
 8883TIP3    H248141   5.677   6.437  15.370  1.3973  0.8811  1.2659
 8884TIP3   OH248142   5.487   6.357  15.795  0.3581 -0.8779 -0.4620
 8884TIP3    H148143   5.423   6.321  15.856 -0.2258 -0.8943 -1.0751
 8884TIP3    H248144   5.564   6.301  15.806 -0.0123 -1.3683 -0.3096
 8885TIP3   OH248145   2.789   3.245  12.624  0.3423  0.0244  0.0873
 8885TIP3    H148146   2.751   3.160  12.605 -0.7785  0.6987 -0.8118
 8885TIP3    H248147   2.739   3.307  12.570  0.5566  1.3700  1.3559
 8886TIP3   OH248148   3.860   4.558  15.039  0.3737  0.0952 -0.0410
 8886TIP3    H148149   3.935   4.585  15.092  0.0586 -0.3416  0.6510
 8886TIP3    H248150   3.801   4.634  15.042  1.3377  0.9599 -1.6999
 8887TIP3   OH248151   1.255   2.965  15.336 -0.3042 -0.3339  0.5804
 8887TIP3    H148152   1.221   2.953  15.424  0.2468  0.2888  0.8847
 8887TIP3    H248153   1.331   2.907  15.332  0.9755  1.2367  1.2680
 8888TIP3   OH248154   6.544   6.800   1.347  0.0632 -0.8904 -0.0931
 8888TIP3    H148155   6.596   6.750   1.284 -0.6091 -1.2612 -0.3582
 8888TIP3    H248156   6.487   6.856   1.294 -0.2645 -0.9517  0.1871
 8889TIP3   OH248157   1.292   0.776   3.803 -0.1753  0.5548 -0.3410
 8889TIP3    H148158   1.227   0.718   3.843 -0.9831  1.0364 -0.9243
 8889TIP3    H248159   1.372   0.724   3.800 -0.6775 -0.2469 -0.1196
 8890TIP3   OH248160   3.971   6.571  13.889  0.0762  0.2174  0.3880
 8890TIP3    H148161   4.040   6.633  13.914 -0.0475  0.4246  0.2233
 8890TIP3    H248162   3.962   6.513  13.964  1.4156 -0.6993 -0.1192
 8891TIP3   OH248163   2.251   1.102   5.910  0.4633  0.4111  0.3963
 8891TIP3    H148164   2.174   1.131   5.959  1.5954 -0.8578  3.0764
 8891TIP3    H248165   2.230   1.013   5.884 -0.2650  1.1721 -1.9109
 8892TIP3   OH248166   3.457   6.307  16.531 -0.6503  0.0751  0.3871
 8892TIP3    H148167   3.466   6.395  16.494 -1.2705  0.3455  0.8731
 8892TIP3    H248168   3.525   6.302  16.598  0.9412 -0.6584 -1.1935
 8893TIP3   OH248169   5.117   3.741  15.274 -0.9784 -0.1065 -0.2674
 8893TIP3    H148170   5.031   3.784  15.267 -0.9181 -0.1247 -1.4412
 8893TIP3    H248171   5.162   3.766  15.193  0.2474  0.1542  0.4821
 8894TIP3   OH248172   6.222   4.555   5.852  0.3816  0.4535  0.0575
 8894TIP3    H148173   6.273   4.548   5.772 -0.2387  1.3837 -0.4317
 8894TIP3    H248174   6.133   4.529   5.827  0.2556  0.4213  0.5272
 8895TIP3   OH248175   4.729   2.862   0.742 -0.3405  0.7039  0.0127
 8895TIP3    H148176   4.803   2.811   0.775  0.6417  0.6852 -2.0946
 8895TIP3    H248177   4.660   2.796   0.728 -0.2406  0.4877  0.5072
 8896TIP3   OH248178   6.618   5.747  12.928  0.3801  0.0503 -0.5581
 8896TIP3    H148179   6.585   5.824  12.973  0.3271  0.7248 -1.7024
 8896TIP3    H248180   6.669   5.782  12.855  0.7296 -0.9969 -0.8388
 8897TIP3   OH248181   6.555   6.000   4.978 -0.1176 -0.1331 -0.2790
 8897TIP3    H148182   6.607   6.023   5.054  0.9706 -0.6913 -0.8333
 8897TIP3    H248183   6.530   5.908   4.992 -0.5682 -0.0042 -0.2290
 8898TIP3   OH248184   0.549   2.654  13.225 -0.0451 -0.3785 -0.1022
 8898TIP3    H148185   0.555   2.559  13.219  1.3561 -0.3564  0.5866
 8898TIP3    H248186   0.477   2.677  13.167 -0.9615 -1.9297  0.3718
 8899TIP3   OH248187   1.307   4.411  13.205  0.3318 -0.0702  0.7865
 8899TIP3    H148188   1.366   4.349  13.249  2.7526  1.0539 -0.7115
 8899TIP3    H248189   1.335   4.411  13.114 -0.4480  2.2728  0.4759
 8900TIP3   OH248190   1.539   1.260   1.937  0.8448  0.3249  0.3134
 8900TIP3    H148191   1.579   1.229   2.019  1.4141  0.0890 -0.0453
 8900TIP3    H248192   1.610   1.305   1.892  0.0091  2.2903  0.8657
 8901TIP3   OH248193   4.262   2.282   3.541 -0.3851 -0.4757  0.2972
 8901TIP3    H148194   4.357   2.292   3.526 -0.6929  1.1370 -0.9588
 8901TIP3    H248195   4.252   2.193   3.573  1.3290 -1.5353 -1.8181
 8902TIP3   OH248196   6.485   0.360   4.683 -0.1832 -0.1867  0.3970
 8902TIP3    H148197   6.426   0.379   4.756 -0.1958  1.2474  0.0470
 8902TIP3    H248198   6.573   0.370   4.719 -0.1490 -1.1423  0.6153
 8903TIP3   OH248199   6.285   3.017   4.479  0.7212 -0.1000  0.0995
 8903TIP3    H148200   6.355   2.964   4.517  2.0644  0.6759 -1.1892
 8903TIP3    H248201   6.331   3.089   4.434 -0.8447  0.0167 -1.4281
 8904TIP3   OH248202   0.065   2.294   0.009  0.5063  0.0684  0.1639
 8904TIP3    H148203   0.048   2.384   0.038  0.4403 -0.5206  2.1313
 8904TIP3    H248204   0.017   2.285  -0.073 -0.2503  1.5474  0.4163
 8905TIP3   OH248205   0.691   3.538   0.459 -0.1794  0.1465  0.2468
 8905TIP3    H148206   0.761   3.515   0.520  0.5794  1.3985 -0.1001
 8905TIP3    H248207   0.703   3.632   0.445 -0.4570 -0.0744 -1.6618
 8906TIP3   OH248208   6.532   5.831   1.952 -0.1539  0.1762 -0.4003
 8906TIP3    H148209   6.532   5.811   1.858 -0.9228  0.5501 -0.4912
 8906TIP3    H248210   6.503   5.922   1.956  1.8583  0.8597  0.0856
 8907TIP3   OH248211   4.167   0.305   4.371 -0.8933  0.3247  1.0606
 8907TIP3    H148212   4.248   0.262   4.396  0.1719  2.0903  0.8437
 8907TIP3    H248213   4.146   0.270   4.284 -0.2220  0.0406  1.0098
 8908TIP3   OH248214   3.969   5.027   4.151 -0.2742 -0.2201  0.5428
 8908TIP3    H148215   4.006   4.938   4.157  0.7524  0.2140  0.8676
 8908TIP3    H248216   3.950   5.051   4.242  0.5224  0.3137  0.5839
 8909TIP3   OH248217   0.620   3.606   5.924  0.2958  0.4847  0.3850
 8909TIP3    H148218   0.634   3.674   5.858 -0.3831  1.9183  1.6424
 8909TIP3    H248219   0.621   3.653   6.008  0.0212 -1.0990  1.3252
 8910TIP3   OH248220   4.144   5.606  14.260 -0.0274  0.0775  0.4381
 8910TIP3    H148221   4.061   5.559  14.274 -0.4170  0.9034  0.9677
 8910TIP3    H248222   4.182   5.613  14.348  0.5995 -0.2770  0.2006
 8911TIP3   OH248223   0.864   2.438   2.939 -0.3296 -0.1355 -0.4133
 8911TIP3    H148224   0.822   2.447   2.854 -0.1507  1.4310 -0.3504
 8911TIP3    H248225   0.819   2.499   2.997  1.3094  0.8342 -0.0840
 8912TIP3   OH248226   0.641   4.312  10.905  0.0699  0.2338 -0.1162
 8912TIP3    H148227   0.618   4.289  10.815 -0.6423  0.4234  0.0117
 8912TIP3    H248228   0.718   4.259  10.925 -1.6461 -2.2864  0.2705
 8913TIP3   OH248229   1.740   5.444  13.503 -0.0464 -0.4712  0.3161
 8913TIP3    H148230   1.779   5.488  13.427 -0.8436 -1.2721 -0.5852
 8913TIP3    H248231   1.793   5.366  13.515  0.1130 -0.3170  0.6331
 8914TIP3   OH248232   0.495   5.118  13.042 -0.8216 -0.0584  0.3645
 8914TIP3    H148233   0.554   5.190  13.064 -0.5053 -0.0888 -0.3659
 8914TIP3    H248234   0.425   5.124  13.107 -2.4256  2.8019 -1.4060
 8915TIP3   OH248235   1.740   3.869   3.851  0.1525  0.2977  0.6214
 8915TIP3    H148236   1.647   3.850   3.840  0.1888  0.0587  0.7214
 8915TIP3    H248237   1.772   3.800   3.910  0.0584  1.2992  1.8615
 8916TIP3   OH248238   4.517   2.517  11.234  0.3611 -0.0428 -0.3675
 8916TIP3    H148239   4.456   2.543  11.165 -1.5664  1.1918  1.6829
 8916TIP3    H248240   4.574   2.593  11.246 -0.1321  0.2447  0.2235
 8917TIP3   OH248241   2.782   5.926  12.989 -0.2131 -0.0261  0.8699
 8917TIP3    H148242   2.763   5.888  13.075  1.1795  0.3696  1.3828
 8917TIP3    H248243   2.808   5.852  12.936 -2.5215 -0.5034  0.2981
 8918TIP3   OH248244   1.068   2.954  17.185  0.2278 -0.1807 -0.2939
 8918TIP3    H148245   1.107   2.874  17.150 -1.8028 -1.1241 -0.5429
 8918TIP3    H248246   1.002   2.924  17.247  0.4055  1.3599  0.6872
 8919TIP3   OH248247   0.276   5.539   3.302 -0.2341  0.9444  0.2581
 8919TIP3    H148248   0.253   5.625   3.266  0.7087  0.3286 -1.9856
 8919TIP3    H248249   0.260   5.548   3.396 -0.8137  3.3482  0.0098
 8920TIP3   OH248250   2.957   1.023   2.865 -0.7552  0.1924  0.2779
 8920TIP3    H148251   2.922   0.941   2.901  1.1972 -0.7517  0.1964
 8920TIP3    H248252   2.962   1.007   2.770 -1.2525  0.7760  0.1512
 8921TIP3   OH248253   5.811   2.865   2.079  0.0647 -0.2201  0.0995
 8921TIP3    H148254   5.762   2.847   2.160 -1.8695 -2.1224 -1.3704
 8921TIP3    H248255   5.889   2.810   2.085  0.2171  0.0663  0.8843
 8922TIP3   OH248256   5.019   3.011   5.829 -0.2515  0.3746 -0.3831
 8922TIP3    H148257   5.068   2.953   5.887  0.4166 -0.0598 -1.3428
 8922TIP3    H248258   5.017   2.964   5.745  2.0863  2.5892 -1.7873
 8923TIP3   OH248259   3.347   3.625  15.804  0.2810 -0.2342 -0.6056
 8923TIP3    H148260   3.270   3.582  15.768  0.4864 -0.5653 -0.6591
 8923TIP3    H248261   3.356   3.706  15.753 -1.0663  0.7253  0.5963
 8924TIP3   OH248262   3.723   5.197  16.027 -0.2106  0.4004  0.4470
 8924TIP3    H148263   3.738   5.285  16.062 -0.8137  0.2672  1.0544
 8924TIP3    H248264   3.811   5.158  16.023  0.0530  1.0061  0.2262
 8925TIP3   OH248265   5.801   2.868  13.493 -0.1287  0.2355  0.5409
 8925TIP3    H148266   5.839   2.918  13.565  1.1224 -0.3333  0.3012
 8925TIP3    H248267   5.858   2.792  13.483 -0.5535  0.0521 -0.7327
 8926TIP3   OH248268   5.097   1.713  13.131  0.2137  0.0507  0.2111
 8926TIP3    H148269   5.044   1.745  13.057 -0.8105  2.4559  1.8418
 8926TIP3    H248270   5.177   1.680  13.091 -0.7064  0.3648 -2.0383
 8927TIP3   OH248271   5.287   2.602   5.556  0.4574 -0.2858  0.0025
 8927TIP3    H148272   5.339   2.682   5.567  0.8046 -0.4665 -0.3004
 8927TIP3    H248273   5.226   2.623   5.486  1.0917 -0.5459 -0.6469
 8928TIP3   OH248274   3.821   2.498  12.693 -0.0575  0.3395  0.2170
 8928TIP3    H148275   3.847   2.445  12.618 -0.7119 -0.0122  0.2329
 8928TIP3    H248276   3.897   2.495  12.752  0.2523  0.1747 -0.1879
 8929TIP3   OH248277   6.703   2.715   4.953 -0.5342  0.4826  0.3318
 8929TIP3    H148278   6.776   2.773   4.972 -0.2066 -0.0673  0.8032
 8929TIP3    H248279   6.629   2.753   5.000 -0.1371  0.1069  1.3105
 8930TIP3   OH248280   5.805   2.369   1.820  0.5307  0.0619  0.1344
 8930TIP3    H148281   5.897   2.347   1.809 -0.1787 -2.9846 -0.4690
 8930TIP3    H248282   5.798   2.399   1.911  1.8689 -1.0706  0.6295
 8931TIP3   OH248283   3.632   0.050  13.796 -0.5810 -0.5285 -0.5711
 8931TIP3    H148284   3.548   0.067  13.752 -0.2351  0.7390 -0.7978
 8931TIP3    H248285   3.659  -0.035  13.763 -0.7501  0.0019 -2.1972
 8932TIP3   OH248286   6.258   2.497  16.247  0.1122 -0.3949 -0.5932
 8932TIP3    H148287   6.258   2.497  16.343 -1.2979 -1.5994 -0.5624
 8932TIP3    H248288   6.252   2.590  16.223  1.6677  0.0157  0.4278
 8933TIP3   OH248289   1.263   0.044   1.423 -0.0109 -0.6846  0.0625
 8933TIP3    H148290   1.187   0.086   1.462  0.0337  0.1238 -0.6822
 8933TIP3    H248291   1.262  -0.046   1.457  0.0010 -0.0525  1.8634
 8934TIP3   OH248292   0.504   1.979  11.218 -0.4910 -0.3690  0.3481
 8934TIP3    H148293   0.596   1.998  11.200 -0.1672  1.1473  3.1126
 8934TIP3    H248294   0.505   1.894  11.263 -0.1539  0.5906  2.2333
 8935TIP3   OH248295   5.163   6.666  15.367 -0.1151 -0.2536 -0.4593
 8935TIP3    H148296   5.187   6.582  15.329  0.1242  0.2414 -1.4554
 8935TIP3    H248297   5.187   6.659  15.459  1.1857 -0.7942 -0.8182
 8936TIP3   OH248298   2.733   2.377   4.384  0.2555 -0.2520  0.0674
 8936TIP3    H148299   2.643   2.348   4.367 -0.1890  0.5127  0.9844
 8936TIP3    H248300   2.787   2.301   4.365 -0.5760 -0.7076 -0.5611
 8937TIP3   OH248301   5.466   1.598   0.943 -0.0500 -0.2731  0.0115
 8937TIP3    H148302   5.474   1.518   0.890 -0.7991 -0.7708  0.6258
 8937TIP3    H248303   5.431   1.663   0.882 -0.9779 -0.8610 -0.1007
 8938TIP3   OH248304   3.870   6.660  12.331  0.1744 -0.4468  0.4440
 8938TIP3    H148305   3.909   6.747  12.333 -0.3515 -0.2140  1.5998
 8938TIP3    H248306   3.941   6.601  12.355  0.3193 -0.2442  0.5145
 8939TIP3   OH248307   1.808   0.463   4.515 -0.2017  0.1378 -0.5263
 8939TIP3    H148308   1.822   0.527   4.585 -0.6039 -1.4691  1.1009
 8939TIP3    H248309   1.896   0.445   4.482 -0.0549  1.2775 -0.7937
 8940TIP3   OH248310   0.123   3.873   0.330 -0.3971 -0.5746 -0.7685
 8940TIP3    H148311   0.030   3.862   0.309 -0.2467 -0.0439 -1.8018
 8940TIP3    H248312   0.167   3.875   0.244  0.5450 -0.6141 -0.3052
 8941TIP3   OH248313   6.727   3.149   0.278 -0.3395  0.1611 -0.3698
 8941TIP3    H148314   6.820   3.138   0.297 -0.4459 -0.6746 -0.3085
 8941TIP3    H248315   6.723   3.154   0.182 -0.2456  0.0530 -0.3795
 8942TIP3   OH248316   1.374   6.519  16.870 -0.2553  0.4692 -0.5266
 8942TIP3    H148317   1.312   6.447  16.867  0.6419 -0.3301 -0.6355
 8942TIP3    H248318   1.342   6.576  16.940 -1.2525  0.2316 -0.7767
 8943TIP3   OH248319   1.373   2.043   1.744 -0.4871  0.4326 -0.2560
 8943TIP3    H148320   1.466   2.063   1.732 -0.0765 -1.2622 -0.1573
 8943TIP3    H248321   1.329   2.086   1.671  0.2978  1.6763 -0.0201
 8944TIP3   OH248322   3.657   0.563  15.087 -0.2192 -0.4019 -0.5020
 8944TIP3    H148323   3.697   0.484  15.123  2.3906  1.2034  0.4620
 8944TIP3    H248324   3.659   0.626  15.160  0.2408  1.3120 -1.9141
 8945TIP3   OH248325   6.135   2.365   0.874 -0.2071  0.0875  0.8389
 8945TIP3    H148326   6.215   2.333   0.833 -0.9805  0.1644 -0.7840
 8945TIP3    H248327   6.100   2.429   0.812 -0.5505  1.4741  2.3990
 8946TIP3   OH248328   5.536   6.788   2.722 -0.1786 -0.0899 -0.1752
 8946TIP3    H148329   5.611   6.755   2.673 -0.3541 -0.7816  0.0166
 8946TIP3    H248330   5.526   6.727   2.795 -0.2836  0.5936  0.3907
 8947TIP3   OH248331   1.845   3.511   2.407 -0.3300  0.2720 -0.1197
 8947TIP3    H148332   1.858   3.420   2.382 -0.4056 -0.2596  1.6526
 8947TIP3    H248333   1.904   3.560   2.349  0.4173 -0.9798 -0.4613
 8948TIP3   OH248334   2.679   2.538  13.344 -0.1345  0.0141 -0.5782
 8948TIP3    H148335   2.748   2.597  13.313 -0.1030  0.2953  0.0107
 8948TIP3    H248336   2.598   2.576  13.310 -0.4997  2.3016  2.3960
 8949TIP3   OH248337   0.817   6.721  14.213  0.0673  0.0526 -0.2925
 8949TIP3    H148338   0.774   6.661  14.152 -1.5599  0.4784  0.3776
 8949TIP3    H248339   0.909   6.723  14.184 -0.6190  0.2213 -2.6801
 8950TIP3   OH248340   5.996   0.105  13.627  0.6177  0.5085 -0.2439
 8950TIP3    H148341   5.905   0.130  13.609  0.0020 -0.2049  1.6015
 8950TIP3    H248342   5.993   0.069  13.715  2.8318  1.1007  0.1265
 8951TIP3   OH248343   6.636   2.262   3.234  0.0255  0.1078  0.2917
 8951TIP3    H148344   6.596   2.345   3.261 -0.4581 -0.1121  0.2561
 8951TIP3    H248345   6.728   2.270   3.262 -0.4481 -0.1179  2.0600
 8952TIP3   OH248346   6.316   1.596   2.209  0.0871  0.7156  0.6510
 8952TIP3    H148347   6.375   1.649   2.262 -0.0530  1.1169  0.4075
 8952TIP3    H248348   6.359   1.511   2.204 -0.3900  0.3287  2.2897
 8953TIP3   OH248349   2.847   5.771  11.391 -0.1365 -0.1801 -0.0521
 8953TIP3    H148350   2.805   5.762  11.306 -1.2375 -1.4621  0.5942
 8953TIP3    H248351   2.811   5.699  11.444 -0.5482  1.3889  1.9306
 8954TIP3   OH248352   3.369   6.821   4.389  0.4364 -0.1901  0.2992
 8954TIP3    H148353   3.317   6.743   4.370 -1.1945  0.9381 -0.0886
 8954TIP3    H248354   3.415   6.839   4.307  0.8473 -0.7548  0.4014
 8955TIP3   OH248355   5.619   5.983   3.006 -0.5101 -0.8409 -0.0100
 8955TIP3    H148356   5.668   5.954   3.083  0.0929  0.5484  0.1771
 8955TIP3    H248357   5.671   6.056   2.972 -1.2833 -0.8042 -1.1670
 8956TIP3   OH248358   4.297   2.777  11.764  0.6319  0.3188  0.3278
 8956TIP3    H148359   4.299   2.871  11.782 -0.6615  0.4338  0.0277
 8956TIP3    H248360   4.225   2.744  11.818  1.4062 -0.6043  0.8242
 8957TIP3   OH248361   3.502   6.583   0.472  0.2972  0.2301 -0.5402
 8957TIP3    H148362   3.452   6.608   0.549 -0.2138 -1.3093 -0.3347
 8957TIP3    H248363   3.439   6.591   0.400  0.3494  0.2383 -0.5849
 8958TIP3   OH248364   4.229   2.042   3.666 -0.6646  0.1399 -0.7432
 8958TIP3    H148365   4.314   1.998   3.674  0.3697  2.3765  2.3587
 8958TIP3    H248366   4.168   1.984   3.712  0.0795  0.4451  0.6932
 8959TIP3   OH248367   1.837   5.520   5.325 -0.1495 -0.6023  0.3787
 8959TIP3    H148368   1.801   5.600   5.363  1.5606 -0.3236  1.5344
 8959TIP3    H248369   1.814   5.525   5.232 -1.5092  0.3909  0.7359
 8960TIP3   OH248370   6.182   2.032  14.627  0.3954 -0.5635 -0.0052
 8960TIP3    H148371   6.242   2.022  14.552  0.2653 -0.1005 -0.1735
 8960TIP3    H248372   6.231   2.086  14.689  0.0995 -0.0611 -0.2048
 8961TIP3   OH248373   3.451   3.015  12.047 -0.1939  0.7388 -0.5237
 8961TIP3    H148374   3.449   3.046  11.956 -0.6419  0.2063 -0.7024
 8961TIP3    H248375   3.459   3.094  12.099  0.6124  1.0156 -1.0508
 8962TIP3   OH248376   0.986   6.094  14.758  0.1175 -0.3066 -0.5162
 8962TIP3    H148377   1.070   6.131  14.786 -0.6758  2.4654 -1.3958
 8962TIP3    H248378   1.000   6.067  14.667  0.1656 -0.1801 -0.5470
 8963TIP3   OH248379   0.241   4.198   0.194  0.0473 -0.3946 -0.2470
 8963TIP3    H148380   0.286   4.275   0.160  0.3304 -0.4116  0.0855
 8963TIP3    H248381   0.163   4.233   0.237 -2.2996 -0.5858 -3.9373
 8964TIP3   OH248382   2.429   5.257  13.793 -0.0041 -0.2283  0.0435
 8964TIP3    H148383   2.375   5.335  13.785  2.0781  1.1628 -1.5098
 8964TIP3    H248384   2.436   5.223  13.703  1.2246 -0.6516  0.2725
 8965TIP3   OH248385   1.219   3.141  11.668 -0.0976  0.5028  0.0809
 8965TIP3    H148386   1.246   3.074  11.606  0.4761  0.7945  0.0071
 8965TIP3    H248387   1.189   3.214  11.614 -3.2285 -0.6122  0.1291
 8966TIP3   OH248388   1.900   4.646   0.864  0.0825  0.0252  0.7864
 8966TIP3    H148389   1.833   4.667   0.929 -1.9326  0.6374 -1.3137
 8966TIP3    H248390   1.858   4.582   0.807 -0.2553  2.9792 -2.6956
 8967TIP3   OH248391   0.476   2.947   0.981 -0.5645 -0.5142 -0.3038
 8967TIP3    H148392   0.452   3.040   0.991 -0.7273 -0.5613 -0.2523
 8967TIP3    H248393   0.442   2.923   0.895  1.0627 -0.0389 -1.1140
 8968TIP3   OH248394   6.706   3.854   5.516  0.2312 -0.1811 -0.7828
 8968TIP3    H148395   6.653   3.892   5.445  1.7409  2.3714 -0.6932
 8968TIP3    H248396   6.647   3.849   5.591 -0.4432  0.5620 -1.2493
 8969TIP3   OH248397   1.988   2.148   5.402 -0.2323 -0.0207 -0.4719
 8969TIP3    H148398   2.072   2.176   5.366 -0.1003 -0.5749 -0.5974
 8969TIP3    H248399   1.933   2.130   5.325  0.3188 -2.0296 -0.4418
 8970TIP3   OH248400   6.652   4.097  14.949 -0.0023 -0.0414  0.2361
 8970TIP3    H148401   6.698   4.039  14.888  1.6977 -0.4173  1.7897
 8970TIP3    H248402   6.707   4.098  15.027 -0.7478  2.4898  0.8303
 8971TIP3   OH248403   5.013   3.923  14.881  0.0962 -0.5004 -0.4914
 8971TIP3    H148404   5.007   3.856  14.950 -2.0093 -0.9658 -1.0691
 8971TIP3    H248405   5.066   3.881  14.813  0.5579 -0.7715  0.0199
 8972TIP3   OH248406   0.726   3.825   2.765  0.3163 -0.0879 -0.1749
 8972TIP3    H148407   0.819   3.833   2.741  0.2426 -0.5118 -0.6186
 8972TIP3    H248408   0.679   3.839   2.682 -0.0137  0.0388  0.0320
 8973TIP3   OH248409   5.543   6.000  15.684  0.5462 -0.4291 -0.0637
 8973TIP3    H148410   5.552   6.064  15.755 -2.2109  0.1599 -0.1270
 8973TIP3    H248411   5.564   6.049  15.605 -2.3964  0.7802 -0.2035
 8974TIP3   OH248412   6.694   5.307  13.006  0.1709  0.4178  0.6934
 8974TIP3    H148413   6.651   5.227  13.035 -0.5679  0.5909  0.1137
 8974TIP3    H248414   6.784   5.281  12.988  0.4209  0.1219  2.2510
 8975TIP3   OH248415   5.912   0.339   2.677  0.5748  0.5980  0.3083
 8975TIP3    H148416   5.846   0.333   2.746  1.2344 -1.0578  0.8531
 8975TIP3    H248417   5.994   0.312   2.719  0.9396 -0.7632 -1.1691
 8976TIP3   OH248418   2.804   6.251   1.043  0.3979 -0.3243 -0.5684
 8976TIP3    H148419   2.849   6.222   1.122 -0.1008 -0.6055 -0.3820
 8976TIP3    H248420   2.767   6.336   1.066 -1.5864 -1.3259  0.2548
 8977TIP3   OH248421   2.875   6.561   2.782 -0.4077 -0.3902  0.3115
 8977TIP3    H148422   2.809   6.621   2.816  1.9498  2.4058  0.2724
 8977TIP3    H248423   2.841   6.532   2.697 -1.5446  0.9977  0.2677
 8978TIP3   OH248424   1.355   6.265   1.161 -0.5662 -0.2262 -0.0225
 8978TIP3    H148425   1.303   6.197   1.204  1.5556 -1.7388  0.3401
 8978TIP3    H248426   1.445   6.248   1.190  0.0450  2.9409  0.2649
 8979TIP3   OH248427   6.665   3.155  13.387 -0.5291  0.0487  0.3452
 8979TIP3    H148428   6.758   3.130  13.379 -1.1561 -2.1072 -1.2119
 8979TIP3    H248429   6.652   3.165  13.481  1.1121 -0.4121  0.6659
 8980TIP3   OH248430   1.473   2.586   4.119 -0.4085 -0.5182 -0.0522
 8980TIP3    H148431   1.533   2.511   4.113 -0.4101 -0.5999  0.8809
 8980TIP3    H248432   1.529   2.661   4.099  0.8524 -0.2291  3.7413
 8981TIP3   OH248433   5.079   4.647   2.196  0.6435 -0.4858  0.1063
 8981TIP3    H148434   5.039   4.685   2.118  2.8218 -0.0018 -0.8525
 8981TIP3    H248435   5.111   4.562   2.167  2.3870  0.1203  0.1080
 8982TIP3   OH248436   1.005   3.222  12.650  0.3595 -0.1771  0.2210
 8982TIP3    H148437   0.958   3.138  12.649 -0.8934  0.4257  2.2493
 8982TIP3    H248438   0.965   3.272  12.579 -0.6446 -0.4383  0.5842
 8983TIP3   OH248439   1.130   4.070  15.561  0.3634  0.2249  0.5164
 8983TIP3    H148440   1.041   4.080  15.594  0.0133  0.7626 -0.5531
 8983TIP3    H248441   1.134   4.126  15.483  1.6325  0.2016  0.5413
 8984TIP3   OH248442   3.561   3.879  12.488  0.1247  0.1116 -0.3054
 8984TIP3    H148443   3.652   3.886  12.457  0.3347  1.2251  0.4770
 8984TIP3    H248444   3.558   3.796  12.535  1.6453  1.4158  2.3334
 8985TIP3   OH248445   2.895   1.228   0.999 -0.1044  0.0912  0.1090
 8985TIP3    H148446   2.805   1.240   0.970  0.5291 -1.5054 -2.9345
 8985TIP3    H248447   2.936   1.313   0.983 -0.5505  0.1624 -0.7204
 8986TIP3   OH248448   4.679   4.482  14.704  0.2587  0.0888 -0.9069
 8986TIP3    H148449   4.600   4.498  14.755  1.9043  0.8387  1.6330
 8986TIP3    H248450   4.692   4.562  14.653  0.1225  0.5808 -0.1952
 8987TIP3   OH248451   2.761   3.884  16.886 -0.1619 -0.0849  0.6234
 8987TIP3    H148452   2.673   3.863  16.918 -0.1981 -1.4641 -0.3028
 8987TIP3    H248453   2.746   3.940  16.810 -0.2755 -0.6823  0.1972
 8988TIP3   OH248454   4.222   0.512  14.186 -0.1874  0.2420  0.4085
 8988TIP3    H148455   4.201   0.477  14.099  2.0911  0.3382 -0.2451
 8988TIP3    H248456   4.168   0.591  14.193 -0.0252  0.5341 -1.1615
 8989TIP3   OH248457   0.696   4.232   3.516 -0.1616  0.0420 -0.6352
 8989TIP3    H148458   0.694   4.306   3.455 -0.4426  0.6846  0.1456
 8989TIP3    H248459   0.681   4.270   3.602 -0.5364 -0.9556 -0.2372
 8990TIP3   OH248460   6.636   5.478  12.797 -0.3370  0.0080  0.8809
 8990TIP3    H148461   6.655   5.412  12.864  1.0005  0.5253  1.0419
 8990TIP3    H248462   6.615   5.557  12.847 -0.0081  0.2121  0.6994
 8991TIP3   OH248463   6.290   0.999   2.176 -0.2385  0.4391  0.0748
 8991TIP3    H148464   6.220   1.045   2.222  0.3142 -0.1424  1.5433
 8991TIP3    H248465   6.280   0.908   2.203  0.2079  0.1107 -0.8456
 8992TIP3   OH248466   4.026   2.490   1.343 -0.0130  0.3126  0.3661
 8992TIP3    H148467   4.072   2.497   1.427 -1.2630  0.4043  1.0591
 8992TIP3    H248468   3.954   2.429   1.359 -1.1336  1.4215 -0.2293
 8993TIP3   OH248469   2.711   3.966  11.251 -0.4863  0.0474 -0.5690
 8993TIP3    H148470   2.724   3.875  11.275 -3.4225  0.0343  1.5989
 8993TIP3    H248471   2.649   3.963  11.177 -0.3284  0.2733 -0.7123
 8994TIP3   OH248472   1.042   0.808  14.099 -0.0495  0.4103 -0.8074
 8994TIP3    H148473   0.951   0.829  14.074 -1.6450 -3.3653  1.0009
 8994TIP3    H248474   1.070   0.743  14.035  0.0157 -0.9555  0.5379
 8995TIP3   OH248475   6.784   4.630  12.267 -0.0184  0.0102 -0.0248
 8995TIP3    H148476   6.730   4.553  12.250 -1.8128  0.6343  2.3290
 8995TIP3    H248477   6.753   4.696  12.205 -0.8930 -0.1284  0.2498
 8996TIP3   OH248478   1.966   0.001  15.821 -0.1312  0.0559  0.4988
 8996TIP3    H148479   1.980   0.036  15.733 -0.7557 -1.5867 -0.3074
 8996TIP3    H248480   2.053  -0.005  15.859  0.1854  0.4552 -0.1545
 8997TIP3   OH248481   3.896   0.353  15.727 -0.3041 -0.6686  0.2548
 8997TIP3    H148482   3.979   0.327  15.767  1.0270  0.7947 -1.3759
 8997TIP3    H248483   3.892   0.304  15.645 -2.0217 -2.1135  1.1153
 8998TIP3   OH248484   3.232   4.409  16.352  0.4128 -0.2797  0.1213
 8998TIP3    H148485   3.207   4.392  16.443 -0.0391  0.8960  0.2429
 8998TIP3    H248486   3.266   4.326  16.320 -2.3234 -1.6158  0.3849
 8999TIP3   OH248487   1.268   3.482  15.910  0.2475 -0.4836 -0.2497
 8999TIP3    H148488   1.334   3.417  15.886  0.2084 -0.7663  0.3707
 8999TIP3    H248489   1.274   3.549  15.843  1.2126 -0.4772 -0.1681
 9000TIP3   OH248490   5.928   4.928   1.184 -0.1504 -0.4758 -0.6888
 9000TIP3    H148491   6.007   4.969   1.148  1.3951 -2.0768  0.7219
 9000TIP3    H248492   5.885   4.999   1.232  1.2545  0.0816 -0.1870
 9001TIP3   OH248493   3.534   3.090  16.509  0.6604  0.2276 -0.4339
 9001TIP3    H148494   3.498   3.006  16.540  0.1173  0.8272  0.6142
 9001TIP3    H248495   3.472   3.118  16.441 -1.2029  1.4572  1.6503
 9002TIP3   OH248496   3.064   0.199  14.808  0.2487  0.3765  0.1493
 9002TIP3    H148497   3.112   0.126  14.845 -0.9158  0.0845  1.1494
 9002TIP3    H248498   3.128   0.246  14.755  0.8962 -1.6914 -1.0293
 9003TIP3   OH248499   1.672   5.274   5.461  0.1285 -0.1496  0.4843
 9003TIP3    H148500   1.694   5.354   5.413 -0.5393 -0.5510 -0.5415
 9003TIP3    H248501   1.578   5.280   5.476  0.0146 -0.8739  0.1127
 9004TIP3   OH248502   6.197   1.679   1.960 -0.1099  0.2198  0.1957
 9004TIP3    H148503   6.257   1.654   1.890 -1.9761 -0.5371 -1.2011
 9004TIP3    H248504   6.238   1.644   2.040  1.5824  0.2680 -0.6106
 9005TIP3   OH248505   1.111   4.893   2.311  0.0845 -0.0795  0.4573
 9005TIP3    H148506   1.096   4.979   2.271  1.3453  0.8230  1.7871
 9005TIP3    H248507   1.202   4.871   2.288  0.1812 -0.4557  1.1628
 9006TIP3   OH248508   5.308   1.912  13.742 -0.3178  0.1385  0.2022
 9006TIP3    H148509   5.218   1.881  13.746 -0.0104 -0.6881  1.1300
 9006TIP3    H248510   5.333   1.923  13.834  0.7145 -0.2061 -0.0321
 9007TIP3   OH248511   2.696   2.645  13.672 -0.1935 -0.4548  0.1829
 9007TIP3    H148512   2.682   2.740  13.668 -0.7432 -0.5600 -0.8434
 9007TIP3    H248513   2.610   2.607  13.651  0.4460 -1.1514 -1.3026
 9008TIP3   OH248514   4.428   4.188  15.429 -0.2667 -0.3098 -0.1434
 9008TIP3    H148515   4.406   4.246  15.502 -0.9672 -0.7724  0.0182
 9008TIP3    H248516   4.389   4.104  15.452 -0.6304 -0.4170 -1.1205
 9009TIP3   OH248517   5.861   5.461  15.655  0.3488  0.4426  0.4609
 9009TIP3    H148518   5.831   5.532  15.712  2.5707  1.6435  0.2562
 9009TIP3    H248519   5.955   5.475  15.647  0.7614 -2.1515 -0.1769
 9010TIP3   OH248520   2.982   0.905  15.901 -0.0935 -0.0976 -0.5515
 9010TIP3    H148521   3.069   0.940  15.921 -0.4461  0.2731  0.3682
 9010TIP3    H248522   2.957   0.950  15.820  0.5539 -0.1901 -0.8102
 9011TIP3   OH248523   0.358   4.433   1.912  0.0752 -0.4102  0.2817
 9011TIP3    H148524   0.379   4.340   1.921 -0.0560 -0.7343 -2.1061
 9011TIP3    H248525   0.442   4.476   1.901  0.0908 -0.3160  0.7380
 9012TIP3   OH248526   0.494   4.280   5.635 -0.3339  0.2924 -0.0210
 9012TIP3    H148527   0.400   4.284   5.655 -1.2254 -2.0450 -2.9950
 9012TIP3    H248528   0.536   4.269   5.721 -2.7285  1.2012  1.3821
 9013TIP3   OH248529   6.638   0.253   6.271  0.0994  0.1150  0.4436
 9013TIP3    H148530   6.609   0.344   6.278  1.6525  0.5241  2.4523
 9013TIP3    H248531   6.653   0.225   6.361  2.6730 -1.0790 -0.2535
 9014TIP3   OH248532   4.565   2.563   1.944 -0.1874  0.3033  0.3406
 9014TIP3    H148533   4.641   2.606   1.984  0.2137  0.2775 -0.3859
 9014TIP3    H248534   4.579   2.571   1.850 -0.2099 -1.2264  0.1789
 9015TIP3   OH248535   1.154   4.917  12.894 -0.0108 -0.1548  0.4625
 9015TIP3    H148536   1.194   5.003  12.881  0.7676 -0.8086 -2.0952
 9015TIP3    H248537   1.061   4.931  12.873 -0.1823  0.2980  1.4234
 9016TIP3   OH248538   3.857   3.091   1.164 -0.1832 -0.4287  0.4720
 9016TIP3    H148539   3.859   3.053   1.252 -0.1790  1.3192  1.2776
 9016TIP3    H248540   3.831   3.182   1.178  1.3356  0.3168 -1.1795
 9017TIP3   OH248541   0.039   2.068   3.331  1.0618  0.6147  0.0218
 9017TIP3    H148542  -0.013   2.003   3.284  0.9843  0.7662 -0.1032
 9017TIP3    H248543   0.003   2.069   3.419 -0.0469  1.6887 -0.4177
 9018TIP3   OH248544   5.414   5.631   6.565 -0.4342  0.2426 -0.4731
 9018TIP3    H148545   5.337   5.632   6.508  0.1166  1.4322 -1.2448
 9018TIP3    H248546   5.414   5.717   6.607 -0.3024 -0.2765  0.6258
 9019TIP3   OH248547   1.247   1.363   0.860 -0.0676 -0.0823 -0.5877
 9019TIP3    H148548   1.339   1.348   0.878 -0.1447  0.6861  0.5541
 9019TIP3    H248549   1.213   1.404   0.940 -1.0623  0.9882 -1.5146
 9020TIP3   OH248550   1.549   3.342  12.916 -0.0632  0.2665 -0.7127
 9020TIP3    H148551   1.516   3.409  12.976 -0.4234  0.5261 -1.1923
 9020TIP3    H248552   1.486   3.270  12.925 -0.1824  0.3514 -0.8631
 9021TIP3   OH248553   0.787   5.314  10.821 -0.1171  0.5384  0.4477
 9021TIP3    H148554   0.873   5.273  10.819  0.1245  1.0625 -0.9366
 9021TIP3    H248555   0.731   5.255  10.771 -0.0257  1.2814 -0.5750
 9022TIP3   OH248556   4.212   6.692   2.647 -0.1731 -0.3882 -0.1165
 9022TIP3    H148557   4.131   6.741   2.643 -0.2663 -0.4159  0.9898
 9022TIP3    H248558   4.264   6.737   2.713  0.8666 -0.1530 -1.0709
 9023TIP3   OH248559   1.984   1.338  15.401  0.3625 -0.3034  0.3617
 9023TIP3    H148560   1.991   1.433  15.410 -0.6688 -0.3329  1.6736
 9023TIP3    H248561   1.968   1.324  15.307 -2.2703  1.0414  0.5283
 9024TIP3   OH248562   6.139   2.312  13.530 -0.3417 -0.3668 -0.1451
 9024TIP3    H148563   6.232   2.311  13.508 -0.4620  0.4617 -0.7783
 9024TIP3    H248564   6.095   2.290  13.448 -0.7041 -0.6031  0.1124
 9025TIP3   OH248565   1.795   3.482   1.200 -0.1810 -0.6671  0.0636
 9025TIP3    H148566   1.827   3.556   1.251 -0.4837 -0.2588 -0.3249
 9025TIP3    H248567   1.701   3.479   1.218 -0.0652 -1.3721  0.5921
 9026TIP3   OH248568   2.090   4.252  10.753  0.0907  0.1260  0.3790
 9026TIP3    H148569   2.100   4.342  10.784 -0.6672  0.7598 -1.0965
 9026TIP3    H248570   2.084   4.260  10.657  0.3214 -1.5215  0.1964
 9027TIP3   OH248571   6.752   2.834  15.515 -0.4121 -0.0584 -0.1366
 9027TIP3    H148572   6.724   2.903  15.455  1.1660  1.6690  0.9949
 9027TIP3    H248573   6.801   2.773  15.461 -2.9046 -1.0630 -1.3991
 9028TIP3   OH248574   1.289   1.084   3.043  0.2979  0.0239  0.4407
 9028TIP3    H148575   1.363   1.095   3.104  1.6190 -1.5168 -0.7978
 9028TIP3    H248576   1.232   1.021   3.086  0.9400 -0.6217  0.3735
 9029TIP3   OH248577   5.999   1.471  11.151 -0.5258  0.1536 -0.5992
 9029TIP3    H148578   5.941   1.396  11.155  0.4589 -0.6880 -1.4967
 9029TIP3    H248579   5.999   1.497  11.058  1.1389 -0.3918 -0.7853
 9030TIP3   OH248580   0.736   2.402   4.779  0.0007  0.2907 -0.4637
 9030TIP3    H148581   0.703   2.347   4.850 -1.5321  0.9026 -0.6652
 9030TIP3    H248582   0.745   2.489   4.817 -0.6699  0.5879 -0.9687
 9031TIP3   OH248583   6.015   2.409   6.412  0.0938 -0.2565 -0.4736
 9031TIP3    H148584   5.947   2.451   6.463  1.6210 -0.4631  1.9064
 9031TIP3    H248585   6.015   2.318   6.442  1.0174 -0.4005 -0.8624
 9032TIP3   OH248586   2.990   5.578  16.608  0.2737  0.2296 -0.1911
 9032TIP3    H148587   2.949   5.641  16.667  1.8693  2.8497 -1.7009
 9032TIP3    H248588   2.926   5.508  16.599 -2.9679  3.0123 -0.6685
 9033TIP3   OH248589   3.469   1.398  16.118 -0.5012  0.7321 -0.3319
 9033TIP3    H148590   3.430   1.451  16.187  0.9609 -0.8906  1.8808
 9033TIP3    H248591   3.424   1.313  16.124  0.7021  0.0733 -0.3038
 9034TIP3   OH248592   4.341   0.437  11.930  0.5555  0.3675 -0.4204
 9034TIP3    H148593   4.362   0.349  11.964 -1.2788  0.4632  1.1392
 9034TIP3    H248594   4.251   0.453  11.959  0.1044  1.9434 -2.4831
 9035TIP3   OH248595   4.942   3.455  17.033  0.2831 -0.2218 -0.4766
 9035TIP3    H148596   4.965   3.505  16.954  1.4565 -0.9074 -0.5957
 9035TIP3    H248597   4.998   3.377  17.028  0.1610 -0.4048  0.8908
 9036TIP3   OH248598   6.831   4.334  16.521  0.3873 -0.3555 -0.1606
 9036TIP3    H148599   6.846   4.268  16.589 -0.5099  0.8422  1.2598
 9036TIP3    H248600   6.910   4.331  16.467  2.1591  0.1821  2.2468
 9037TIP3   OH248601   4.218   2.765  15.790  0.3144  0.1823  0.5239
 9037TIP3    H148602   4.153   2.819  15.834 -0.6074 -1.0809  0.7875
 9037TIP3    H248603   4.302   2.805  15.812 -0.3314  1.4798  0.7023
 9038TIP3   OH248604   5.908   1.623  10.881  0.1503 -0.4383 -0.0089
 9038TIP3    H148605   5.964   1.593  10.810  1.4744 -0.8218  1.1599
 9038TIP3    H248606   5.937   1.712  10.899  0.8017 -0.8361  0.9797
 9039TIP3   OH248607   1.762   4.759   6.539  0.1820 -0.1024  0.3883
 9039TIP3    H148608   1.717   4.675   6.537  0.3599 -0.2675  2.0250
 9039TIP3    H248609   1.739   4.800   6.456  1.5902 -2.4991 -1.3158
 9040TIP3   OH248610   2.516   1.017   4.424  0.3296 -0.7525 -0.4135
 9040TIP3    H148611   2.483   1.067   4.350  2.8721  0.9561 -0.5155
 9040TIP3    H248612   2.522   0.927   4.393 -2.7203 -0.9227 -0.7910
 9041TIP3   OH248613   3.775   4.990  11.248  0.0025 -0.4320 -0.5519
 9041TIP3    H148614   3.868   4.974  11.236  0.1976  0.3257 -0.1380
 9041TIP3    H248615   3.741   4.910  11.289 -0.1506 -1.9750 -3.4365
 9042TIP3   OH248616   2.064   4.668  11.682  0.2485 -0.2562 -0.1267
 9042TIP3    H148617   2.054   4.761  11.666 -1.4117 -0.3116  0.4039
 9042TIP3    H248618   2.110   4.635  11.605  0.6846  0.9534 -0.4049
 9043TIP3   OH248619   3.045   3.812   3.542  0.6271 -0.7806 -0.1352
 9043TIP3    H148620   2.967   3.759   3.558  1.7406 -2.4400  0.0968
 9043TIP3    H248621   3.073   3.841   3.629 -0.4081  0.8980 -0.3242
 9044TIP3   OH248622   1.146   2.579  13.213  0.5786 -0.2681  0.1218
 9044TIP3    H148623   1.117   2.491  13.238 -0.2837 -0.0854 -0.1960
 9044TIP3    H248624   1.069   2.619  13.172  1.4253  0.0681 -1.2241
 9045TIP3   OH248625   3.274   3.004   1.561 -0.1274  0.0809  0.0981
 9045TIP3    H148626   3.230   2.965   1.486 -0.0427  0.1815 -0.0037
 9045TIP3    H248627   3.268   3.099   1.546  0.3428  0.0902 -0.0418
 9046TIP3   OH248628   0.929   1.012  16.612  0.1763 -0.5849  0.0391
 9046TIP3    H148629   0.984   1.070  16.559 -0.0012 -0.2142  0.2541
 9046TIP3    H248630   0.971   0.926  16.606  0.1790 -0.5392 -0.6671
 9047TIP3   OH248631   3.112   6.058   0.722  0.4371  0.3555 -0.2623
 9047TIP3    H148632   3.097   5.978   0.773  1.8038 -0.7965 -1.5802
 9047TIP3    H248633   3.050   6.121   0.759 -1.7558 -1.7232 -0.1269
 9048TIP3   OH248634   2.645   2.996   2.576  0.7363 -0.2991 -0.5773
 9048TIP3    H148635   2.607   2.960   2.497  0.3458  0.4349 -0.7349
 9048TIP3    H248636   2.572   3.041   2.620  1.0574 -0.2685 -0.0596
 9049TIP3   OH248637   0.191   4.665   1.310 -0.0570  0.3818  0.0943
 9049TIP3    H148638   0.278   4.648   1.347 -1.0640 -1.1905  1.9021
 9049TIP3    H248639   0.154   4.733   1.367 -0.9310 -0.7461  0.9047
 9050TIP3   OH248640   2.415   4.553  11.940 -0.0333  0.6136  0.1921
 9050TIP3    H148641   2.359   4.631  11.935 -1.1429 -0.0946  1.2100
 9050TIP3    H248642   2.465   4.564  12.020  0.4099  0.6578 -0.0864
 9051TIP3   OH248643   5.487   3.665  16.856  0.5419  0.2384  0.2580
 9051TIP3    H148644   5.489   3.747  16.807  1.4066  0.1471  0.1223
 9051TIP3    H248645   5.397   3.635  16.848  0.8463 -0.2480 -2.0892
 9052TIP3   OH248646   2.334   3.509   3.078 -0.1010  0.6609  0.3073
 9052TIP3    H148647   2.419   3.472   3.101  0.8261  1.9398 -0.9015
 9052TIP3    H248648   2.337   3.519   2.983 -1.6320  0.6696  0.2380
 9053TIP3   OH248649   1.839   0.845   1.145 -0.3492  0.0294 -0.1938
 9053TIP3    H148650   1.887   0.927   1.138  2.3700 -1.4310  0.1269
 9053TIP3    H248651   1.843   0.807   1.057  0.1221 -0.6219  0.1004
 9054TIP3   OH248652   2.993   6.220  15.333 -0.0717 -0.8164 -0.3760
 9054TIP3    H148653   2.960   6.262  15.413  0.8675 -2.0924  0.7498
 9054TIP3    H248654   3.044   6.288  15.289 -1.0079  0.0521 -0.1508
 9055TIP3   OH248655   5.807   2.789   4.363  0.1725  0.7951 -0.1818
 9055TIP3    H148656   5.834   2.872   4.325 -0.9147  1.1817 -0.1631
 9055TIP3    H248657   5.884   2.756   4.408  1.2425  0.7622 -1.9454
 9056TIP3   OH248658   3.066   5.445   5.515 -0.3734  0.0904  0.4503
 9056TIP3    H148659   3.133   5.412   5.456 -0.1165  2.0804 -0.4595
 9056TIP3    H248660   3.114   5.479   5.591 -0.2083  2.0735 -0.4692
 9057TIP3   OH248661   2.449   2.927  12.294  0.2616  0.1035 -0.0212
 9057TIP3    H148662   2.486   2.991  12.354 -1.8618  1.4993 -0.0833
 9057TIP3    H248663   2.495   2.942  12.211 -0.1365  1.5060 -0.0076
 9058TIP3   OH248664   2.214   1.125  15.309  0.1593  0.3481  0.3219
 9058TIP3    H148665   2.246   1.156  15.394  1.4246  0.7194 -0.2666
 9058TIP3    H248666   2.234   1.197  15.249 -1.7211  0.5499 -0.1064
 9059TIP3   OH248667   6.080   4.154  13.308 -0.1157  0.6393  0.3455
 9059TIP3    H148668   6.061   4.241  13.342 -1.8117  0.7120 -0.6442
 9059TIP3    H248669   6.128   4.169  13.227  1.6304  0.5418  1.3114
 9060TIP3   OH248670   5.786   3.979   2.676  0.0653 -0.6785 -0.6090
 9060TIP3    H148671   5.779   4.032   2.755 -0.1842 -0.7193 -0.6047
 9060TIP3    H248672   5.696   3.970   2.645  0.3059  0.8113 -1.8698
 9061TIP3   OH248673   0.854   1.718   3.672  0.0228  0.4624 -0.0925
 9061TIP3    H148674   0.788   1.785   3.686 -0.2918  0.1296  0.0163
 9061TIP3    H248675   0.846   1.695   3.579  0.1036  0.5431 -0.1200
 9062TIP3   OH248676   5.372   5.554  14.193  0.0812  0.4318  0.5481
 9062TIP3    H148677   5.322   5.631  14.164 -0.6715 -0.0497  0.5412
 9062TIP3    H248678   5.426   5.531  14.118 -0.2694  0.4839  0.2758
 9063TIP3   OH248679   3.660   4.923   5.598 -0.4609 -0.1034 -0.2087
 9063TIP3    H148680   3.612   4.842   5.615 -1.0302  0.3093  0.1923
 9063TIP3    H248681   3.715   4.935   5.676 -1.9826  1.0149  0.7574
 9064TIP3   OH248682   1.978   1.041  15.190  0.2023 -0.3146 -0.3073
 9064TIP3    H148683   1.977   0.955  15.233  1.3713 -0.0015  0.3965
 9064TIP3    H248684   2.050   1.088  15.232  0.0600  0.7483 -1.2021
 9065TIP3   OH248685   6.718   1.993  12.582  0.4663  0.2660  0.3887
 9065TIP3    H148686   6.632   1.993  12.540  0.8747  0.6835 -0.4755
 9065TIP3    H248687   6.703   2.034  12.668 -0.0878  0.8720  0.0094
 9066TIP3   OH248688   2.405   5.708   4.529  0.1104  0.5288 -0.3082
 9066TIP3    H148689   2.443   5.759   4.600 -0.9900  1.2008 -0.1715
 9066TIP3    H248690   2.380   5.774   4.463  0.6007 -0.0340 -1.0780
 9067TIP3   OH248691   0.789   0.207   6.056 -0.5104 -0.4749  0.5742
 9067TIP3    H148692   0.868   0.230   6.104 -0.9187 -0.6596  1.3630
 9067TIP3    H248693   0.818   0.144   5.990  0.1558  0.2231  0.1784
 9068TIP3   OH248694   6.348   1.367  17.200 -0.1455  0.4622 -0.2905
 9068TIP3    H148695   6.308   1.284  17.176  0.7266  0.3164 -1.3220
 9068TIP3    H248696   6.426   1.372  17.145 -0.0533  1.8462 -0.0587
 9069TIP3   OH248697   4.941   1.928   1.147 -0.0327  0.1859 -0.0304
 9069TIP3    H148698   5.015   1.955   1.201  1.3734  0.2185 -1.8527
 9069TIP3    H248699   4.973   1.853   1.098 -0.9208  0.6702 -1.4237
 9070TIP3   OH248700   0.261   4.304   2.505  0.0099 -0.3075  0.0358
 9070TIP3    H148701   0.340   4.266   2.545 -0.3249  0.3586  1.3859
 9070TIP3    H248702   0.294   4.367   2.441  0.6182  1.0581  1.6435
 9071TIP3   OH248703   2.469   2.186   4.048 -0.8474  0.1317  0.1930
 9071TIP3    H148704   2.486   2.273   4.084 -0.0127 -0.2293  0.7082
 9071TIP3    H248705   2.493   2.126   4.119  0.6177 -0.5999 -0.8859
 9072TIP3   OH248706   6.258   3.512  15.790 -0.0814 -0.0061  0.1065
 9072TIP3    H148707   6.230   3.588  15.841  1.2669  0.0443  0.8260
 9072TIP3    H248708   6.225   3.528  15.702 -2.4071 -0.0498  0.9036
 9073TIP3   OH248709   4.179   6.072  14.283 -0.1055  0.4674  0.3468
 9073TIP3    H148710   4.105   6.032  14.238 -0.0293  1.7342 -1.0062
 9073TIP3    H248711   4.256   6.045  14.232  0.0642  1.3088  0.1348
 9074TIP3   OH248712   1.822   3.351  10.354  0.1320 -0.0524 -0.3542
 9074TIP3    H148713   1.887   3.362  10.285 -0.2524  1.9595 -0.4607
 9074TIP3    H248714   1.822   3.435  10.401 -1.7408 -0.2947  0.1855
 9075TIP3   OH248715   0.310   5.703   1.707  0.4328 -0.3710  0.2743
 9075TIP3    H148716   0.387   5.674   1.756 -0.1287 -0.6539  1.0120
 9075TIP3    H248717   0.343   5.721   1.619  1.5392  0.4799  0.8381
 9076TIP3   OH248718   2.316   3.913  14.950 -0.2180  0.3578 -0.2850
 9076TIP3    H148719   2.389   3.969  14.973 -0.0884  0.2793 -0.4996
 9076TIP3    H248720   2.318   3.908  14.854 -2.2555  2.7072 -0.5363
 9077TIP3   OH248721   0.159   5.947   1.732 -0.0660 -0.1791 -0.4785
 9077TIP3    H148722   0.216   5.872   1.749 -0.0325 -0.3629 -1.3758
 9077TIP3    H248723   0.168   5.964   1.638 -0.1774  0.8655 -0.3078
 9078TIP3   OH248724   5.089   3.882  16.745 -0.5891 -0.0231  0.3444
 9078TIP3    H148725   5.061   3.944  16.811  0.7754  0.2647  0.6811
 9078TIP3    H248726   5.131   3.936  16.678 -1.7654 -0.3304 -0.6904
 9079TIP3   OH248727   5.264   5.362   6.404  0.0069  0.2492  0.5663
 9079TIP3    H148728   5.215   5.443   6.420  1.2567  1.0466  0.5314
 9079TIP3    H248729   5.316   5.349   6.484 -1.5433 -1.5711  1.3503
 9080TIP3   OH248730   3.142   4.264   1.576 -0.3854 -0.6363 -0.0868
 9080TIP3    H148731   3.175   4.354   1.575  2.4028 -1.5802 -0.9836
 9080TIP3    H248732   3.094   4.254   1.494 -2.1470  0.4432  0.7504
 9081TIP3   OH248733   4.329   2.183   1.656 -0.3518  0.5928 -0.8942
 9081TIP3    H148734   4.379   2.146   1.584 -0.2981 -0.5099 -0.3066
 9081TIP3    H248735   4.378   2.160   1.735 -1.1498  0.5467 -0.3989
 9082TIP3   OH248736   2.649   5.450  15.626 -0.4801 -0.2869  0.3616
 9082TIP3    H148737   2.575   5.427  15.571 -0.4126  1.0199 -0.3129
 9082TIP3    H248738   2.676   5.537  15.596  2.5703 -1.4898 -0.7486
 9083TIP3   OH248739   1.710   1.706  14.097 -0.0527  0.0681 -0.0007
 9083TIP3    H148740   1.737   1.752  14.017  2.0375 -0.1124  0.5640
 9083TIP3    H248741   1.615   1.716  14.099 -0.0120  1.1986 -1.8193
 9084TIP3   OH248742   3.890   1.187   4.707 -0.3696  0.0483 -0.3446
 9084TIP3    H148743   3.928   1.110   4.665  0.1058 -0.6569  1.2938
 9084TIP3    H248744   3.942   1.260   4.673  1.6778 -0.7682  0.8278
 9085TIP3   OH248745   1.070   3.447  17.163  0.2723 -0.8081 -0.4149
 9085TIP3    H148746   1.010   3.500  17.215  0.1674 -0.3332 -1.0131
 9085TIP3    H248747   1.037   3.454  17.073  0.2862 -1.8423 -0.5164
 9086TIP3   OH248748   4.795   1.814  15.210 -0.5088 -0.1233  0.0589
 9086TIP3    H148749   4.718   1.840  15.260 -1.0920 -0.0380 -0.8780
 9086TIP3    H248750   4.766   1.738  15.160 -1.3572  2.3987 -3.6447
 9087TIP3   OH248751   2.677   5.999   0.679 -0.4609  0.0980  0.1098
 9087TIP3    H148752   2.704   6.063   0.613  0.9355 -0.2778  0.2770
 9087TIP3    H248753   2.754   5.989   0.735 -0.4538 -2.1425 -0.2364
 9088TIP3   OH248754   5.601   2.906   0.557  0.5981  0.0395  0.4166
 9088TIP3    H148755   5.508   2.928   0.556  0.6787  0.3859 -0.0359
 9088TIP3    H248756   5.605   2.818   0.595  0.1628  0.3275  1.1457
 9089TIP3   OH248757   5.591   3.016   4.513  0.3747 -0.2981  0.2041
 9089TIP3    H148758   5.540   3.093   4.538  0.7974  0.0246  0.0832
 9089TIP3    H248759   5.682   3.040   4.532  0.4775 -0.9030  0.5186
 9090TIP3   OH248760   2.922   1.287   1.297 -0.0312 -0.2190 -0.1847
 9090TIP3    H148761   2.826   1.282   1.298 -0.0593  0.2409  0.7138
 9090TIP3    H248762   2.945   1.280   1.205 -1.0443  1.4899 -0.6176
 9091TIP3   OH248763   3.154   1.095  14.577 -0.3087 -0.7008  0.0232
 9091TIP3    H148764   3.135   1.086  14.484 -3.6144 -0.1029  0.5417
 9091TIP3    H248765   3.188   1.184  14.586 -0.6076 -0.5263 -0.5404
 9092TIP3   OH248766   3.023   1.002   4.360  0.4518 -0.1695  0.3565
 9092TIP3    H148767   2.932   0.995   4.332  0.6982  3.6486 -2.1568
 9092TIP3    H248768   3.030   1.087   4.402  3.1276  0.5170 -1.1990
 9093TIP3   OH248769   5.629   3.585   0.927  0.0860 -0.8791  0.5708
 9093TIP3    H148770   5.612   3.558   1.018 -0.7121 -0.3448  0.5866
 9093TIP3    H248771   5.544   3.577   0.884 -0.4205  2.2601  0.7478
 9094TIP3   OH248772   2.037   3.588  14.892 -0.4840  0.1002  0.2488
 9094TIP3    H148773   2.053   3.566  14.800 -1.5798 -0.7103  0.2296
 9094TIP3    H248774   1.981   3.518  14.924 -1.8632  1.4561  0.9595
 9095TIP3   OH248775   0.531   2.389   3.479  0.6275  0.5544  0.2799
 9095TIP3    H148776   0.625   2.376   3.466  0.6205 -0.9571  1.4441
 9095TIP3    H248777   0.492   2.372   3.393  1.2630 -0.9612  0.2514
 9096TIP3   OH248778   5.936   4.029  13.859 -0.6864  0.0300 -0.5220
 9096TIP3    H148779   5.899   4.007  13.944 -2.5428 -0.6673 -1.4550
 9096TIP3    H248780   5.897   4.114  13.837 -1.3159 -0.4254 -1.2481
 9097TIP3   OH248781   2.121   3.453  15.785  0.5575 -0.0871 -0.0447
 9097TIP3    H148782   2.043   3.407  15.753  0.1641 -1.5158  2.7185
 9097TIP3    H248783   2.189   3.386  15.787  0.5782 -0.0550  1.8999
 9098TIP3   OH248784   0.661   1.939  13.001 -0.2417  0.1496  0.1362
 9098TIP3    H148785   0.618   1.907  13.081 -1.2848  0.7747 -0.1511
 9098TIP3    H248786   0.751   1.909  13.008 -0.3745  0.0201  1.4534
 9099TIP3   OH248787   0.153   1.519  13.487 -0.6239 -0.8789  0.1538
 9099TIP3    H148788   0.083   1.455  13.505 -0.6618 -0.4404  1.6797
 9099TIP3    H248789   0.107   1.595  13.453 -0.9278 -0.5839  1.1721
 9100TIP3   OH248790   2.430   6.432  12.582  0.0932 -0.3664  0.1895
 9100TIP3    H148791   2.423   6.527  12.574 -0.5409 -0.5038 -1.0695
 9100TIP3    H248792   2.525   6.416  12.581  0.2215  0.2617  0.8133
 9101TIP3   OH248793   6.238   1.999   3.776  0.0970  0.0139  0.4654
 9101TIP3    H148794   6.251   2.070   3.840 -1.0076  0.7150 -0.0579
 9101TIP3    H248795   6.323   1.991   3.732 -0.2260  2.2324 -0.6762
 9102TIP3   OH248796   6.800   6.075  15.388 -0.2368  0.0356 -0.0087
 9102TIP3    H148797   6.782   6.109  15.300  1.2406 -1.4884 -0.9574
 9102TIP3    H248798   6.720   6.027  15.411 -0.2032 -0.5622 -1.0514
 9103TIP3   OH248799   2.749   6.469  17.081  0.2702  0.3603 -0.1581
 9103TIP3    H148800   2.790   6.513  17.006 -1.4445  1.1299 -0.7015
 9103TIP3    H248801   2.670   6.428  17.044 -0.0605 -0.1113  1.0434
 9104TIP3   OH248802   6.390   5.162   2.635  0.2080 -0.4820 -0.6767
 9104TIP3    H148803   6.461   5.223   2.658 -0.5067  0.2675 -0.3969
 9104TIP3    H248804   6.357   5.131   2.719 -0.2477 -0.2911 -0.7841
 9105TIP3   OH248805   2.519   4.308   0.503  0.2694 -0.0691 -0.3376
 9105TIP3    H148806   2.524   4.224   0.456 -1.2657  0.4216 -1.4275
 9105TIP3    H248807   2.430   4.339   0.488  0.8943  1.9049 -0.1677
 9106TIP3   OH248808   0.455   4.723   1.463  0.4306  0.5414 -0.4077
 9106TIP3    H148809   0.418   4.637   1.484  1.1301  0.2303 -0.3938
 9106TIP3    H248810   0.494   4.753   1.546  0.8681  0.5156 -0.5990
 9107TIP3   OH248811   1.234   4.113  14.631  0.2354  0.3727  0.0367
 9107TIP3    H148812   1.233   4.182  14.698  0.3155 -0.5463  1.0016
 9107TIP3    H248813   1.151   4.067  14.643  0.7164 -0.4633  0.2121
 9108TIP3   OH248814   5.278   0.465  12.984  0.1299  0.3463 -0.0215
 9108TIP3    H148815   5.363   0.424  12.965 -0.7142 -0.4389 -2.5774
 9108TIP3    H248816   5.273   0.538  12.922 -0.2538  1.6311  1.4783
 9109TIP3   OH248817   0.557   3.185   0.829  0.3796 -0.2237 -0.1840
 9109TIP3    H148818   0.541   3.092   0.812 -0.2285 -0.2594  0.5587
 9109TIP3    H248819   0.525   3.229   0.750  2.8238 -0.7800 -1.6006
 9110TIP3   OH248820   5.493   1.887   6.055  0.0947  0.3041 -0.3070
 9110TIP3    H148821   5.577   1.930   6.036 -0.0936  0.9576  0.2679
 9110TIP3    H248822   5.448   1.948   6.114 -0.6264 -0.2159 -0.3046
 9111TIP3   OH248823   0.144   2.594  14.924 -0.1974  0.2238  0.1241
 9111TIP3    H148824   0.106   2.568  14.840 -1.0314 -0.1184  0.6035
 9111TIP3    H248825   0.159   2.688  14.914 -0.6630  0.2626 -0.2702
 9112TIP3   OH248826   5.703   1.366  15.206 -0.1843 -1.1468  0.0756
 9112TIP3    H148827   5.755   1.332  15.134  1.9302 -2.4514  2.0646
 9112TIP3    H248828   5.644   1.295  15.230  2.7351 -2.9283  2.8260
 9113TIP3   OH248829   2.502   5.087  16.446 -0.6714 -0.2540 -0.0258
 9113TIP3    H148830   2.480   5.155  16.381  0.3670  0.7527  0.6364
 9113TIP3    H248831   2.541   5.017  16.394  0.8703  0.8626 -0.4811
 9114TIP3   OH248832   3.646   3.219  16.911 -0.5896 -0.0905 -0.4744
 9114TIP3    H148833   3.554   3.239  16.928 -0.3552  0.0351  0.7378
 9114TIP3    H248834   3.682   3.301  16.876 -0.3753  0.7010  1.4625
 9115TIP3   OH248835   5.960   6.117  12.643 -0.1972 -0.4656 -0.3681
 9115TIP3    H148836   5.954   6.173  12.721  0.7495 -0.4954 -0.2556
 9115TIP3    H248837   5.937   6.030  12.675  0.9910 -0.6327  0.0826
 9116TIP3   OH248838   0.255   1.633   5.540 -0.4545  0.0228  0.1410
 9116TIP3    H148839   0.321   1.564   5.549 -1.1385 -0.9464 -1.7511
 9116TIP3    H248840   0.261   1.683   5.622  1.8999 -0.6376  0.4421
 9117TIP3   OH248841   4.149   2.100   5.146  0.0392  0.0663 -0.4255
 9117TIP3    H148842   4.107   2.014   5.152 -0.0682  0.1652  0.3003
 9117TIP3    H248843   4.124   2.133   5.059 -1.4165  0.1336 -0.0092
 9118TIP3   OH248844   4.323   2.936   1.135  0.2582  0.7677  0.5012
 9118TIP3    H148845   4.317   2.848   1.172  1.7774  1.6095  3.0515
 9118TIP3    H248846   4.234   2.970   1.139 -0.2293 -0.4043  0.0784
 9119TIP3   OH248847   3.961   3.729  16.632  0.3923 -0.2073 -0.3462
 9119TIP3    H148848   4.030   3.663  16.627 -0.3612 -1.0300 -0.1861
 9119TIP3    H248849   3.880   3.679  16.633 -0.2537  0.7685 -1.3117
 9120TIP3   OH248850   0.245   0.906   6.587 -0.5322  0.3539  0.5410
 9120TIP3    H148851   0.179   0.874   6.649 -0.2694 -1.1478  0.0979
 9120TIP3    H248852   0.253   0.835   6.523 -0.8335  1.8694 -1.2568
 9121TIP3   OH248853   4.629   3.522  11.198 -0.2547 -0.3193  0.6518
 9121TIP3    H148854   4.665   3.510  11.110 -3.1458 -0.2069 -0.6736
 9121TIP3    H248855   4.573   3.599  11.191 -1.2197 -0.8101  2.3368
 9122TIP3   OH248856   0.320   2.567   0.202  0.0416 -0.6517  0.2108
 9122TIP3    H148857   0.319   2.588   0.295  0.9617 -1.0504  0.3169
 9122TIP3    H248858   0.228   2.554   0.180 -0.1542 -0.9392  1.1478
 9123TIP3   OH248859   2.941   6.552   3.068 -0.3944 -0.1097  0.4338
 9123TIP3    H148860   3.006   6.516   3.129  0.8803  0.5429 -0.4790
 9123TIP3    H248861   2.950   6.499   2.989 -1.2071 -0.2099  0.3998
 9124TIP3   OH248862   6.060   0.614  13.882  0.6584 -0.5151 -0.1684
 9124TIP3    H148863   5.986   0.567  13.923 -0.0834 -1.4217 -2.4204
 9124TIP3    H248864   6.128   0.548  13.873  0.5164 -0.5502 -1.0857
 9125TIP3   OH248865   1.268   4.151   3.029 -0.4031 -0.6007  0.2154
 9125TIP3    H148866   1.310   4.112   3.106  0.5514 -0.6139 -0.2948
 9125TIP3    H248867   1.335   4.147   2.960 -0.9169  0.2449 -0.3619
 9126TIP3   OH248868   1.721   2.256   1.131  0.3324 -0.3633  0.0063
 9126TIP3    H148869   1.799   2.201   1.137  0.4355 -0.3433 -1.0412
 9126TIP3    H248870   1.703   2.263   1.037 -0.5110  0.2223  0.1992
 9127TIP3   OH248871   6.569   3.659   0.730 -0.7349  0.1823  0.6185
 9127TIP3    H148872   6.650   3.711   0.728 -0.9508  0.5624  1.4319
 9127TIP3    H248873   6.533   3.668   0.641  1.3375 -2.0091 -0.5642
 9128TIP3   OH248874   2.777   5.565   4.220  0.3743 -0.5711 -0.4292
 9128TIP3    H148875   2.789   5.604   4.134 -0.7729 -0.2050 -0.4286
 9128TIP3    H248876   2.864   5.529   4.242  1.1805  1.0190 -0.8836
 9129TIP3   OH248877   4.326   1.490   4.122 -0.6301 -0.3097 -0.1014
 9129TIP3    H148878   4.321   1.517   4.030 -1.0863  0.1506  0.0571
 9129TIP3    H248879   4.366   1.403   4.119 -1.9222 -0.9095 -0.8511
 9130TIP3   OH248880   4.479   1.644   5.791  0.0707  0.5231  0.6283
 9130TIP3    H148881   4.489   1.739   5.790  0.0399  0.5231  0.2134
 9130TIP3    H248882   4.491   1.620   5.882  2.0335  0.7330  0.4740
 9131TIP3   OH248883   1.747   0.162  11.765  0.1265 -0.4000 -0.1219
 9131TIP3    H148884   1.771   0.233  11.825 -0.0925  0.9349 -1.5664
 9131TIP3    H248885   1.828   0.112  11.753  0.0829 -0.9361  1.5645
 9132TIP3   OH248886   6.741   2.359   2.063  0.1046  0.0719  0.1504
 9132TIP3    H148887   6.704   2.423   2.002  0.1729  0.6442  0.6956
 9132TIP3    H248888   6.684   2.364   2.140 -0.5765 -1.3615 -0.2233
 9133TIP3   OH248889   4.818   3.479  15.548 -0.4029 -0.1678  0.0082
 9133TIP3    H148890   4.766   3.476  15.468  2.5309  1.3942 -2.1207
 9133TIP3    H248891   4.757   3.512  15.615 -2.5304 -0.0391 -1.8812
 9134TIP3   OH248892   3.809   2.926  16.304 -0.0438 -0.3250 -0.2488
 9134TIP3    H148893   3.894   2.915  16.261  0.1821  0.0618  0.0955
 9134TIP3    H248894   3.817   2.877  16.386 -0.0563 -0.0628 -0.0899
 9135TIP3   OH248895   2.915   1.418   3.778  0.1026 -0.3564  0.0081
 9135TIP3    H148896   2.958   1.367   3.847 -0.4076 -0.1044  0.5226
 9135TIP3    H248897   2.849   1.470   3.824 -0.9549 -0.9406 -0.7906
 9136TIP3   OH248898   5.525   4.204   2.730 -0.4237  0.5040  0.2417
 9136TIP3    H148899   5.549   4.288   2.768 -0.1139  0.8845 -0.7750
 9136TIP3    H248900   5.557   4.207   2.640 -1.3358 -0.2860 -0.1364
 9137TIP3   OH248901   6.267   2.308  11.263 -0.2040  0.2545  0.3034
 9137TIP3    H148902   6.347   2.298  11.210  0.3673  0.1094  1.1674
 9137TIP3    H248903   6.243   2.219  11.286 -0.5986  0.3021  0.0710
 9138TIP3   OH248904   1.478   2.308  15.237  0.4088  0.1301  0.2789
 9138TIP3    H148905   1.492   2.213  15.244  1.0835  0.1635 -0.4788
 9138TIP3    H248906   1.443   2.321  15.149 -3.0789  0.2395  1.5158
 9139TIP3   OH248907   5.439   3.119   1.483 -0.1167 -0.2197 -0.2473
 9139TIP3    H148908   5.533   3.128   1.465  0.5655 -1.7687  2.0908
 9139TIP3    H248909   5.402   3.092   1.399  1.1957  2.0138 -1.6646
 9140TIP3   OH248910   4.132   0.124   5.427 -0.5974 -0.2619 -0.1828
 9140TIP3    H148911   4.172   0.210   5.411 -1.9245 -0.0833 -3.0660
 9140TIP3    H248912   4.197   0.078   5.481  0.5652  2.1911  0.6665
 9141TIP3   OH248913   5.308   1.990  14.816 -0.7151 -0.4907  0.6868
 9141TIP3    H148914   5.352   2.071  14.843 -1.8249 -0.6027  3.0932
 9141TIP3    H248915   5.379   1.927  14.804 -0.0112  0.0961  1.6301
 9142TIP3   OH248916   2.947   0.997  11.437 -0.1354  0.0094 -0.0347
 9142TIP3    H148917   2.978   0.937  11.505 -2.2007  0.3397  1.3035
 9142TIP3    H248918   2.997   0.973  11.359 -0.0525 -2.6495  0.7446
 9143TIP3   OH248919   2.237   2.708  14.119 -0.3547  0.4068 -0.8988
 9143TIP3    H148920   2.156   2.740  14.156  0.4563  1.0639  0.3667
 9143TIP3    H248921   2.301   2.778  14.135  0.8681 -0.7922 -0.2770
 9144TIP3   OH248922   2.422   4.042   5.645 -0.0661  0.2256 -0.6095
 9144TIP3    H148923   2.409   4.055   5.739  1.1372 -0.9547 -0.2474
 9144TIP3    H248924   2.368   3.967   5.624 -0.6977  0.7726 -0.9785
 9145TIP3   OH248925   4.655   1.952   5.538 -0.5137 -0.4405 -0.1855
 9145TIP3    H148926   4.609   2.001   5.470 -1.0556  0.9333  1.1433
 9145TIP3    H248927   4.596   1.880   5.560 -0.8692 -0.1864 -0.3068
 9146TIP3   OH248928   6.694   3.735   4.608  0.0189 -1.0260  0.4685
 9146TIP3    H148929   6.745   3.810   4.640 -0.8563  0.0914 -0.6658
 9146TIP3    H248930   6.609   3.744   4.649  0.0346 -1.6450  0.6469
 9147TIP3   OH248931   0.213   6.674  11.835  0.2778 -0.5947  0.3938
 9147TIP3    H148932   0.182   6.617  11.765  1.6064 -1.1788  0.2501
 9147TIP3    H248933   0.147   6.667  11.904 -0.7020 -0.5446 -0.5221
 9148TIP3   OH248934   1.346   2.517  13.395 -0.0526 -0.2324  0.4467
 9148TIP3    H148935   1.283   2.551  13.331  1.6420  0.8748 -0.7030
 9148TIP3    H248936   1.344   2.422  13.381 -0.5233 -0.1027 -0.4915
 9149TIP3   OH248937   0.660   0.211  15.164 -0.1822 -0.6944  0.1293
 9149TIP3    H148938   0.615   0.230  15.081  1.8320  2.8065 -0.3452
 9149TIP3    H248939   0.749   0.244  15.151  0.5714 -1.1807  3.2922
 9150TIP3   OH248940   3.954   6.037  16.349  0.0941 -0.0620 -0.8522
 9150TIP3    H148941   3.928   6.013  16.260  0.5823 -0.8755 -0.7808
 9150TIP3    H248942   3.932   6.130  16.356  1.4745  0.4303 -2.3681
 9151TIP3   OH248943   6.706   0.601  12.102 -0.2730  0.7137 -0.0838
 9151TIP3    H148944   6.751   0.681  12.129  0.5287 -0.0770  1.0273
 9151TIP3    H248945   6.776   0.547  12.065  0.2350 -1.3074  3.3677
 9152TIP3   OH248946   6.743   0.921   2.872  0.7460 -0.1025  0.2012
 9152TIP3    H148947   6.691   0.991   2.911  1.7356  1.7374 -1.5576
 9152TIP3    H248948   6.685   0.846   2.870 -0.2771  0.5529  2.4156
 9153TIP3   OH248949   3.775   4.552   5.779  0.2168 -0.1703  0.2615
 9153TIP3    H148950   3.691   4.584   5.745 -1.5971 -2.0559  2.5277
 9153TIP3    H248951   3.805   4.489   5.715 -0.2502  0.3081 -0.4421
 9154TIP3   OH248952   6.633   2.443   5.132 -0.2665  0.0737 -0.0044
 9154TIP3    H148953   6.637   2.352   5.161 -1.2262 -0.3417 -1.0488
 9154TIP3    H248954   6.678   2.442   5.047  3.0867  1.3849  1.6139
 9155TIP3   OH248955   3.553   4.153  12.511 -0.3902 -0.2627  0.2952
 9155TIP3    H148956   3.586   4.066  12.490 -0.7554 -0.4510  0.4974
 9155TIP3    H248957   3.609   4.184  12.582 -0.0979 -0.2277  0.0506
 9156TIP3   OH248958   5.018   4.302  14.368 -0.6501  0.2582  0.7536
 9156TIP3    H148959   5.056   4.388  14.385 -1.2146  0.4998  0.8028
 9156TIP3    H248960   4.959   4.316  14.295  1.4691 -0.6973 -1.2519
 9157TIP3   OH248961   2.996   5.684  12.917  0.0295  0.0414 -0.0494
 9157TIP3    H148962   3.010   5.596  12.952 -0.4415  0.2041  0.5673
 9157TIP3    H248963   2.999   5.741  12.994 -1.3628  0.3709 -0.2276
 9158TIP3   OH248964   1.453   4.973  16.526 -0.3928  0.4412 -0.4904
 9158TIP3    H148965   1.515   4.951  16.596 -1.3224  2.6797  1.1561
 9158TIP3    H248966   1.449   4.894  16.472  0.5108 -1.3392  1.8599
 9159TIP3   OH248967   5.857   5.788   3.689  0.3605 -0.3833  0.4475
 9159TIP3    H148968   5.866   5.855   3.757 -0.2548 -0.9145  1.0693
 9159TIP3    H248969   5.820   5.713   3.735  1.0161 -1.1474 -0.2443
 9160TIP3   OH248970   2.223   2.337   1.614 -0.0456  0.3746 -0.2803
 9160TIP3    H148971   2.175   2.415   1.585  0.2008 -0.0384 -1.8876
 9160TIP3    H248972   2.254   2.297   1.534 -1.3212 -2.1552  0.3802
 9161TIP3   OH248973   0.005   6.739  15.449  0.4329  0.5556  0.5690
 9161TIP3    H148974   0.085   6.688  15.464  1.9081  2.8203  0.8967
 9161TIP3    H248975  -0.034   6.700  15.371  1.1941 -1.3458  1.0685
 9162TIP3   OH248976   5.783   6.299   2.260  0.0503  0.0335  0.1907
 9162TIP3    H148977   5.817   6.309   2.349 -0.9402 -0.3214  0.6314
 9162TIP3    H248978   5.855   6.259   2.211 -0.0493 -1.7284  1.3592
 9163TIP3   OH248979   4.130   5.603  16.694  0.0743  0.0406  0.7031
 9163TIP3    H148980   4.156   5.583  16.784 -0.1726 -0.8232  0.5986
 9163TIP3    H248981   4.049   5.652  16.702 -1.8137 -2.8799  0.9477
 9164TIP3   OH248982   5.596   5.548  14.024  0.3832 -0.0859  0.3997
 9164TIP3    H148983   5.662   5.598  13.976 -1.0160 -0.5617 -2.2230
 9164TIP3    H248984   5.632   5.538  14.112  3.4393  0.2798 -0.7044
 9165TIP3   OH248985   4.691   1.638  12.309  0.4020  0.0269 -0.1120
 9165TIP3    H148986   4.597   1.632  12.325  0.3079 -2.0829 -1.0841
 9165TIP3    H248987   4.706   1.730  12.288 -1.3402  0.5089  0.5751
 9166TIP3   OH248988   2.973   1.536  12.424 -0.0214  0.4567  0.5922
 9166TIP3    H148989   3.051   1.512  12.373 -1.8000 -0.8550 -1.7585
 9166TIP3    H248990   2.965   1.466  12.489 -1.2227 -1.6813 -1.6504
 9167TIP3   OH248991   1.565   6.512   1.343  0.2608  0.1801 -0.1037
 9167TIP3    H148992   1.660   6.521   1.333  0.4702  1.5975  2.2867
 9167TIP3    H248993   1.531   6.523   1.254  2.1213  3.7101 -0.5793
 9168TIP3   OH248994   3.866   4.674   0.530  0.1326  0.7022  0.0942
 9168TIP3    H148995   3.916   4.682   0.449  0.1844 -0.0296  0.0443
 9168TIP3    H248996   3.932   4.672   0.599  0.1322  0.5026  0.0888
 9169TIP3   OH248997   6.796   5.599  15.366  0.5404 -0.4167 -0.0868
 9169TIP3    H148998   6.844   5.523  15.400  0.9326  0.1283  0.5976
 9169TIP3    H248999   6.864   5.657  15.332  0.3169  0.0386  0.2334
 9170TIP3   OH249000   5.662   5.853  11.986 -0.8031  0.3493  0.2848
 9170TIP3    H149001   5.752   5.885  11.990 -1.3011  1.7346  2.4918
 9170TIP3    H249002   5.621   5.905  11.917 -0.4006  1.1100  0.6129
 9171TIP3   OH249003   3.426   4.147  13.701  0.1203 -0.2941  0.8663
 9171TIP3    H149004   3.466   4.102  13.776 -1.3328 -2.6250  0.3488
 9171TIP3    H249005   3.493   4.144  13.633  0.4470 -0.7540  1.1974
 9172TIP3   OH249006   4.946   1.973   3.557 -0.2511  0.2166 -0.2301
 9172TIP3    H149007   4.864   2.017   3.535 -0.0061  0.2321 -1.1489
 9172TIP3    H249008   4.970   2.009   3.642  0.4158  2.5759 -1.3279
 9173TIP3   OH249009   1.982   0.127  12.018  0.0002  0.1779 -0.1066
 9173TIP3    H149010   1.983   0.127  11.922 -2.0019 -0.9351 -0.1855
 9173TIP3    H249011   2.041   0.055  12.042  0.3074  0.2916 -0.5029
 9174TIP3   OH249012   1.021   5.895   0.746  0.2955 -0.0142 -0.5616
 9174TIP3    H149013   1.006   5.861   0.658  1.7117  1.3590 -1.3972
 9174TIP3    H249014   1.018   5.991   0.735  0.3189  0.1824  0.9220
 9175TIP3   OH249015   0.373   1.520   2.985 -0.2402  0.1148 -0.2822
 9175TIP3    H149016   0.437   1.588   3.007 -0.0306 -0.4253  0.8429
 9175TIP3    H249017   0.354   1.477   3.069 -1.0794 -0.5982 -0.8237
 9176TIP3   OH249018   6.055   0.407   0.793  0.6560  0.1062 -0.6087
 9176TIP3    H149019   6.032   0.380   0.704 -0.2454  0.0341 -0.3613
 9176TIP3    H249020   6.047   0.502   0.792 -0.5075  0.0311 -0.3098
 9177TIP3   OH249021   0.945   1.153   0.626  0.1701  0.2171 -0.2677
 9177TIP3    H149022   0.984   1.230   0.583 -1.1414  0.3534 -1.2909
 9177TIP3    H249023   0.905   1.188   0.706  0.6140  0.3824 -0.1142
 9178TIP3   OH249024   3.431   2.137   4.713 -0.0261 -0.2615  0.4933
 9178TIP3    H149025   3.510   2.084   4.718  1.4610  1.8436  0.6275
 9178TIP3    H249026   3.420   2.174   4.800  1.2938  2.7067 -0.4770
 9179TIP3   OH249027   6.094   2.775  12.750  0.2906  0.3686  0.3628
 9179TIP3    H149028   6.041   2.844  12.709 -0.3587 -0.3420 -0.0115
 9179TIP3    H249029   6.047   2.694  12.730  0.5076 -0.0929  1.6411
 9180TIP3   OH249030   0.566   6.394   0.963  0.2448  0.4587  0.1512
 9180TIP3    H149031   0.585   6.453   1.035  0.3614 -0.2991  0.7629
 9180TIP3    H249032   0.541   6.312   1.006 -0.7939  0.3362 -0.6678
 9181TIP3   OH249033   0.692   0.663   3.555 -0.4887  0.1193 -0.1475
 9181TIP3    H149034   0.624   0.653   3.622 -1.6473 -1.7233 -1.4952
 9181TIP3    H249035   0.647   0.706   3.482  0.3950  0.8909 -0.2469
 9182TIP3   OH249036   1.654   5.994  16.035  0.1177  0.4428 -0.1008
 9182TIP3    H149037   1.630   6.078  15.996 -1.1445  0.5073  0.7602
 9182TIP3    H249038   1.570   5.953  16.057  0.6959 -1.0947 -0.5880
 9183TIP3   OH249039   2.136   1.771  11.330  0.4357 -0.3921 -0.0633
 9183TIP3    H149040   2.101   1.693  11.286 -0.4526  0.3817 -0.7998
 9183TIP3    H249041   2.226   1.777  11.300  0.7180 -1.4855  0.5150
 9184TIP3   OH249042   5.584   6.350  13.434 -0.1564 -0.3165  0.2071
 9184TIP3    H149043   5.632   6.433  13.436  0.4530 -0.6841  1.5863
 9184TIP3    H249044   5.517   6.363  13.366  1.4750  0.4063 -1.3254
 9185TIP3   OH249045   0.252   2.862  14.102  0.5786 -0.2127  0.3950
 9185TIP3    H149046   0.275   2.815  14.182 -0.6159 -1.6759 -0.0719
 9185TIP3    H249047   0.274   2.802  14.031 -3.2293 -1.2550 -0.1307
 9186TIP3   OH249048   2.524   0.112   0.323  0.6265  0.0115  0.5363
 9186TIP3    H149049   2.598   0.172   0.323  1.2763 -0.7297 -0.8450
 9186TIP3    H249050   2.528   0.068   0.408  1.3639  0.4782  0.7452
 9187TIP3   OH249051   1.692   4.745  16.328  0.3691  0.1564  0.4694
 9187TIP3    H149052   1.766   4.803  16.310  1.6704 -1.5917 -0.1803
 9187TIP3    H249053   1.721   4.691  16.402 -1.2013  0.9435  1.7149
 9188TIP3   OH249054   5.567   3.774   1.141 -0.1582 -0.1643  0.3321
 9188TIP3    H149055   5.490   3.717   1.136 -0.5436  0.4519 -1.4136
 9188TIP3    H249056   5.550   3.831   1.216 -2.1395  0.9090 -0.8439
 9189TIP3   OH249057   1.759   1.155  11.193  0.0548 -0.2405  0.3092
 9189TIP3    H149058   1.850   1.184  11.200  0.4291 -1.6599  1.7712
 9189TIP3    H249059   1.730   1.187  11.108  2.3379 -0.9007 -0.7753
 9190TIP3   OH249060   5.332   4.216  16.485  0.4483  0.2362 -0.2138
 9190TIP3    H149061   5.364   4.302  16.457  1.4757 -0.0869 -0.0474
 9190TIP3    H249062   5.400   4.155  16.457  0.2560 -0.3953  0.6631
 9191TIP3   OH249063   6.566   4.208   3.602  0.4514  0.1963  0.5012
 9191TIP3    H149064   6.605   4.269   3.539  0.4854 -0.1232  0.2070
 9191TIP3    H249065   6.537   4.134   3.548  0.2879  0.0154  0.8374
 9192TIP3   OH249066   0.741   6.646   4.789  0.1634  0.2162  0.4740
 9192TIP3    H149067   0.660   6.625   4.836 -1.0179 -1.6778 -2.1275
 9192TIP3    H249068   0.740   6.587   4.714  1.3341  3.6586 -2.5160
 9193TIP3   OH249069   2.605   4.581  12.437  0.4516  0.6938 -0.1115
 9193TIP3    H149070   2.530   4.523  12.443  0.5029  0.6255 -0.1351
 9193TIP3    H249071   2.594   4.642  12.509  1.5827 -0.7241  1.3228
 9194TIP3   OH249072   0.040   5.779  11.592  0.2980 -0.2512  0.0017
 9194TIP3    H149073   0.078   5.857  11.631 -1.2245  1.6377 -1.9901
 9194TIP3    H249074   0.097   5.758  11.518  0.1875 -0.4561 -0.0290
 9195TIP3   OH249075   4.863   6.097   3.946  0.1156  0.5642 -0.5480
 9195TIP3    H149076   4.872   6.082   3.852 -0.8417  0.5850 -0.6565
 9195TIP3    H249077   4.837   6.189   3.953  1.2020  0.8625 -0.1839
 9196TIP3   OH249078   2.390   1.803  11.940  0.7493  0.1050 -0.0522
 9196TIP3    H149079   2.469   1.750  11.946  0.6058 -0.3422 -1.5111
 9196TIP3    H249080   2.338   1.779  12.016  1.2401 -0.9285 -0.0276
 9197TIP3   OH249081   6.524   2.095   2.713  0.0033 -0.1083 -0.6436
 9197TIP3    H149082   6.553   2.103   2.804 -1.3354  0.3932 -0.2392
 9197TIP3    H249083   6.595   2.134   2.662  1.2191 -1.2603  0.0893
 9198TIP3   OH249084   6.447   2.638   0.944 -0.6848 -0.3297  0.4986
 9198TIP3    H149085   6.362   2.651   0.986 -1.5852 -0.4016 -1.1894
 9198TIP3    H249086   6.436   2.560   0.891 -0.0579  0.4761 -0.8851
 9199TIP3   OH249087   2.131   5.195   0.686 -0.4738  0.7254 -0.4942
 9199TIP3    H149088   2.172   5.152   0.761 -2.4120 -1.2233 -0.4705
 9199TIP3    H249089   2.205   5.222   0.631  0.9299  0.8154  1.3563
 9200TIP3   OH249090   5.656   5.104   3.086  0.0093  0.1747  0.8043
 9200TIP3    H149091   5.683   5.017   3.058  0.5643  0.9717 -1.3486
 9200TIP3    H249092   5.709   5.122   3.164  0.1858 -1.2282  1.0246
 9201TIP3   OH249093   1.235   1.200  17.171 -0.3674 -0.2102 -0.1039
 9201TIP3    H149094   1.285   1.119  17.182 -1.7786 -0.9495  1.2971
 9201TIP3    H249095   1.145   1.175  17.190 -0.8500  1.7043  0.3191
 9202TIP3   OH249096   1.895   2.840   2.129  0.1401 -0.0075  0.0049
 9202TIP3    H149097   1.965   2.778   2.109 -0.0801 -0.2679  0.0473
 9202TIP3    H249098   1.819   2.808   2.082 -0.7295 -1.3141  2.1566
 9203TIP3   OH249099   0.842   5.137  12.627  0.1699 -0.1615  0.2577
 9203TIP3    H149100   0.854   5.219  12.578  2.1272 -1.2054 -1.2005
 9203TIP3    H249101   0.817   5.073  12.560  0.5575 -1.1343  1.0144
 9204TIP3   OH249102   1.341   4.117  12.745 -0.1380  0.6086 -0.6427
 9204TIP3    H149103   1.432   4.144  12.735  0.0478  0.2150 -0.0459
 9204TIP3    H249104   1.292   4.173  12.684  0.3360  1.7184 -0.0248
 9205TIP3   OH249105   5.594   5.709  12.946 -0.2101  0.2567 -0.0691
 9205TIP3    H149106   5.574   5.722  12.853 -0.4538  1.9515  0.1760
 9205TIP3    H249107   5.580   5.796  12.985  2.0741  0.1535  1.1556
 9206TIP3   OH249108   6.521   6.584   0.464 -0.6620 -0.2882  0.0905
 9206TIP3    H149109   6.551   6.495   0.481  0.2298  0.0453  0.3537
 9206TIP3    H249110   6.426   6.579   0.468 -0.6823 -1.4739 -1.1601
 9207TIP3   OH249111   0.689   6.707  15.655 -0.3244 -0.3693 -0.3411
 9207TIP3    H149112   0.644   6.630  15.621  1.5155 -2.8342  2.3672
 9207TIP3    H249113   0.636   6.735  15.730  1.0511 -1.5917  1.1598
 9208TIP3   OH249114   3.957   5.295  17.021 -0.0020  0.3003  0.8308
 9208TIP3    H149115   3.924   5.314  16.933  2.3656 -0.3243 -0.2536
 9208TIP3    H249116   3.908   5.217  17.048 -0.2784  0.0893 -0.2240
 9209TIP3   OH249117   6.072   3.383  13.409  0.0178  0.7155 -0.0331
 9209TIP3    H149118   6.006   3.330  13.454 -0.8064  2.0044  0.3274
 9209TIP3    H249119   6.155   3.341  13.430 -0.7265 -1.6337 -1.4507
 9210TIP3   OH249120   2.205   6.445   6.411 -0.1627  0.0491 -0.1566
 9210TIP3    H149121   2.120   6.432   6.453  0.4001 -0.6941  0.7854
 9210TIP3    H249122   2.261   6.480   6.481  0.3312  0.4451 -0.7436
 9211TIP3   OH249123   3.813   1.422   3.079 -0.4190  0.1297  0.1617
 9211TIP3    H149124   3.799   1.516   3.084 -1.1399  0.1378 -1.3429
 9211TIP3    H249125   3.907   1.412   3.066 -0.5773  0.8034 -1.8822
 9212TIP3   OH249126   0.432   2.189  11.682 -0.2945  0.2504  0.0408
 9212TIP3    H149127   0.453   2.180  11.775  2.2967  1.9561 -0.2779
 9212TIP3    H249128   0.386   2.108  11.660  1.1639 -1.2953  2.2399
 9213TIP3   OH249129   4.188   6.760  15.077 -0.1801 -0.1411 -0.8109
 9213TIP3    H149130   4.200   6.806  14.994  1.0409 -0.1631 -0.6709
 9213TIP3    H249131   4.102   6.787  15.108 -0.5649  0.0326 -1.9749
 9214TIP3   OH249132   1.302   3.174   1.276 -0.2215 -0.0376 -0.4762
 9214TIP3    H149133   1.210   3.175   1.252  0.2851 -1.1806 -2.7439
 9214TIP3    H249134   1.348   3.157   1.194  2.0574  0.9501  0.5042
 9215TIP3   OH249135   0.997   3.537   4.167  0.5451  0.2841  0.1285
 9215TIP3    H149136   0.987   3.565   4.258 -0.5653 -0.0828  0.1389
 9215TIP3    H249137   1.083   3.569   4.141  2.2971 -2.2079  2.2723
 9216TIP3   OH249138   0.460   3.553   4.174 -0.8041  0.0019  0.1496
 9216TIP3    H149139   0.402   3.552   4.250  0.1544  2.6520  1.0259
 9216TIP3    H249140   0.457   3.644   4.142  1.3371 -0.2391 -0.9525
 9217TIP3   OH249141   1.566   5.059   2.435 -0.2247 -0.4869  0.6387
 9217TIP3    H149142   1.512   5.136   2.451  0.2023 -0.0952  0.2788
 9217TIP3    H249143   1.568   5.051   2.339  3.2705  1.7451  0.3094
 9218TIP3   OH249144   3.985   0.730  15.730 -0.4261 -0.4808  0.0583
 9218TIP3    H149145   4.059   0.674  15.755 -0.4527 -0.7766 -0.5060
 9218TIP3    H249146   4.007   0.816  15.766  0.9904 -0.1445 -1.4216
 9219TIP3   OH249147   5.369   6.803  12.134  0.2204  0.4268 -0.2891
 9219TIP3    H149148   5.303   6.745  12.172  0.8659  0.6800  1.3199
 9219TIP3    H249149   5.442   6.744  12.113  0.3762  0.4554  0.1465
 9220TIP3   OH249150   2.230   6.794  17.041 -0.0181  0.1181  0.1824
 9220TIP3    H149151   2.271   6.826  16.961 -0.0611 -1.0201 -0.3091
 9220TIP3    H249152   2.201   6.874  17.086  1.4140  0.8612 -0.1512
 9221TIP3   OH249153   1.645   2.787   4.077 -0.0987 -0.1707 -0.0186
 9221TIP3    H149154   1.666   2.876   4.049 -0.9128 -0.0051 -0.1487
 9221TIP3    H249155   1.726   2.737   4.066  0.3730  0.5601  0.0831
 9222TIP3   OH249156   6.466   4.020   6.592  0.1604  0.3359 -0.1698
 9222TIP3    H149157   6.538   3.959   6.607  1.0591  0.7435 -2.4032
 9222TIP3    H249158   6.392   3.983   6.639  1.5945 -0.5679  1.4629
 9223TIP3   OH249159   5.831   0.937  11.480  0.5103 -0.6422  0.2414
 9223TIP3    H149160   5.856   0.845  11.477 -0.4319 -0.9690  1.4900
 9223TIP3    H249161   5.864   0.969  11.564  1.6963  0.4600 -0.5924
 9224TIP3   OH249162   3.751   5.884   0.192  0.5273 -0.6100  0.0261
 9224TIP3    H149163   3.811   5.929   0.250 -0.4970  0.3244  0.3924
 9224TIP3    H249164   3.666   5.887   0.237  0.2661 -2.2939 -0.2549
 9225TIP3   OH249165   1.382   5.310  12.432 -0.6494  0.2713 -0.1503
 9225TIP3    H149166   1.389   5.238  12.369 -0.8585 -0.7931  1.0144
 9225TIP3    H249167   1.300   5.354  12.409 -0.4111  0.2848 -1.0103
 9226TIP3   OH249168   3.516   3.794   4.286  0.5267  0.3418  0.0315
 9226TIP3    H149169   3.532   3.813   4.193  1.0271  1.3716  0.3160
 9226TIP3    H249170   3.528   3.699   4.294  0.0939  0.1844 -1.0276
 9227TIP3   OH249171   5.513   3.264   2.446  0.6204 -0.2535 -0.3679
 9227TIP3    H149172   5.475   3.186   2.405  0.6703 -0.3688 -0.1961
 9227TIP3    H249173   5.453   3.284   2.518  0.1745  0.3320 -0.8938
 9228TIP3   OH249174   2.334   5.114  17.139  0.2044 -0.4928 -0.2651
 9228TIP3    H149175   2.365   5.198  17.104 -1.9951  0.7719  0.5855
 9228TIP3    H249176   2.401   5.051  17.113  3.1438  1.8647  0.9894
 9229TIP3   OH249177   0.543   5.617   6.461 -0.5417 -0.4270  0.2145
 9229TIP3    H149178   0.495   5.688   6.504  1.1682  0.2175  1.1569
 9229TIP3    H249179   0.579   5.566   6.533  0.1089 -0.9527 -0.4731
 9230TIP3   OH249180   4.746   0.209  15.604  0.3522 -0.2007 -0.2539
 9230TIP3    H149181   4.709   0.259  15.676 -0.9156 -1.7153  0.2208
 9230TIP3    H249182   4.677   0.208  15.537  0.4009 -1.1505 -0.3075
 9231TIP3   OH249183   4.966   6.675   5.842 -0.5185  0.5141  0.0493
 9231TIP3    H149184   5.001   6.615   5.776  0.4348  2.4141 -1.2558
 9231TIP3    H249185   4.964   6.623   5.922 -1.2968 -1.7473 -1.3274
 9232TIP3   OH249186   1.973   5.719  12.882 -0.0674 -0.1201 -0.2075
 9232TIP3    H149187   1.890   5.717  12.834  0.2613  0.1586 -0.8059
 9232TIP3    H249188   2.031   5.769  12.825  0.2650  0.4316  0.6044
 9233TIP3   OH249189   4.710   6.048  16.642  0.1713  0.2292 -0.6093
 9233TIP3    H149190   4.760   6.127  16.620  1.3555 -0.5222 -0.6960
 9233TIP3    H249191   4.719   5.991  16.566  1.2800 -0.9148  0.3241
 9234TIP3   OH249192   0.783   3.635  11.291  0.3116  0.6088 -0.4075
 9234TIP3    H149193   0.696   3.605  11.265 -0.3723  2.0411  0.1054
 9234TIP3    H249194   0.814   3.687  11.218  0.5258  0.5109 -0.3872
 9235TIP3   OH249195   3.331   3.015   0.581 -0.6516 -0.4682  0.3384
 9235TIP3    H149196   3.299   2.979   0.498  2.6123 -2.6165 -0.1776
 9235TIP3    H249197   3.330   3.110   0.568 -1.7998 -0.6848 -1.5191
 9236TIP3   OH249198   0.033   1.800   5.803 -0.1546 -0.0341 -0.0508
 9236TIP3    H149199  -0.002   1.889   5.797 -0.5239 -0.1885 -0.1977
 9236TIP3    H249200  -0.044   1.745   5.815  0.2045 -0.1496  2.1030
 9237TIP3   OH249201   5.068   1.678  16.940  0.4786 -0.1876  0.3059
 9237TIP3    H149202   5.053   1.754  16.884  0.3041 -0.2696  0.2444
 9237TIP3    H249203   5.004   1.614  16.912  0.4213 -0.2465  0.5680
 9238TIP3   OH249204   0.219   2.196  14.880 -0.3482  0.2309 -0.1894
 9238TIP3    H149205   0.235   2.107  14.849  1.8518  1.1248 -1.8350
 9238TIP3    H249206   0.206   2.248  14.800 -0.4012  1.5987  0.6664
 9239TIP3   OH249207   0.037   4.993   2.582  0.6949 -0.2279 -0.0671
 9239TIP3    H149208   0.043   5.089   2.578 -0.9972 -0.0623  0.7331
 9239TIP3    H249209   0.072   4.964   2.498  1.5951  1.0489 -0.1781
 9240TIP3   OH249210   3.889   1.709  15.546  0.1578 -0.3044 -0.3299
 9240TIP3    H149211   3.879   1.748  15.459  0.0063 -0.0143 -0.1840
 9240TIP3    H249212   3.869   1.616  15.533  1.6350 -0.5585 -0.9011
 9241TIP3   OH249213   5.091   6.663  10.445  0.2204  0.6857 -0.3801
 9241TIP3    H149214   5.155   6.720  10.488  1.0056 -0.7480  0.4344
 9241TIP3    H249215   5.037   6.723  10.393  1.3087  2.1034  0.0433
 9242TIP3   OH249216   1.019   1.618  13.695 -0.1006 -0.0261  0.1071
 9242TIP3    H149217   0.970   1.621  13.613 -0.9631  0.1462  0.6168
 9242TIP3    H249218   0.952   1.619  13.763  0.6283  1.7241  0.8685
 9243TIP3   OH249219   0.882   5.714  13.080  0.4685 -0.6871  0.4023
 9243TIP3    H149220   0.909   5.627  13.110 -0.4058 -0.0372  3.4420
 9243TIP3    H249221   0.930   5.775  13.136 -0.6807  0.7126 -0.0772
 9244TIP3   OH249222   1.994   0.268  11.541 -0.2079  0.0686 -0.3290
 9244TIP3    H149223   2.056   0.312  11.599  0.4600 -2.1487  0.7587
 9244TIP3    H249224   2.030   0.280  11.453  1.1873 -0.2080  0.1774
 9245TIP3   OH249225   2.737   0.831   1.061  0.1175 -0.3607 -0.5866
 9245TIP3    H149226   2.784   0.788   1.132 -1.2958 -1.5130 -0.2954
 9245TIP3    H249227   2.688   0.901   1.103 -0.1421 -0.5714 -0.5356
 9246TIP3   OH249228   5.723   3.295   6.322 -0.4647  0.1461  0.1344
 9246TIP3    H149229   5.781   3.256   6.387  0.1441  0.5119 -0.1758
 9246TIP3    H249230   5.765   3.277   6.238 -2.4969 -2.5826 -0.4615
 9247TIP3   OH249231   5.730   2.385  12.106  0.2531  0.2855  0.1796
 9247TIP3    H149232   5.686   2.320  12.160  0.8694  0.6606  1.1627
 9247TIP3    H249233   5.822   2.380  12.133  0.8754 -0.5470 -1.8716
 9248TIP3   OH249234   3.093   4.096   3.516 -0.0218  0.2535  0.2652
 9248TIP3    H149235   3.105   4.053   3.431 -0.1285 -2.6015  1.5881
 9248TIP3    H249236   3.004   4.072   3.542 -0.0346  1.2030  1.1372
 9249TIP3   OH249237   6.584   0.957   0.945  0.0204 -0.0846 -0.2036
 9249TIP3    H149238   6.632   0.902   0.883 -1.4912 -1.3765 -0.3010
 9249TIP3    H249239   6.608   0.922   1.031  0.5135  0.3490 -0.1621
 9250TIP3   OH249240   5.524   1.871   2.142  0.9333 -0.1099  0.3288
 9250TIP3    H149241   5.454   1.829   2.091  0.6600  0.0723  0.5475
 9250TIP3    H249242   5.490   1.872   2.231  1.3271 -0.2502  0.4795
 9251TIP3   OH249243   4.809   1.586  15.025  0.4311 -0.3234  0.4009
 9251TIP3    H149244   4.806   1.505  15.077  0.3637 -0.6268 -0.0713
 9251TIP3    H249245   4.902   1.597  15.004  0.1213 -2.0740 -2.2958
 9252TIP3   OH249246   3.578   3.533  15.611 -0.0414  0.9851 -0.3203
 9252TIP3    H149247   3.609   3.584  15.687  0.5088  0.4071 -0.1488
 9252TIP3    H249248   3.531   3.459  15.649 -0.3649  1.0658 -0.5597
 9253TIP3   OH249249   3.540   4.016   4.013 -0.0320  0.1837  0.0016
 9253TIP3    H149250   3.516   3.926   4.033 -0.0165  0.1107 -0.2981
 9253TIP3    H249251   3.471   4.069   4.055 -1.6829 -0.0860 -2.1816
 9254TIP3   OH249252   0.301   4.961  16.718 -0.1261 -0.5323 -0.4088
 9254TIP3    H149253   0.232   5.027  16.715  1.0953  0.8754  0.5248
 9254TIP3    H249254   0.342   4.974  16.804  1.3591 -1.2312 -0.9845
 9255TIP3   OH249255   5.865   4.624  17.167  0.0403 -0.4724  0.0690
 9255TIP3    H149256   5.826   4.683  17.232  1.5237 -1.2654  1.7881
 9255TIP3    H249257   5.799   4.556  17.154 -0.5032 -0.0029  0.3358
 9256TIP3   OH249258   4.122   0.373   0.844  0.5134 -0.0335 -0.0365
 9256TIP3    H149259   4.032   0.405   0.835  0.1173 -0.9163  0.6562
 9256TIP3    H249260   4.136   0.320   0.766  0.9595  1.2702 -0.8813
 9257TIP3   OH249261   0.296   3.538   2.286  0.1135 -0.4249 -0.6203
 9257TIP3    H149262   0.359   3.595   2.330 -1.0033  0.0410  0.4456
 9257TIP3    H249263   0.268   3.477   2.355  1.2406 -2.2550 -1.7159
 9258TIP3   OH249264   1.147   0.453   2.249 -0.0080 -0.0482  0.0888
 9258TIP3    H149265   1.189   0.370   2.227  1.9028  0.8398  0.1834
 9258TIP3    H249266   1.131   0.448   2.344  1.3631  0.2003  0.3513
 9259TIP3   OH249267   5.139   0.229   4.447  0.0815 -0.3471 -0.1807
 9259TIP3    H149268   5.095   0.309   4.478  1.0958  0.2095 -0.1279
 9259TIP3    H249269   5.228   0.258   4.426  0.3111 -1.3689 -0.6517
 9260TIP3   OH249270   5.091   3.251  11.614  0.5523  0.5183 -0.4389
 9260TIP3    H149271   5.091   3.209  11.527 -1.8973 -1.1916  0.2963
 9260TIP3    H249272   5.040   3.330  11.602 -0.5715 -0.1803 -0.4050
 9261TIP3   OH249273   0.829   6.721  15.166 -0.1822  0.1267 -0.7322
 9261TIP3    H149274   0.798   6.706  15.076 -0.2087 -1.6747 -0.4535
 9261TIP3    H249275   0.923   6.735  15.157 -0.3655  1.1863 -1.1441
 9262TIP3   OH249276   3.907   0.518  14.208  0.3402  0.4131  0.2837
 9262TIP3    H149277   3.902   0.611  14.231 -3.4858  0.2583  0.6500
 9262TIP3    H249278   3.853   0.510  14.130  0.0343 -1.5902  0.6648
 9263TIP3   OH249279   0.027   2.158   1.035  0.5205 -0.1869 -0.1692
 9263TIP3    H149280  -0.047   2.169   1.094  1.2187 -0.2104  0.7500
 9263TIP3    H249281   0.006   2.211   0.959  0.5008  1.5792  1.0027
 9264TIP3   OH249282   2.734   6.608  15.669  0.1774 -0.0760  0.3004
 9264TIP3    H149283   2.715   6.525  15.625  2.6928 -1.2110  1.1544
 9264TIP3    H249284   2.826   6.602  15.692  0.8751  3.6325 -0.8907
 9265TIP3   OH249285   0.712   6.372   0.549 -0.3487 -0.0803  0.4711
 9265TIP3    H149286   0.651   6.444   0.531  0.4811  0.4504 -0.3355
 9265TIP3    H249287   0.755   6.398   0.631 -1.1376 -0.4269  1.0088
 9266TIP3   OH249288   0.504   6.707  13.591  0.1805  0.2379  0.1700
 9266TIP3    H149289   0.460   6.672  13.669 -2.1343 -0.3608 -1.3135
 9266TIP3    H249290   0.537   6.792  13.619  1.7827 -1.0331  2.5170
 9267TIP3   OH249291   1.158   5.687   2.395 -0.1289 -0.0036  0.4702
 9267TIP3    H149292   1.220   5.616   2.411  0.4366  0.6350  1.2361
 9267TIP3    H249293   1.088   5.673   2.458 -0.4829 -0.4063 -0.0115
 9268TIP3   OH249294   3.818   5.356  15.538  0.8254 -0.4448 -0.3794
 9268TIP3    H149295   3.855   5.444  15.531  0.0559 -0.1757 -1.2497
 9268TIP3    H249296   3.854   5.308  15.463 -0.9529 -0.0223 -1.5522
 9269TIP3   OH249297   2.101   1.531  16.107 -1.0235 -0.2065  0.2278
 9269TIP3    H149298   2.065   1.575  16.030 -2.1764  0.1245  0.9459
 9269TIP3    H249299   2.033   1.470  16.135 -0.4884 -0.5609  0.8045
 9270TIP3   OH249300   3.567   4.373  14.139  0.6387  0.1979 -0.0582
 9270TIP3    H149301   3.583   4.279  14.145 -0.6684 -0.0264  0.1101
 9270TIP3    H249302   3.643   4.407  14.092 -0.1798 -1.3459 -2.6894
 9271TIP3   OH249303   3.095   6.325   6.112 -0.3548  0.1628  0.4639
 9271TIP3    H149304   3.053   6.239   6.120 -0.7742  0.4129  0.9982
 9271TIP3    H249305   3.186   6.310   6.139 -0.1522 -0.3215 -0.4241
 9272TIP3   OH249306   5.601   4.731   0.222 -0.1972  0.4612 -0.2905
 9272TIP3    H149307   5.573   4.640   0.213  1.7376 -0.3570  1.2904
 9272TIP3    H249308   5.569   4.774   0.143 -0.1195 -1.8508 -1.6529
 9273TIP3   OH249309   6.135   2.350  14.544 -0.1060  0.0486 -0.4252
 9273TIP3    H149310   6.167   2.426  14.495  0.2690 -0.7849 -1.4843
 9273TIP3    H249311   6.212   2.318  14.591 -0.1782  0.0894 -0.2781
 9274TIP3   OH249312   1.172   4.752  16.478  0.3577  0.4570 -0.2824
 9274TIP3    H149313   1.140   4.842  16.477 -0.4025  0.2623 -3.4555
 9274TIP3    H249314   1.245   4.752  16.416  0.3688 -1.1074 -0.3076
 9275TIP3   OH249315   5.986   2.016  13.799  0.1353  0.4410  0.5380
 9275TIP3    H149316   6.003   1.962  13.722 -0.3779 -1.0030  1.3858
 9275TIP3    H249317   5.895   2.045  13.789 -0.1171 -0.2184  0.8545
 9276TIP3   OH249318   1.156   2.025  16.381 -0.0917  0.1797  0.3603
 9276TIP3    H149319   1.209   1.945  16.375  2.8139  1.9636  0.5823
 9276TIP3    H249320   1.083   2.009  16.321  0.4137 -2.5922  0.3587
 9277TIP3   OH249321   2.984   5.744  10.787  0.2978 -0.6264 -0.2727
 9277TIP3    H149322   3.020   5.832  10.777 -1.2329  0.4666  2.4802
 9277TIP3    H249323   3.055   5.693  10.828  0.0514  0.4390  1.5926
 9278TIP3   OH249324   6.405   2.166  15.079  0.4087 -0.1702  0.2611
 9278TIP3    H149325   6.384   2.072  15.084 -1.3845  0.2381  1.7215
 9278TIP3    H249326   6.323   2.209  15.104  1.7374  1.7567  1.5281
 9279TIP3   OH249327   2.908   0.708  10.840 -0.2507 -0.3027  0.6340
 9279TIP3    H149328   2.864   0.792  10.828 -0.7173 -0.4187  1.4617
 9279TIP3    H249329   2.974   0.706  10.771 -1.2009  0.0992 -0.3249
 9280TIP3   OH249330   3.614   1.780   3.460  0.0402  0.3141  0.1519
 9280TIP3    H149331   3.635   1.848   3.525  1.4939  0.8226 -0.8075
 9280TIP3    H249332   3.697   1.763   3.416 -1.2820  1.6702 -3.1822
 9281TIP3   OH249333   1.874   1.184  13.373 -0.4538  0.4494  0.3337
 9281TIP3    H149334   1.936   1.220  13.310  0.4685  1.6340  1.8544
 9281TIP3    H249335   1.893   1.090  13.374 -0.1678  0.4836 -0.7957
 9282TIP3   OH249336   0.562   3.030  11.914 -0.3278  0.4977  0.1797
 9282TIP3    H149337   0.514   3.058  11.992 -1.0463 -0.0092 -0.0608
 9282TIP3    H249338   0.632   2.974  11.948  0.2876  1.4692  0.5579
 9283TIP3   OH249339   2.876   2.696  13.239 -0.1219 -0.0052 -0.2222
 9283TIP3    H149340   2.879   2.661  13.150 -1.5636 -0.9027  0.0423
 9283TIP3    H249341   2.869   2.791  13.227 -0.4577 -0.1296 -1.0804
 9284TIP3   OH249342   6.445   6.581  13.120 -0.1463 -0.0519 -0.8087
 9284TIP3    H149343   6.536   6.609  13.111 -0.4990  1.2009 -0.6732
 9284TIP3    H249344   6.435   6.562  13.214 -0.1588  0.2939 -0.7396
 9285TIP3   OH249345   3.900   3.748   5.659 -0.0618 -0.9244  0.3649
 9285TIP3    H149346   3.962   3.818   5.639  0.0380 -1.4500 -1.2812
 9285TIP3    H249347   3.874   3.765   5.750  1.9677 -0.3116  0.8798
 9286TIP3   OH249348   5.661   2.896   2.307  0.1919 -0.1973 -0.1637
 9286TIP3    H149349   5.578   2.944   2.311 -0.2233 -0.9164  0.0205
 9286TIP3    H249350   5.659   2.837   2.382  1.4860  0.7275  0.6366
 9287TIP3   OH249351   1.537   1.252   2.424 -0.2816  0.2479  0.7101
 9287TIP3    H149352   1.570   1.323   2.479 -0.5276  0.4679  0.5773
 9287TIP3    H249353   1.501   1.189   2.485 -2.2790  1.3462  0.7652
 9288TIP3   OH249354   5.079   6.200   0.102 -0.1788  0.1082 -0.8221
 9288TIP3    H149355   5.119   6.115   0.120 -1.2044 -0.0184  1.0846
 9288TIP3    H249356   4.987   6.189   0.128 -0.4404  1.6520 -1.0347
 9289TIP3   OH249357   1.811   3.313  16.792  0.2224  0.3406  0.3600
 9289TIP3    H149358   1.767   3.235  16.827  2.2614  0.4356  3.4750
 9289TIP3    H249359   1.821   3.294  16.698 -1.8947 -1.8109  0.4543
 9290TIP3   OH249360   4.818   4.444  17.054 -0.2020  0.0411 -0.4465
 9290TIP3    H149361   4.775   4.523  17.022 -1.5057 -0.4702 -0.0027
 9290TIP3    H249362   4.899   4.438  17.003 -0.1852  1.5368 -0.6293
 9291TIP3   OH249363   1.810   4.872  15.311  0.2057  0.1959 -0.2971
 9291TIP3    H149364   1.844   4.782  15.306  1.0776  0.5453 -0.7358
 9291TIP3    H249365   1.723   4.867  15.270 -0.5156 -0.8028  1.2411
 9292TIP3   OH249366   0.599   5.310  12.763 -0.1438  0.1795  0.1857
 9292TIP3    H149367   0.665   5.244  12.744 -0.7142  0.0194 -1.3527
 9292TIP3    H249368   0.643   5.371  12.823  0.7459 -0.9615  0.7427
 9293TIP3   OH249369   1.791   0.132   6.148  0.1024  0.0835 -0.2683
 9293TIP3    H149370   1.853   0.198   6.179 -0.5975  0.5663  0.1329
 9293TIP3    H249371   1.780   0.072   6.222 -0.6548  0.5612  0.0185
 9294TIP3   OH249372   5.145   0.585   5.531 -0.3033  0.2255  0.0529
 9294TIP3    H149373   5.230   0.613   5.565  0.0672 -1.8593  1.0009
 9294TIP3    H249374   5.163   0.561   5.441  0.2189 -0.5644  0.3555
 9295TIP3   OH249375   4.368   6.417  14.060 -0.4746 -0.5874  0.5975
 9295TIP3    H149376   4.452   6.384  14.027  0.3693  3.1503 -1.6225
 9295TIP3    H249377   4.388   6.450  14.148  1.3200  2.7142 -0.8626
 9296TIP3   OH249378   0.645   5.643  16.503 -0.0704  0.4086 -0.7843
 9296TIP3    H149379   0.728   5.688  16.487  0.3995 -0.4887 -0.9688
 9296TIP3    H249380   0.652   5.561  16.453 -0.4870 -0.3083  0.2802
 9297TIP3   OH249381   3.456   0.545  13.478  0.1892  0.1286  0.4685
 9297TIP3    H149382   3.402   0.466  13.471  1.8723 -1.1216  0.8927
 9297TIP3    H249383   3.524   0.522  13.542  0.5232  2.0611  0.8879
 9298TIP3   OH249384   2.474   2.533  14.655  0.0985  0.5363  0.2245
 9298TIP3    H149385   2.563   2.567  14.640  1.1316 -1.5916  1.0985
 9298TIP3    H249386   2.462   2.469  14.585 -0.5135  0.3694  0.4840
 9299TIP3   OH249387   1.237   5.955   4.323 -0.5612  0.3342 -0.0699
 9299TIP3    H149388   1.294   5.939   4.398  0.9564  0.9078 -1.0354
 9299TIP3    H249389   1.171   5.887   4.327  1.3310 -1.6012  0.0683
 9300TIP3   OH249390   3.532   4.217  14.870 -0.4648 -0.1665  0.5142
 9300TIP3    H149391   3.590   4.268  14.926 -1.5671  0.6646  0.9257
 9300TIP3    H249392   3.465   4.184  14.929  0.0812 -1.9268  0.2139
 9301TIP3   OH249393   2.377   6.342  16.254 -0.3680  0.3057 -0.1110
 9301TIP3    H149394   2.458   6.393  16.258  0.4822 -0.8051 -1.9920
 9301TIP3    H249395   2.383   6.283  16.329  0.8697 -0.1725 -0.5695
 9302TIP3   OH249396   6.685   4.998   4.181 -0.5988 -0.2396  0.0452
 9302TIP3    H149397   6.634   5.032   4.255  1.1431  1.0369  0.7075
 9302TIP3    H249398   6.712   4.911   4.209  1.5977  0.9071  1.7939
 9303TIP3   OH249399   1.323   4.323   0.229 -0.4898  0.1295 -0.3006
 9303TIP3    H149400   1.287   4.328   0.140  2.3608 -1.0641 -1.6251
 9303TIP3    H249401   1.291   4.240   0.263  0.9806 -0.9693 -1.5008
 9304TIP3   OH249402   0.090   1.698  13.911  0.0239  0.1342  0.2297
 9304TIP3    H149403   0.155   1.737  13.970  1.6905 -0.4482 -1.1493
 9304TIP3    H249404   0.121   1.721  13.823 -0.8657 -1.3316 -0.5031
 9305TIP3   OH249405   0.773   3.324  14.562 -0.3533 -0.6578  0.0404
 9305TIP3    H149406   0.822   3.341  14.482  2.5686 -0.8668  1.6425
 9305TIP3    H249407   0.794   3.398  14.619  0.2467 -2.0239  1.6952
 9306TIP3   OH249408   0.568   4.772   1.697 -0.1164 -0.5157 -0.4763
 9306TIP3    H149409   0.601   4.854   1.660 -0.9107 -0.7791 -1.8460
 9306TIP3    H249410   0.646   4.718   1.710  0.2484 -0.1884 -1.2400
 9307TIP3   OH249411   4.720   3.580  14.535 -0.5476 -0.3475 -0.4304
 9307TIP3    H149412   4.671   3.660  14.551  1.3772  0.6844  0.6958
 9307TIP3    H249413   4.742   3.584  14.442 -2.8491 -1.0495 -1.0661
 9308TIP3   OH249414   1.880   2.911  15.962  0.1310 -0.0668  0.1553
 9308TIP3    H149415   1.822   2.853  16.012 -0.5615  0.5735  0.1109
 9308TIP3    H249416   1.928   2.852  15.904  0.0948 -0.6939  0.7398
 9309TIP3   OH249417   0.960   5.689  12.821 -0.4660  0.7555  0.5479
 9309TIP3    H149418   0.891   5.638  12.779  2.1514 -2.2623 -0.5874
 9309TIP3    H249419   0.925   5.710  12.907 -2.3521 -1.8159  0.5466
 9310TIP3   OH249420   2.388   0.086  15.166  0.0992 -0.4418  0.0508
 9310TIP3    H149421   2.425   0.166  15.204 -1.6064  1.2355 -1.5887
 9310TIP3    H249422   2.384   0.024  15.239  1.7002  0.8739  1.3229
 9311TIP3   OH249423   4.123   3.511  13.826 -0.1487  0.1658  0.7560
 9311TIP3    H149424   4.098   3.421  13.847  1.1575  0.0510  1.9842
 9311TIP3    H249425   4.091   3.563  13.899 -1.2871  0.8015 -0.1572
 9312TIP3   OH249426   5.814   6.072   6.767 -0.3252 -0.4784 -0.1703
 9312TIP3    H149427   5.880   6.046   6.702 -0.3488  1.0989 -0.8748
 9312TIP3    H249428   5.780   5.990   6.801 -1.4221 -1.4720 -3.3046
 9313TIP3   OH249429   6.009   3.863   0.588  0.2486  0.0199 -0.1782
 9313TIP3    H149430   6.079   3.814   0.546  1.0630  0.2955  0.8153
 9313TIP3    H249431   6.027   3.854   0.682 -0.4895  0.8989  0.0576
 9314TIP3   OH249432   1.987   0.604  12.706 -0.0115  0.3814 -0.1845
 9314TIP3    H149433   2.016   0.609  12.796  1.9720 -1.9168 -0.5800
 9314TIP3    H249434   2.062   0.569  12.658 -1.2299  0.8259 -2.5962
 9315TIP3   OH249435   4.253   6.387   0.288  0.3798 -0.2731 -0.1223
 9315TIP3    H149436   4.228   6.476   0.312 -1.4187 -0.7203 -0.1366
 9315TIP3    H249437   4.346   6.393   0.266  0.3045  1.5904 -0.1316
 9316TIP3   OH249438   3.663   1.758   5.097 -0.2253  0.3196  0.3339
 9316TIP3    H149439   3.607   1.817   5.046 -2.5469 -1.6861  0.3829
 9316TIP3    H249440   3.680   1.806   5.178 -1.7091  1.1305  0.2066
 9317TIP3   OH249441   5.672   4.839  15.887 -0.2904 -0.1647 -0.8291
 9317TIP3    H149442   5.609   4.829  15.815 -1.1109  1.5210 -0.4003
 9317TIP3    H249443   5.626   4.894  15.951  0.9921 -0.3636  0.2968
 9318TIP3   OH249444   6.078   2.761  10.873  0.0656 -0.1160  0.0971
 9318TIP3    H149445   6.008   2.797  10.818  0.0466 -2.2924 -1.3882
 9318TIP3    H249446   6.126   2.838  10.904 -0.2850  1.2277 -2.4783
 9319TIP3   OH249447   0.912   1.158   4.674 -0.1817  0.1664  0.4104
 9319TIP3    H149448   0.944   1.247   4.658  1.2831 -0.7177 -2.2289
 9319TIP3    H249449   0.823   1.157   4.638  0.6619  0.0235 -1.8635
 9320TIP3   OH249450   2.284   0.898  16.007 -0.6968  0.0820 -0.3733
 9320TIP3    H149451   2.374   0.919  15.981 -0.9129  1.1805 -0.2888
 9320TIP3    H249452   2.286   0.902  16.103 -0.8950  0.4038 -0.3809
 9321TIP3   OH249453   4.208   4.015  10.540 -0.2844 -0.2522  0.1169
 9321TIP3    H149454   4.277   4.020  10.474  1.9348  0.0992  2.3117
 9321TIP3    H249455   4.186   3.923  10.545  2.2189 -0.8763  1.3681
 9322TIP3   OH249456   2.722   3.962   5.572  0.0368 -0.3811 -0.4476
 9322TIP3    H149457   2.769   4.046   5.573  0.5059 -0.6442 -0.4073
 9322TIP3    H249458   2.630   3.987   5.571  0.1158  0.1453  1.5809
 9323TIP3   OH249459   1.614   5.389  15.066  0.1868 -0.2279 -0.4899
 9323TIP3    H149460   1.680   5.386  15.135 -1.6340 -0.0829  1.3500
 9323TIP3    H249461   1.635   5.469  15.017  1.8924 -0.6753 -0.5464
 9324TIP3   OH249462   1.084   5.365  14.360  0.2867 -0.4376  0.3249
 9324TIP3    H149463   1.071   5.272  14.379 -0.1225 -0.3213  0.6118
 9324TIP3    H249464   1.179   5.375  14.356  0.3394 -0.8189  0.5496
 9325TIP3   OH249465   1.418   0.822  11.086 -0.2629 -0.0785  0.2426
 9325TIP3    H149466   1.404   0.750  11.148  0.9174  1.0089  1.8439
 9325TIP3    H249467   1.333   0.867  11.082 -0.9556 -1.3732 -0.6212
 9326TIP3   OH249468   5.074   3.911   4.854 -0.1513  0.0482  0.0315
 9326TIP3    H149469   5.022   3.863   4.918 -0.0030 -0.4269 -0.1972
 9326TIP3    H249470   5.027   3.899   4.771 -0.6700  1.1622  0.1502
 9327TIP3   OH249471   3.294   3.839  13.677 -0.4873 -0.4431 -0.3769
 9327TIP3    H149472   3.347   3.902  13.725  0.2615 -1.3554  0.0272
 9327TIP3    H249473   3.213   3.833  13.727  1.2267 -3.3257  2.4486
 9328TIP3   OH249474   2.013   6.179   3.744  0.0678 -0.4548  0.2649
 9328TIP3    H149475   1.974   6.093   3.754  0.0080 -0.4871 -0.2260
 9328TIP3    H249476   2.106   6.165   3.758 -0.0832 -0.3878  1.3834
 9329TIP3   OH249477   4.282   0.665   1.521 -0.0828  0.4249 -0.2409
 9329TIP3    H149478   4.349   0.718   1.564  0.6975 -0.7196  0.0006
 9329TIP3    H249479   4.302   0.672   1.427  0.4938 -0.0445 -0.1585
 9330TIP3   OH249480   0.070   6.493   2.752  0.0315  0.1794 -0.0383
 9330TIP3    H149481   0.151   6.471   2.798 -0.3704  0.5059  0.8607
 9330TIP3    H249482   0.094   6.562   2.691  0.5159 -0.0342 -0.0927
 9331TIP3   OH249483   5.747   3.792   2.251 -0.4511 -0.0394  0.0535
 9331TIP3    H149484   5.839   3.816   2.264 -0.1014 -0.1141 -1.9888
 9331TIP3    H249485   5.748   3.697   2.241 -0.8796 -0.1343  0.8119
 9332TIP3   OH249486   2.243   0.324  13.642 -0.0063  0.3118  0.3960
 9332TIP3    H149487   2.303   0.264  13.685  1.0891  0.4308 -0.8999
 9332TIP3    H249488   2.232   0.288  13.554  0.2870  1.7291 -0.2451
 9333TIP3   OH249489   4.737   1.447  16.212  0.3207 -0.1290 -0.2315
 9333TIP3    H149490   4.709   1.421  16.124 -1.8871 -1.6665  0.8416
 9333TIP3    H249491   4.669   1.508  16.242  0.0589 -1.0128  1.0581
 9334TIP3   OH249492   4.932   5.132   5.522  0.3306 -0.6180  0.7041
 9334TIP3    H149493   5.024   5.146   5.543  0.0855  0.6429  0.9839
 9334TIP3    H249494   4.910   5.050   5.566  0.5940  0.4775  3.0162
 9335TIP3   OH249495   2.054   1.372   2.878 -0.1507  0.5495  0.7303
 9335TIP3    H149496   2.070   1.411   2.792  1.1070 -1.1694  0.1368
 9335TIP3    H249497   2.016   1.443   2.929  2.2954  2.6917 -0.1745
 9336TIP3   OH249498   6.547   2.622   1.189  0.6373  0.1329 -0.0186
 9336TIP3    H149499   6.546   2.656   1.100 -0.9626  0.0235 -0.0782
 9336TIP3    H249500   6.481   2.553   1.189 -2.1638  2.5320  2.0718
 9337TIP3   OH249501   4.119   2.881   0.472 -0.4261 -0.1575  0.0165
 9337TIP3    H149502   4.039   2.851   0.429  0.4362  0.1704 -1.9359
 9337TIP3    H249503   4.172   2.802   0.483 -0.1234 -0.0734 -0.7497
 9338TIP3   OH249504   2.135   1.342   2.399  0.1055 -0.0223 -0.3553
 9338TIP3    H149505   2.170   1.273   2.342  0.2782  0.9007 -1.4186
 9338TIP3    H249506   2.051   1.366   2.359  0.2171  0.6276 -0.2199
 9339TIP3   OH249507   5.881   0.509   1.587 -0.1489  0.7321  0.1667
 9339TIP3    H149508   5.803   0.554   1.618 -0.2571  0.7248 -0.0885
 9339TIP3    H249509   5.857   0.416   1.586 -0.6339  0.8432 -1.2774
 9340TIP3   OH249510   4.381   6.460   5.986 -0.0194 -0.0924 -0.6720
 9340TIP3    H149511   4.328   6.397   6.034  1.1301  0.0802  0.8931
 9340TIP3    H249512   4.471   6.429   5.997  0.7271  2.4000  1.1761
 9341TIP3   OH249513   5.880   1.731  16.556  0.0872  0.2830 -0.3410
 9341TIP3    H149514   5.950   1.794  16.573  0.3082 -0.0361 -0.0599
 9341TIP3    H249515   5.816   1.779  16.504  0.4473  0.6196 -0.4709
 9342TIP3   OH249516   4.105   0.452  12.051  0.3143  0.1124  0.3265
 9342TIP3    H149517   4.033   0.411  12.002  0.0182 -0.9602  1.5970
 9342TIP3    H249518   4.066   0.475  12.135  1.1358  0.7621  0.5406
 9343TIP3   OH249519   4.239   1.615  15.799 -0.0529  0.1507  0.2248
 9343TIP3    H149520   4.237   1.523  15.824  2.8440  0.3008  1.3351
 9343TIP3    H249521   4.162   1.653  15.842 -0.2399 -1.3853  1.3311
 9344TIP3   OH249522   3.135   1.629   5.415  0.2956 -0.5304 -0.5408
 9344TIP3    H149523   3.214   1.577   5.432  1.7490  1.5979 -0.3471
 9344TIP3    H249524   3.133   1.638   5.320 -0.8740 -2.2030 -0.7128
 9345TIP3   OH249525   4.775   1.588  15.395  0.1448  0.3281  0.4553
 9345TIP3    H149526   4.834   1.652  15.436  0.6074  0.2610 -0.0887
 9345TIP3    H249527   4.833   1.532  15.343 -0.1796 -0.8978  1.3724
 9346TIP3   OH249528   0.538   1.530  12.450  0.4375  0.1582 -0.4433
 9346TIP3    H149529   0.547   1.437  12.470 -1.0715  0.1397  0.2595
 9346TIP3    H249530   0.622   1.568  12.478  0.4934 -0.7652  0.7318
 9347TIP3   OH249531   5.277   0.652   2.252 -0.8667 -0.8117 -0.2237
 9347TIP3    H149532   5.201   0.710   2.246 -0.3379  0.0374  0.8405
 9347TIP3    H249533   5.264   0.588   2.182 -2.8196 -1.0144  0.2635
 9348TIP3   OH249534   6.237   0.445   3.608  0.0616 -0.0306  0.5517
 9348TIP3    H149535   6.289   0.498   3.548  1.4254 -1.9775 -0.0708
 9348TIP3    H249536   6.147   0.459   3.581  0.2708  2.5875  0.9689
 9349TIP3   OH249537   4.003   2.925   2.772 -0.3512 -0.2551  0.3738
 9349TIP3    H149538   3.982   2.996   2.833  1.6771 -0.1909  1.0494
 9349TIP3    H249539   3.926   2.919   2.714 -1.4726  1.0044  1.6793
 9350TIP3   OH249540   3.542   3.171   1.505  0.0509 -0.2475  0.1285
 9350TIP3    H149541   3.537   3.113   1.429  0.2388 -2.1050  1.4783
 9350TIP3    H249542   3.451   3.191   1.526 -0.0548 -0.8250  0.2240
 9351TIP3   OH249543   5.118   4.964   1.740  0.2140  0.3532  0.2162
 9351TIP3    H149544   5.153   4.990   1.655 -0.7294  2.2250  0.3491
 9351TIP3    H249545   5.051   4.899   1.720  0.5756  0.1622 -0.3926
 9352TIP3   OH249546   2.418   5.827  13.125  0.3358  0.5317 -0.0781
 9352TIP3    H149547   2.432   5.880  13.047 -1.8789  1.1444 -0.1034
 9352TIP3    H249548   2.480   5.862  13.189 -0.8232  2.9985 -0.2044
 9353TIP3   OH249549   3.098   2.780  12.651 -0.4523 -0.1733  0.8055
 9353TIP3    H149550   3.034   2.728  12.699  0.5146 -0.7749  1.4877
 9353TIP3    H249551   3.175   2.724  12.644  0.8499  1.3423  2.1164
 9354TIP3   OH249552   2.733   1.336   4.553 -0.2487  0.7074 -0.7890
 9354TIP3    H149553   2.685   1.401   4.604  1.7796  0.5408  1.4815
 9354TIP3    H249554   2.825   1.362   4.560  0.6393 -2.2013  0.0601
 9355TIP3   OH249555   6.480   6.192  13.162 -0.4898  0.1039  0.1032
 9355TIP3    H149556   6.446   6.114  13.117 -0.7322  0.6420 -0.6871
 9355TIP3    H249557   6.546   6.159  13.222 -0.6846 -0.7247 -0.1261
 9356TIP3   OH249558   1.653   4.418   1.178 -0.5125  0.1398  0.1508
 9356TIP3    H149559   1.676   4.413   1.271 -0.0507  1.5623  0.1345
 9356TIP3    H249560   1.596   4.342   1.164  1.9413 -2.0057  0.8205
 9357TIP3   OH249561   2.654   2.143  16.229  0.6332 -0.4236  0.0365
 9357TIP3    H149562   2.645   2.063  16.280  0.3629 -0.0560  0.5678
 9357TIP3    H249563   2.576   2.146  16.174  0.4366 -0.3186  0.3167
 9358TIP3   OH249564   2.362   4.541   1.563  0.0684 -0.6073 -0.2083
 9358TIP3    H149565   2.405   4.463   1.527  0.2791 -0.5517 -0.0832
 9358TIP3    H249566   2.281   4.509   1.601 -0.2546 -0.6359 -0.9151
 9359TIP3   OH249567   5.687   3.907  15.602 -0.3558  0.0193 -0.2707
 9359TIP3    H149568   5.616   3.862  15.648  1.5021 -1.3023  1.5027
 9359TIP3    H249569   5.720   3.842  15.540  0.1897  0.1112 -0.0823
 9360TIP3   OH249570   3.634   0.744   1.508 -0.4647 -0.6837  0.9324
 9360TIP3    H149571   3.569   0.751   1.439 -0.0484 -1.1935  0.4870
 9360TIP3    H249572   3.684   0.665   1.488 -0.0335 -0.5847  1.5511
 9361TIP3   OH249573   4.482   4.697   4.584 -0.6092  0.4926  0.1244
 9361TIP3    H149574   4.525   4.615   4.560  0.1466  0.6279  0.9602
 9361TIP3    H249575   4.430   4.721   4.507 -0.6568 -0.6453 -0.2103
 9362TIP3   OH249576   5.046   0.914  11.959  0.4588 -0.1878  0.0808
 9362TIP3    H149577   4.963   0.874  11.986  0.4836 -0.8426 -0.7771
 9362TIP3    H249578   5.031   1.008  11.969 -0.4453 -0.2844 -0.1987
 9363TIP3   OH249579   4.450   5.432   0.854 -0.1050  0.2931 -0.0197
 9363TIP3    H149580   4.372   5.452   0.905 -0.3276  0.7185 -0.5060
 9363TIP3    H249581   4.464   5.338   0.866 -0.7339  0.1978  0.0190
 9364TIP3   OH249582   0.023   1.439   4.439  0.0148  0.8998  0.2568
 9364TIP3    H149583  -0.021   1.457   4.522 -2.4084  0.6707 -0.8810
 9364TIP3    H249584   0.060   1.523   4.412  0.6148  1.0251  1.4259
 9365TIP3   OH249585   3.495   4.673   3.980  0.9218  0.0684 -0.5644
 9365TIP3    H149586   3.564   4.701   4.040  1.0385  2.4401 -1.7286
 9365TIP3    H249587   3.429   4.634   4.037  1.8109  0.6179  0.8973
 9366TIP3   OH249588   1.385   0.233  15.919  0.1798 -0.4421 -0.1128
 9366TIP3    H149589   1.421   0.320  15.902  2.1297 -1.2512 -0.3473
 9366TIP3    H249590   1.295   0.238  15.886  0.5360  1.2155 -0.9533
 9367TIP3   OH249591   1.771   2.398  16.649  0.1454  0.1771  0.5617
 9367TIP3    H149592   1.838   2.362  16.708  2.1952  1.1460 -1.0742
 9367TIP3    H249593   1.820   2.431  16.574 -2.1249  1.6783 -0.3525
 9368TIP3   OH249594   0.130   1.468   5.361  0.0460 -0.1010 -0.0650
 9368TIP3    H149595   0.172   1.522   5.428  0.4057  0.0930 -0.4422
 9368TIP3    H249596   0.200   1.448   5.299 -0.2389 -0.4401 -0.2827
 9369TIP3   OH249597   6.682   1.643   5.902  0.2217 -0.2658  0.1542
 9369TIP3    H149598   6.635   1.726   5.903 -2.0563 -1.4428 -0.8241
 9369TIP3    H249599   6.616   1.578   5.927  1.9576 -1.7889  1.0102
 9370TIP3   OH249600   5.886   3.687  15.780  0.1497  0.3637 -0.3067
 9370TIP3    H149601   5.875   3.670  15.686  1.2073  0.7887 -0.5200
 9370TIP3    H249602   5.906   3.781  15.784 -2.4831  0.9626  0.5750
 9371TIP3   OH249603   4.849   3.902   1.350  0.3259  0.0989 -0.6133
 9371TIP3    H149604   4.765   3.942   1.371 -0.8786 -2.0249 -1.0396
 9371TIP3    H249605   4.875   3.941   1.267  0.2178  1.3854 -0.0610
 9372TIP3   OH249606   0.969   2.179  13.636  0.1850  0.2254  0.1946
 9372TIP3    H149607   0.886   2.222  13.615  0.9748  2.2193  0.9140
 9372TIP3    H249608   1.031   2.251  13.648  1.5829 -1.1258  1.5527
 9373TIP3   OH249609   1.996   4.079   2.302  0.8063  0.3708  0.2229
 9373TIP3    H149610   1.961   4.025   2.373 -0.8263 -0.1756 -0.9379
 9373TIP3    H249611   2.008   4.165   2.342 -1.1875  0.3817  0.9319
 9374TIP3   OH249612   5.820   5.006  11.584  0.4627 -0.0927  0.0892
 9374TIP3    H149613   5.828   4.981  11.492 -3.1454  0.5071 -0.5287
 9374TIP3    H249614   5.828   5.102  11.584  0.5754 -0.0989  0.4242
 9375TIP3   OH249615   2.790   6.789   3.928  0.3495  0.4887  0.6311
 9375TIP3    H149616   2.738   6.732   3.871  2.1819 -1.6431  0.9780
 9375TIP3    H249617   2.783   6.750   4.015  2.3578  0.2237  0.7173
 9376TIP3   OH249618   4.823   6.140   2.109  0.0130  0.3603  0.1354
 9376TIP3    H149619   4.871   6.194   2.172  0.1388  1.3682 -0.8039
 9376TIP3    H249620   4.880   6.065   2.093  0.5994  0.8054  0.1481
 9377TIP3   OH249621   5.446   3.361  14.245  0.0294 -0.4447  0.1346
 9377TIP3    H149622   5.393   3.426  14.292  2.6687  1.6525  0.4658
 9377TIP3    H249623   5.438   3.281  14.298 -0.4648  0.6328  1.7931
 9378TIP3   OH249624   6.087   5.699  16.131  0.2810  0.0710 -0.2825
 9378TIP3    H149625   6.007   5.724  16.176  0.9033 -0.2123  1.0357
 9378TIP3    H249626   6.153   5.695  16.200  1.0367 -1.4281 -1.0392
 9379TIP3   OH249627   5.998   0.848  15.603 -0.1064  0.0120  0.1162
 9379TIP3    H149628   5.936   0.918  15.584  0.1053  0.6601  1.6570
 9379TIP3    H249629   6.048   0.837  15.522  0.1336  1.9467 -0.0422
 9380TIP3   OH249630   5.732   5.668   1.589  0.2290  0.0159  0.1502
 9380TIP3    H149631   5.678   5.617   1.649 -1.2744  0.3364 -0.8643
 9380TIP3    H249632   5.822   5.638   1.605 -0.3665 -1.3617  1.0841
 9381TIP3   OH249633   1.234   2.449   4.988  0.0897 -0.1496 -0.5636
 9381TIP3    H149634   1.152   2.497   4.999 -0.9786 -1.3997 -2.5377
 9381TIP3    H249635   1.254   2.457   4.895  1.5988 -0.8694 -0.3284
 9382TIP3   OH249636   4.563   4.385   3.103  0.1207 -0.4522  0.2883
 9382TIP3    H149637   4.579   4.426   3.187  0.0384  0.8337 -0.3005
 9382TIP3    H249638   4.487   4.328   3.118  0.8158 -1.1221  1.3403
 9383TIP3   OH249639   1.356   0.800   4.440 -0.0271  0.5403 -0.2250
 9383TIP3    H149640   1.445   0.764   4.439 -0.5122 -0.7361 -1.6092
 9383TIP3    H249641   1.355   0.859   4.515  0.8664 -2.3101  2.2185
 9384TIP3   OH249642   1.671   0.720   4.428 -0.4032 -0.5046  0.1692
 9384TIP3    H149643   1.706   0.702   4.341 -1.1272 -1.8859  0.1286
 9384TIP3    H249644   1.730   0.674   4.488  0.5547  1.0943  0.5070
 9385TIP3   OH249645   1.380   4.452   3.618  0.4818 -0.2383  0.0904
 9385TIP3    H149646   1.390   4.367   3.575  0.1440  0.3908 -1.3007
 9385TIP3    H249647   1.290   4.453   3.650 -0.2061  0.3419 -1.7055
 9386TIP3   OH249648   3.377   6.180  11.177  0.6682 -0.1044 -0.1452
 9386TIP3    H149649   3.424   6.157  11.097 -1.1750 -2.2050 -0.7141
 9386TIP3    H249650   3.290   6.206  11.147  0.1327 -0.3708  1.1323
 9387TIP3   OH249651   4.879   5.107  16.157 -0.3435  0.0595  0.3181
 9387TIP3    H149652   4.876   5.047  16.082 -1.5316 -0.3503  0.6776
 9387TIP3    H249653   4.945   5.068  16.215 -0.9983 -0.8425  0.4824
 9388TIP3   OH249654   5.983   5.305   6.189  0.3719  0.2753 -0.0147
 9388TIP3    H149655   5.894   5.300   6.224  0.2625  1.4132 -0.0904
 9388TIP3    H249656   6.039   5.304   6.266  0.2991 -0.4370  0.0336
 9389TIP3   OH249657   1.340   3.345   0.013  0.2058 -0.3303 -0.6896
 9389TIP3    H149658   1.312   3.397  -0.063 -0.9125  1.1081  0.6238
 9389TIP3    H249659   1.259   3.329   0.061  0.7745 -1.9991 -0.2526
 9390TIP3   OH249660   5.289   3.940   2.211 -0.5847  0.5870  0.2318
 9390TIP3    H149661   5.358   3.998   2.177 -1.1847  0.7551 -0.7359
 9390TIP3    H249662   5.305   3.857   2.167  0.6653 -0.2337  2.0941
 9391TIP3   OH249663   0.966   3.930  16.585  0.0344  0.3904 -0.0395
 9391TIP3    H149664   0.960   3.901  16.494 -2.0911 -0.5771  0.3475
 9391TIP3    H249665   0.930   4.019  16.584 -0.6095  0.1317 -0.0446
 9392TIP3   OH249666   5.356   2.889   5.273  0.4622 -0.2893  0.1009
 9392TIP3    H149667   5.328   2.807   5.233  0.8566 -0.7253  0.6846
 9392TIP3    H249668   5.297   2.900   5.348 -0.8116  0.9454 -1.0328
 9393TIP3   OH249669   6.114   3.609   2.894  0.5621 -0.5235  0.4873
 9393TIP3    H149670   6.070   3.631   2.812  0.6432 -0.7823  0.3729
 9393TIP3    H249671   6.046   3.615   2.961  0.4246 -0.6160  0.3560
 9394TIP3   OH249672   2.424   3.369  12.426  1.1362  0.1579  0.3934
 9394TIP3    H149673   2.426   3.395  12.334 -0.3277 -0.9924 -0.0014
 9394TIP3    H249674   2.337   3.396  12.457 -0.0898 -3.1352  0.2317
 9395TIP3   OH249675   3.454   3.670   2.410  0.4206 -0.1320 -0.1331
 9395TIP3    H149676   3.486   3.582   2.393 -1.3100 -0.7439 -0.4098
 9395TIP3    H249677   3.429   3.669   2.502 -0.6142 -0.2872 -0.4038
 9396TIP3   OH249678   4.226   6.750  12.550  0.4695 -0.4764  0.1409
 9396TIP3    H149679   4.216   6.770  12.457  2.6893  0.6640  0.0747
 9396TIP3    H249680   4.206   6.657  12.556 -0.4682 -0.4172 -1.3237
 9397TIP3   OH249681   0.835   2.359  11.772  0.1092  0.6926 -0.1208
 9397TIP3    H149682   0.795   2.272  11.781 -0.4095  1.0820  2.1246
 9397TIP3    H249683   0.926   2.346  11.800  0.2924  0.6901 -0.7175
 9398TIP3   OH249684   2.648   1.602  10.946  0.5631  0.1269  0.2222
 9398TIP3    H149685   2.639   1.688  10.987  0.5415  0.7750 -1.0954
 9398TIP3    H249686   2.573   1.552  10.979  1.2760  0.1487  2.0125
 9399TIP3   OH249687   6.669   3.767   1.295  0.1525  0.1199  0.4217
 9399TIP3    H149688   6.708   3.765   1.208 -3.1809 -0.5977 -1.2278
 9399TIP3    H249689   6.723   3.829   1.344  1.9435  0.8422 -2.2540
 9400TIP3   OH249690   0.025   2.512  14.698 -0.0436 -0.1400 -0.2584
 9400TIP3    H149691   0.076   2.440  14.660 -0.2552  1.0600 -3.0571
 9400TIP3    H249692  -0.066   2.486  14.685 -0.1957 -0.7053  1.5954
 9401TIP3   OH249693   0.554   2.649   2.828 -0.0946  0.0368  0.7469
 9401TIP3    H149694   0.469   2.608   2.842 -1.0774  1.5588 -0.4603
 9401TIP3    H249695   0.533   2.739   2.802  1.8855  0.4018  0.2880
 9402TIP3   OH249696   3.622   3.079  11.370 -0.1683  0.0143  0.2557
 9402TIP3    H149697   3.619   3.036  11.284  0.7729 -0.0717  0.2644
 9402TIP3    H249698   3.683   3.027  11.422 -0.9569 -0.1128  1.0857
 9403TIP3   OH249699   5.963   2.276  14.295 -0.2730 -0.5101  0.4440
 9403TIP3    H149700   5.872   2.304  14.284 -0.9706 -3.4150 -3.6339
 9403TIP3    H249701   5.964   2.227  14.377 -1.6412  1.6285  1.8451
 9404TIP3   OH249702   4.071   5.701   4.283  0.7211  0.3773 -0.1041
 9404TIP3    H149703   4.157   5.724   4.248  0.5768 -1.8049 -2.1757
 9404TIP3    H249704   4.042   5.627   4.229 -0.8164 -1.4399  2.9262
 9405TIP3   OH249705   1.588   1.703  16.014  0.1064 -0.2477 -0.0034
 9405TIP3    H149706   1.507   1.658  15.989 -0.2022  1.5558 -2.7179
 9405TIP3    H249707   1.573   1.731  16.104 -2.5763  0.4482 -0.5600
 9406TIP3   OH249708   5.043   6.463   1.787 -0.0797  0.6223  0.4219
 9406TIP3    H149709   5.085   6.392   1.834 -0.7875 -1.3116 -1.6538
 9406TIP3    H249710   4.983   6.419   1.726 -0.9253  3.0214 -0.6165
 9407TIP3   OH249711   0.412   6.598   6.403 -0.3575  0.5124 -0.7451
 9407TIP3    H149712   0.324   6.614   6.439 -0.6517 -0.5335 -0.9498
 9407TIP3    H249713   0.467   6.586   6.481 -0.1325  2.3519 -0.5911
 9408TIP3   OH249714   1.651   6.756  12.303  0.7382 -0.2416 -0.2039
 9408TIP3    H149715   1.639   6.661  12.312  0.7002 -0.1032  1.3295
 9408TIP3    H249716   1.611   6.793  12.381  0.7149  1.0607 -0.8083
 9409TIP3   OH249717   4.105   0.486  14.483  0.2792  0.1520  0.1879
 9409TIP3    H149718   4.024   0.449  14.448 -0.2038  2.5282 -1.4760
 9409TIP3    H249719   4.175   0.440  14.437 -0.2215 -0.2075 -0.2240
 9410TIP3   OH249720   3.052   0.668   2.190 -0.1616  0.1768 -0.0183
 9410TIP3    H149721   2.969   0.707   2.164 -0.6412 -1.3348 -0.8825
 9410TIP3    H249722   3.095   0.645   2.107  1.2472  1.1418  0.4006
 9411TIP3   OH249723   6.252   0.110   3.157 -0.0400 -0.1404 -0.2592
 9411TIP3    H149724   6.284   0.157   3.234  3.7341 -1.6317 -0.6892
 9411TIP3    H249725   6.194   0.042   3.193  2.1391 -1.2259  1.4930
 9412TIP3   OH249726   6.353   6.185   4.240  0.5580  0.0207  0.0998
 9412TIP3    H149727   6.296   6.219   4.309 -0.8964  0.0000 -1.0267
 9412TIP3    H249728   6.316   6.100   4.218  1.4896 -0.3305 -0.1608
 9413TIP3   OH249729   3.442   1.816  15.691 -0.4132 -0.4680  0.1767
 9413TIP3    H149730   3.430   1.875  15.766  1.7458  0.1536  0.1012
 9413TIP3    H249731   3.430   1.728  15.727 -2.2142 -0.0919  0.6061
 9414TIP3   OH249732   0.301   0.950  13.791 -0.0454 -0.0180 -0.5661
 9414TIP3    H149733   0.317   0.865  13.752 -0.8316 -0.4314 -0.0135
 9414TIP3    H249734   0.256   0.931  13.873  0.2488  0.9037 -0.1798
 9415TIP3   OH249735   2.895   0.269   4.838 -0.0224  0.1097 -0.1102
 9415TIP3    H149736   2.960   0.201   4.857  0.3289  0.7871  1.2512
 9415TIP3    H249737   2.928   0.347   4.883 -0.8101  0.9865 -0.9984
 9416TIP3   OH249738   5.316   0.801   4.109 -0.1158  0.0294 -0.3442
 9416TIP3    H149739   5.276   0.845   4.034 -1.2111 -0.4637 -0.0623
 9416TIP3    H249740   5.244   0.786   4.170  0.4306 -1.1551  0.0429
 9417TIP3   OH249741   4.057   0.546   1.617 -0.0935 -0.3463  0.0295
 9417TIP3    H149742   3.990   0.565   1.551 -0.6711  0.8866  0.9254
 9417TIP3    H249743   4.134   0.594   1.588 -0.4058  0.3514  0.3232
 9418TIP3   OH249744   0.034   3.699   4.353 -0.0489  0.0629  0.3841
 9418TIP3    H149745  -0.011   3.683   4.436  0.1963  0.5254  0.6104
 9418TIP3    H249746   0.104   3.761   4.375 -1.0182  1.5179 -0.4514
 9419TIP3   OH249747   1.349   0.887  14.276 -0.0891  0.0405 -0.3543
 9419TIP3    H149748   1.255   0.871  14.280 -0.1927  0.8974  0.8750
 9419TIP3    H249749   1.387   0.800  14.263 -0.8870 -0.7266  2.0498
 9420TIP3   OH249750   0.301   2.428  15.084 -0.3385  0.5050 -0.8203
 9420TIP3    H149751   0.280   2.344  15.043 -2.4305 -0.6582  2.1911
 9420TIP3    H249752   0.238   2.489  15.047 -0.7641  0.0202 -0.9102
 9421TIP3   OH249753   2.875   6.061  12.165  0.1140 -0.2388  0.3055
 9421TIP3    H149754   2.813   6.005  12.117  1.1628 -0.9123 -0.3047
 9421TIP3    H249755   2.830   6.145  12.172 -0.7428 -0.6079 -0.4146
 9422TIP3   OH249756   6.437   2.136   0.490  0.1502 -0.2375 -0.5997
 9422TIP3    H149757   6.367   2.084   0.451 -0.6798 -0.9614  1.6826
 9422TIP3    H249758   6.517   2.087   0.471  0.0707  0.4127 -2.9235
 9423TIP3   OH249759   4.917   5.368  10.968  0.0298 -0.0218 -0.1473
 9423TIP3    H149760   4.864   5.411  10.901  2.1484  1.5312 -0.9482
 9423TIP3    H249761   4.934   5.281  10.933 -1.3638 -0.2847 -0.1985
 9424TIP3   OH249762   5.355   6.621   2.362 -0.0513 -0.1172 -0.1538
 9424TIP3    H149763   5.389   6.539   2.398  3.4258  0.9539 -0.5721
 9424TIP3    H249764   5.281   6.594   2.308 -0.4609 -2.6666  1.5041
 9425TIP3   OH249765   2.832   5.026   2.842  0.5251  0.7838 -0.7806
 9425TIP3    H149766   2.840   4.958   2.775 -1.9729  0.1696 -0.5710
 9425TIP3    H249767   2.891   4.998   2.912  1.0410 -0.0809 -1.5386
 9426TIP3   OH249768   4.196   4.574   4.382  0.2873  0.2166 -0.0763
 9426TIP3    H149769   4.291   4.565   4.380  0.2482 -0.2201 -0.2412
 9426TIP3    H249770   4.165   4.523   4.307 -0.1179 -0.2782  0.4077
 9427TIP3   OH249771   1.038   0.482   1.477 -0.0317  0.5542 -0.3121
 9427TIP3    H149772   1.130   0.507   1.475  0.2903 -0.5995 -2.2032
 9427TIP3    H249773   0.991   0.565   1.471  0.9009  1.0826 -0.5776
 9428TIP3   OH249774   1.815   1.033   1.879 -0.4359  0.0940 -0.3597
 9428TIP3    H149775   1.819   0.986   1.963 -1.3792  1.6904  0.6471
 9428TIP3    H249776   1.888   0.998   1.828  0.6122 -0.4415  1.4123
 9429TIP3   OH249777   3.321   2.784   6.182  0.3161 -0.5741  0.4161
 9429TIP3    H149778   3.265   2.860   6.197 -0.6283 -1.0604 -0.5273
 9429TIP3    H249779   3.375   2.808   6.107  0.6375 -0.5122  0.6633
 9430TIP3   OH249780   6.703   6.323   7.041  0.2910  0.2178 -0.1790
 9430TIP3    H149781   6.643   6.394   7.065 -1.1145 -1.0177  0.1356
 9430TIP3    H249782   6.759   6.361   6.973 -0.7362  1.4855 -0.3598
 9431TIP3   OH249783   4.508   4.104  11.532 -0.1567 -0.2079  0.0284
 9431TIP3    H149784   4.467   4.093  11.618  0.9610 -1.1535  0.4756
 9431TIP3    H249785   4.588   4.153  11.550  1.7274 -3.0568  0.1012
 9432TIP3   OH249786   3.505   4.662   5.770  0.7226 -0.1883 -0.1960
 9432TIP3    H149787   3.439   4.732   5.775 -0.3374 -1.1675 -0.0364
 9432TIP3    H249788   3.511   4.628   5.860  0.4230 -1.0096 -0.4776
 9433TIP3   OH249789   3.707   4.428   0.111 -0.3802  0.3693  0.0831
 9433TIP3    H149790   3.670   4.503   0.158 -0.3110  0.1634  0.4668
 9433TIP3    H249791   3.660   4.427   0.027  0.1792  1.3161 -0.2544
 9434TIP3   OH249792   3.454   2.354  14.426 -0.4562  0.2319  0.5405
 9434TIP3    H149793   3.491   2.300  14.496  0.3149 -1.0592 -0.7971
 9434TIP3    H249794   3.463   2.444  14.457 -0.9607 -0.3219  2.4643
 9435TIP3   OH249795   4.366   6.541   5.695  0.2046  0.2515  0.0132
 9435TIP3    H149796   4.351   6.525   5.788  0.2159 -2.4699 -0.3605
 9435TIP3    H249797   4.322   6.468   5.651  2.8685 -0.3485 -1.9217
 9436TIP3   OH249798   1.006   2.226   3.052 -0.2340 -0.4052  0.2706
 9436TIP3    H149799   0.978   2.204   3.141 -1.9972  0.2560 -0.0819
 9436TIP3    H249800   0.946   2.296   3.025  1.9274  1.2354 -0.5049
 9437TIP3   OH249801   1.407   0.666  16.706 -0.2836 -0.1816 -0.1770
 9437TIP3    H149802   1.435   0.605  16.638 -1.2838 -0.3322 -0.4776
 9437TIP3    H249803   1.474   0.660  16.774  1.1153  0.4904 -1.4426
 9438TIP3   OH249804   4.429   3.985   0.483  0.3174  0.4013 -0.3790
 9438TIP3    H149805   4.439   3.899   0.441 -0.1643 -1.3211  2.7564
 9438TIP3    H249806   4.515   4.005   0.519  0.0775  0.5902  0.0909
 9439TIP3   OH249807   0.649   4.810   0.486 -0.1814 -0.0421  0.1517
 9439TIP3    H149808   0.573   4.839   0.536 -0.5103  0.0237 -0.3705
 9439TIP3    H249809   0.688   4.891   0.453 -0.6089 -0.1293 -0.6029
 9440TIP3   OH249810   6.667   5.755  15.865  0.2946  0.0576 -0.7484
 9440TIP3    H149811   6.740   5.761  15.927  1.4918  2.1730 -2.2217
 9440TIP3    H249812   6.642   5.663  15.867  1.6524 -0.3414  1.3126
 9441TIP3   OH249813   0.479   2.658  16.627  0.7643 -0.8347  0.6495
 9441TIP3    H149814   0.528   2.641  16.547 -0.3829  0.4867 -0.3810
 9441TIP3    H249815   0.458   2.751  16.623  1.1937 -0.5934  2.8118
 9442TIP3   OH249816   0.652   6.158  11.602 -0.7886 -0.5330 -0.0292
 9442TIP3    H149817   0.590   6.121  11.540 -0.9038 -0.5768  0.1109
 9442TIP3    H249818   0.602   6.227  11.647 -1.0075 -1.1634  0.7085
 9443TIP3   OH249819   1.389   2.324  15.761 -0.0681 -0.5796 -0.4866
 9443TIP3    H149820   1.441   2.298  15.837 -1.3383 -1.6752  0.0555
 9443TIP3    H249821   1.444   2.386  15.714  0.9780 -0.3162  1.0222
 9444TIP3   OH249822   4.725   3.794  17.009 -0.1680  0.3342 -0.2008
 9444TIP3    H149823   4.740   3.750  16.926  0.3974 -0.0007  0.0727
 9444TIP3    H249824   4.644   3.755  17.043  0.2214 -0.3559 -0.0552
 9445TIP3   OH249825   1.969   3.784   2.419 -0.0996  0.1265  0.0270
 9445TIP3    H149826   1.896   3.790   2.358 -0.6492  1.7134  0.8014
 9445TIP3    H249827   2.044   3.758   2.365  0.2588  4.7050 -2.1465
 9446TIP3   OH249828   3.503   4.297   3.026  0.3695  0.0316  0.3483
 9446TIP3    H149829   3.438   4.365   3.011  0.8063  0.7596  1.5859
 9446TIP3    H249830   3.570   4.339   3.080  1.2482 -1.0476  0.1300
 9447TIP3   OH249831   3.902   4.683  16.500 -0.2529  0.1072  0.1824
 9447TIP3    H149832   3.946   4.729  16.572 -2.4869 -0.6249  2.1493
 9447TIP3    H249833   3.916   4.738  16.424  0.9187  1.7287  1.4983
 9448TIP3   OH249834   3.977   2.646  16.553  0.1065  0.1730 -0.2763
 9448TIP3    H149835   4.027   2.669  16.475  1.0748 -2.1399 -0.4020
 9448TIP3    H249836   3.921   2.722  16.569  0.3443  0.9580 -2.8225
 9449TIP3   OH249837   2.411   4.759   2.308  1.0311  0.1546  0.0357
 9449TIP3    H149838   2.335   4.809   2.278 -0.2621 -2.0833 -0.7231
 9449TIP3    H249839   2.383   4.720   2.391  0.8151 -1.6176 -0.8053
 9450TIP3   OH249840   5.641   2.506   4.886 -0.2155  0.5752  0.0353
 9450TIP3    H149841   5.563   2.485   4.835 -0.3966 -0.7177  0.8104
 9450TIP3    H249842   5.608   2.530   4.972  0.1192  2.3667 -0.2936
 9451TIP3   OH249843   3.638   4.283  11.122 -0.6959  0.0974  0.0657
 9451TIP3    H149844   3.630   4.257  11.030 -0.8201 -0.5893  0.2640
 9451TIP3    H249845   3.625   4.377  11.122  0.7131  0.3233 -0.8109
 9452TIP3   OH249846   2.011   3.227   0.109  0.8317  0.3016  0.1864
 9452TIP3    H149847   2.051   3.207   0.194  1.7629 -3.0239 -0.8996
 9452TIP3    H249848   2.084   3.257   0.054  1.3972 -2.6908 -0.8684
 9453TIP3   OH249849   0.689   5.397  17.003 -0.1753 -0.3047  0.0992
 9453TIP3    H149850   0.670   5.462  16.936 -2.1031 -0.8574  0.0313
 9453TIP3    H249851   0.699   5.448  17.084  0.1259  0.1963 -0.2465
 9454TIP3   OH249852   1.942   2.263   1.517  0.2297 -0.0649 -0.0801
 9454TIP3    H149853   1.936   2.198   1.447  0.9658  0.1979 -0.3990
 9454TIP3    H249854   2.025   2.244   1.560 -0.4057 -0.4839  0.9982
 9455TIP3   OH249855   0.191   0.091   4.003 -0.2945  0.2979 -0.3472
 9455TIP3    H149856   0.229   0.171   3.966  0.9578 -1.0911 -2.2863
 9455TIP3    H249857   0.118   0.070   3.946  0.3256 -0.7376 -0.7814
 9456TIP3   OH249858   4.110   2.452   1.965  0.2756 -0.5507  0.0336
 9456TIP3    H149859   4.085   2.367   2.000 -2.7887  0.2276  0.0059
 9456TIP3    H249860   4.171   2.488   2.030 -0.9684 -1.4203  1.7692
 9457TIP3   OH249861   4.984   3.642  16.786 -0.1262 -0.1158  0.2511
 9457TIP3    H149862   5.036   3.723  16.780 -0.3551  0.2079  1.9222
 9457TIP3    H249863   4.893   3.672  16.777 -0.1009 -0.6354 -2.3133
 9458TIP3   OH249864   5.231   3.459   1.861  0.0134  0.1810  0.0492
 9458TIP3    H149865   5.275   3.392   1.913 -0.5580 -0.8260 -0.7221
 9458TIP3    H249866   5.301   3.510   1.821  0.5459 -1.5673 -1.3929
 9459TIP3   OH249867   1.157   4.959   5.469  0.3802  0.4641 -0.4938
 9459TIP3    H149868   1.070   4.927   5.489  0.9226 -2.0408 -1.7414
 9459TIP3    H249869   1.214   4.918   5.535  0.6785  1.9783  0.2411
 9460TIP3   OH249870   2.864   0.814   5.899 -0.3755  0.4410  0.3711
 9460TIP3    H149871   2.937   0.794   5.840 -0.1910  0.0032  0.7365
 9460TIP3    H249872   2.899   0.880   5.958 -0.4829  0.7034  0.1407
 9461TIP3   OH249873   0.349   4.885  13.106  0.4501 -0.3116  0.3436
 9461TIP3    H149874   0.406   4.835  13.164  1.1623  2.0556  1.8380
 9461TIP3    H249875   0.408   4.945  13.060 -0.6580  1.4369  1.1019
 9462TIP3   OH249876   1.644   6.588   4.061 -0.1806 -0.7062 -0.3520
 9462TIP3    H149877   1.573   6.596   3.997  0.3883  0.7208 -0.8438
 9462TIP3    H249878   1.686   6.674   4.062 -0.6609 -0.3992  2.5544
 9463TIP3   OH249879   6.357   0.031  11.041 -0.3105  0.1376 -0.2567
 9463TIP3    H149880   6.442   0.075  11.047 -1.1535  1.7585  0.2395
 9463TIP3    H249881   6.318   0.064  10.960 -0.6534 -0.2762 -0.2646
 9464TIP3   OH249882   1.999   5.003  15.141  0.3390  0.7497 -0.0990
 9464TIP3    H149883   2.022   5.077  15.196 -0.1974  0.3875  0.6308
 9464TIP3    H249884   1.943   4.948  15.197 -2.8641  1.8792 -1.9360
 9465TIP3   OH249885   5.054   4.449  13.124 -0.1481 -0.5444 -0.1438
 9465TIP3    H149886   5.133   4.467  13.174 -0.4229  1.4184 -0.3560
 9465TIP3    H249887   5.084   4.403  13.046  0.8337  0.4397 -0.3647
 9466TIP3   OH249888   6.287   1.429   2.560  0.8578 -0.0892  0.0390
 9466TIP3    H149889   6.232   1.484   2.505  0.3721  0.2781  0.8822
 9466TIP3    H249890   6.341   1.491   2.609  0.9655 -0.3954  0.3104
 9467TIP3   OH249891   1.828   5.193  16.267  0.0828 -0.4550  0.1590
 9467TIP3    H149892   1.748   5.237  16.296  0.9334  2.1443 -1.0421
 9467TIP3    H249893   1.813   5.175  16.174  1.1649  0.9149 -0.3213
 9468TIP3   OH249894   6.355   0.576  11.645 -0.3413  0.0471  0.3434
 9468TIP3    H149895   6.265   0.609  11.636 -0.4076  0.2404  1.5985
 9468TIP3    H249896   6.345   0.481  11.653 -0.3468 -0.0363 -0.5368
 9469TIP3   OH249897   4.248   5.194  11.952  0.0083  0.6777  0.3167
 9469TIP3    H149898   4.242   5.143  11.871  1.2536 -0.5831  0.9632
 9469TIP3    H249899   4.158   5.202  11.982 -0.2861 -0.7387 -0.0961
 9470TIP3   OH249900   1.779   5.132   1.920  0.1826 -0.2403 -0.4640
 9470TIP3    H149901   1.821   5.148   1.835  0.9341  1.3581  0.1701
 9470TIP3    H249902   1.698   5.086   1.898 -0.0698  0.8989 -2.1202
 9471TIP3   OH249903   6.003   5.606  13.094  0.9952  0.1621  0.2925
 9471TIP3    H149904   6.049   5.629  13.175  1.4867  0.0064  0.0615
 9471TIP3    H249905   6.053   5.533  13.058  2.2047  1.7213 -1.3585
 9472TIP3   OH249906   6.728   3.985   2.728  0.0231  0.2285 -0.0116
 9472TIP3    H149907   6.675   4.040   2.787  1.8783  1.7911  0.3126
 9472TIP3    H249908   6.674   3.976   2.649 -0.6937  1.8737  0.2370
 9473TIP3   OH249909   3.817   1.984  13.974  0.1748 -0.9313  0.1785
 9473TIP3    H149910   3.910   1.997  13.994  0.5040 -2.1881 -0.4722
 9473TIP3    H249911   3.798   1.895  14.002 -0.8283 -0.7084  0.2482
 9474TIP3   OH249912   0.153   0.411   3.662  0.0413 -0.2332  0.0036
 9474TIP3    H149913   0.189   0.500   3.652 -1.5460  0.3879 -0.5737
 9474TIP3    H249914   0.097   0.417   3.739 -2.1764  0.0636 -1.5378
 9475TIP3   OH249915   3.304   6.052   0.969 -0.6617  0.2320 -0.1495
 9475TIP3    H149916   3.362   6.004   1.028  0.1916  2.4777  0.9809
 9475TIP3    H249917   3.218   6.010   0.979  0.1558 -1.3937  0.2760
 9476TIP3   OH249918   6.416   2.740  17.064 -0.5499  0.5210 -0.5054
 9476TIP3    H149919   6.378   2.806  17.006 -2.7800 -0.0559  0.1953
 9476TIP3    H249920   6.372   2.754  17.148  2.0575  0.8586  0.9106
 9477TIP3   OH249921   6.158   4.146  11.911  0.0205  0.0974  0.0068
 9477TIP3    H149922   6.168   4.056  11.940  1.1848  0.9892  2.7023
 9477TIP3    H249923   6.104   4.188  11.979  0.2646  1.6293 -0.6880
 9478TIP3   OH249924   5.820   0.298  15.663 -0.1398 -0.6234 -0.0100
 9478TIP3    H149925   5.897   0.243  15.645  0.7116  0.2064  0.9264
 9478TIP3    H249926   5.751   0.261  15.610  1.1070 -0.9499 -1.4808
 9479TIP3   OH249927   4.185   1.372   3.195 -0.5996 -0.1359 -0.0819
 9479TIP3    H149928   4.265   1.323   3.215 -0.2890  0.0497 -0.8303
 9479TIP3    H249929   4.171   1.428   3.271  0.5645  0.5704 -0.3519
 9480TIP3   OH249930   1.910   1.436   1.063 -0.3778  0.0517  0.5970
 9480TIP3    H149931   1.989   1.451   1.116  0.2183 -1.1718  0.0752
 9480TIP3    H249932   1.941   1.389   0.986 -1.6862 -0.8885  0.6122
 9481TIP3   OH249933   2.839   0.194  10.470 -0.3080 -0.4178 -0.8710
 9481TIP3    H149934   2.917   0.223  10.423 -0.1163 -0.1952 -0.4198
 9481TIP3    H249935   2.815   0.268  10.525  0.4377 -1.2525  0.6311
 9482TIP3   OH249936   4.199   4.948   0.541 -0.8916 -0.0002  0.1097
 9482TIP3    H149937   4.150   4.952   0.459  0.3459  0.6350 -0.6262
 9482TIP3    H249938   4.267   5.014   0.532 -0.4994 -0.1738  1.5091
 9483TIP3   OH249939   0.636   5.973  12.275  0.3756 -0.2666  0.2905
 9483TIP3    H149940   0.556   5.933  12.239  1.0539 -1.3968 -0.0008
 9483TIP3    H249941   0.694   5.981  12.199  2.2882 -3.7717  1.1873
 9484TIP3   OH249942   4.963   4.584   5.972  0.0691  0.5806  0.3277
 9484TIP3    H149943   5.008   4.539   5.900 -0.8630  1.4407 -0.8239
 9484TIP3    H249944   4.960   4.519   6.042  0.1126 -0.6373 -0.7608
 9485TIP3   OH249945   4.142   5.795  12.995 -0.3552 -0.3101  1.2255
 9485TIP3    H149946   4.050   5.770  12.991  0.0579 -1.8054  0.1191
 9485TIP3    H249947   4.143   5.889  12.974 -1.4405 -0.7829 -1.3665
 9486TIP3   OH249948   1.374   2.831   3.458 -0.0550  0.2205 -0.1253
 9486TIP3    H149949   1.378   2.740   3.488 -0.2325  0.7009  1.4644
 9486TIP3    H249950   1.411   2.829   3.370  0.9649 -1.2193  0.2966
 9487TIP3   OH249951   2.294   5.948  16.498 -0.5103 -0.1131  0.1169
 9487TIP3    H149952   2.309   5.890  16.423 -0.6711  1.1718 -0.9417
 9487TIP3    H249953   2.219   5.909  16.543 -1.6691  0.1436 -1.5079
 9488TIP3   OH249954   3.439   0.345   1.104  0.3011 -0.0330  0.6328
 9488TIP3    H149955   3.458   0.260   1.145 -1.3245 -0.5055  0.4940
 9488TIP3    H249956   3.388   0.323   1.026 -0.0951  1.0752  0.5592
 9489TIP3   OH249957   1.436   0.816  16.081 -0.2617 -0.8790 -0.9612
 9489TIP3    H149958   1.465   0.741  16.133  1.0193  0.3704  0.2126
 9489TIP3    H249959   1.342   0.824  16.101  0.2547 -0.2015  1.5804
 9490TIP3   OH249960   0.094   0.885  15.822  0.1256  0.4992  0.0500
 9490TIP3    H149961   0.091   0.969  15.776 -0.1929  1.1998  1.3221
 9490TIP3    H249962   0.182   0.880  15.859  0.2561  0.1025 -0.2930
 9491TIP3   OH249963   3.820   2.221  17.107 -0.4970  0.0176 -0.5132
 9491TIP3    H149964   3.763   2.172  17.047  0.3854  1.2696 -2.4837
 9491TIP3    H249965   3.779   2.211  17.193 -1.6607 -2.1226 -1.2320
 9492TIP3   OH249966   6.793   2.042   5.698 -0.5769 -0.5868 -0.8109
 9492TIP3    H149967   6.816   2.133   5.679 -0.8065 -0.0800  1.0680
 9492TIP3    H249968   6.807   1.996   5.616  2.6283  0.5642 -1.0615
 9493TIP3   OH249969   0.680   3.072   4.870 -0.3331  0.1224 -0.5414
 9493TIP3    H149970   0.609   3.119   4.827  1.2257  2.2122 -0.9697
 9493TIP3    H249971   0.660   3.080   4.964 -2.3463 -2.2096 -0.6607
 9494TIP3   OH249972   5.183   3.520  14.387  0.1349 -0.4983 -0.1939
 9494TIP3    H149973   5.087   3.528  14.392  0.0247 -1.5634 -0.4037
 9494TIP3    H249974   5.212   3.608  14.361 -0.6827  0.1621  0.9814
 9495TIP3   OH249975   6.056   4.795  14.789  0.5917  0.2316 -0.2233
 9495TIP3    H149976   6.093   4.802  14.877 -0.0231 -0.3126  0.0897
 9495TIP3    H249977   6.044   4.886  14.761 -0.4714  0.4406  0.8054
 9496TIP3   OH249978   0.238   1.523  14.199 -0.1694 -0.3588 -0.4783
 9496TIP3    H149979   0.250   1.594  14.262  0.5402 -0.5270 -0.4132
 9496TIP3    H249980   0.157   1.480  14.228  0.6038 -0.9733  0.8654
 9497TIP3   OH249981   3.991   2.240   2.093 -0.6689  0.2709  0.0671
 9497TIP3    H149982   3.916   2.218   2.148 -1.3400 -0.9427 -1.2646
 9497TIP3    H249983   4.048   2.163   2.099 -0.2109  0.5973 -0.0392
 9498TIP3   OH249984   5.566   6.094  16.141 -0.4036 -0.6744  0.3752
 9498TIP3    H149985   5.502   6.099  16.212  1.1391 -2.6693  2.0329
 9498TIP3    H249986   5.568   6.001  16.117  2.0529 -0.7598  0.6403
 9499TIP3   OH249987   4.415   0.273   4.519  0.3228 -0.9034 -0.3645
 9499TIP3    H149988   4.495   0.267   4.467  0.9336 -1.4877  0.5945
 9499TIP3    H249989   4.430   0.348   4.577  0.0495 -0.8232 -0.3964
 9500TIP3   OH249990   1.889   0.240  14.909 -0.0358  0.0897 -0.6508
 9500TIP3    H149991   1.839   0.161  14.929 -0.9983 -0.0489 -3.2516
 9500TIP3    H249992   1.823   0.305  14.884  0.6829  1.9903  1.9789
 9501TIP3   OH249993   1.595   6.494   5.078 -0.1118 -0.3483  0.1574
 9501TIP3    H149994   1.617   6.549   5.153  1.0990 -0.0294 -0.4022
 9501TIP3    H249995   1.680   6.461   5.046 -0.6576 -1.0141 -0.6558
 9502TIP3   OH249996   0.235   1.647  15.397 -0.1546  0.1100 -0.2236
 9502TIP3    H149997   0.195   1.695  15.325 -0.4721  2.3498  1.3111
 9502TIP3    H249998   0.329   1.657  15.383 -0.1579 -1.3603 -1.4620
 9503TIP3   OH249999   4.351   0.377   1.090  0.1785  0.0332 -0.2513
 9503TIP3    H150000   4.266   0.366   1.048 -0.1507 -1.5434  0.7518
 9503TIP3    H250001   4.393   0.291   1.085  0.1134 -0.2640  2.5550
 9504TIP3   OH250002   6.135   3.515  16.911 -0.0746 -0.3456 -0.7210
 9504TIP3    H150003   6.185   3.459  16.851  0.9463  1.3344 -1.5176
 9504TIP3    H250004   6.054   3.533  16.864 -0.8787 -1.9366 -0.0233
 9505TIP3   OH250005   0.407   1.239  16.533  0.1861 -0.0610 -0.3983
 9505TIP3    H150006   0.354   1.237  16.613 -1.4700  1.4593 -1.3761
 9505TIP3    H250007   0.396   1.151  16.495  0.9261 -0.7675  0.9596
 9506TIP3   OH250008   5.322   1.345   2.844 -0.4563 -0.6487 -0.1078
 9506TIP3    H150009   5.332   1.440   2.846 -1.1223 -0.5288 -1.3620
 9506TIP3    H250010   5.406   1.312   2.814 -1.0420 -0.2188 -2.4844
 9507TIP3   OH250011   0.812   0.553  17.113  0.1574 -0.0456 -0.1885
 9507TIP3    H150012   0.760   0.497  17.170 -1.5931  1.4730 -0.1816
 9507TIP3    H250013   0.895   0.507  17.102 -1.2673 -2.7253 -0.4138
 9508TIP3   OH250014   1.306   1.877  15.772 -0.1936 -0.3063 -0.3550
 9508TIP3    H150015   1.293   1.796  15.723 -1.9095  0.3262 -1.0072
 9508TIP3    H250016   1.329   1.942  15.705  1.1165 -0.2139  0.1541
 9509TIP3   OH250017   1.793   4.650   1.504 -0.1335 -0.2775 -0.2986
 9509TIP3    H150018   1.816   4.717   1.440 -0.6819 -1.7822 -2.1531
 9509TIP3    H250019   1.778   4.571   1.452  0.8084 -1.9593  1.8129
 9510TIP3   OH250020   2.083   0.727   2.138 -0.4278  0.1237 -0.1879
 9510TIP3    H150021   2.094   0.791   2.207  0.7282  0.3664 -0.5751
 9510TIP3    H250022   2.134   0.761   2.064  0.8381 -1.5609 -0.1695
 9511TIP3   OH250023   5.066   6.337   0.504  0.2691  0.2770 -0.3695
 9511TIP3    H150024   5.147   6.317   0.551 -0.5137 -0.2466  0.8099
 9511TIP3    H250025   5.072   6.288   0.422  0.2620 -1.3937  0.6029
 9512TIP3   OH250026   2.524   1.894  16.968  0.3384  0.2598  0.3419
 9512TIP3    H150027   2.533   1.950  17.045 -0.7948  0.1976  0.5257
 9512TIP3    H250028   2.506   1.953  16.896 -0.0077  0.2037  0.3819
 9513TIP3   OH250029   6.053   4.058  12.687 -0.7173  0.0181  0.2777
 9513TIP3    H150030   6.115   4.056  12.614  0.3339 -2.7062  1.1308
 9513TIP3    H250031   6.041   3.967  12.711 -3.1988  0.6333  1.7772
 9514TIP3   OH250032   6.363   1.966   4.141  0.2219  0.0271  0.3852
 9514TIP3    H150033   6.431   2.031   4.158 -0.2205  1.0143 -1.3763
 9514TIP3    H250034   6.359   1.960   4.046 -0.5021 -1.8191  0.4914
 9515TIP3   OH250035   3.416   3.901   4.638  0.1187  0.3399  0.2125
 9515TIP3    H150036   3.364   3.869   4.565  0.9330  1.1814 -0.7718
 9515TIP3    H250037   3.368   3.875   4.716 -0.8786 -0.3899 -0.6299
 9516TIP3   OH250038   5.454   0.788  14.210 -0.4621 -0.4218  0.1622
 9516TIP3    H150039   5.359   0.781  14.213 -0.8125  2.7493  3.1715
 9516TIP3    H250040   5.472   0.840  14.132 -1.4442  0.5853  0.5799
 9517TIP3   OH250041   4.809   4.238  14.672  0.0006 -0.2465  0.5698
 9517TIP3    H150042   4.799   4.333  14.686  1.4807 -0.1316  0.9761
 9517TIP3    H250043   4.800   4.200  14.759  0.9803 -0.3164  0.6509
 9518TIP3   OH250044   5.641   1.869  10.573  0.3328 -0.2163 -0.4923
 9518TIP3    H150045   5.696   1.944  10.596  0.5281 -0.9025  1.3969
 9518TIP3    H250046   5.688   1.828  10.500  0.4407  1.2209 -1.2771
 9519TIP3   OH250047   6.835   0.776   0.634 -0.2426 -0.0428 -0.2933
 9519TIP3    H150048   6.860   0.688   0.603  0.0310  0.0170 -0.2422
 9519TIP3    H250049   6.786   0.813   0.561 -2.2899 -1.0621  0.4781
 9520TIP3   OH250050   5.737   2.585   0.901  0.4816  0.5924 -0.1019
 9520TIP3    H150051   5.666   2.539   0.946  0.8824 -0.6665 -0.6948
 9520TIP3    H250052   5.725   2.677   0.924 -0.6782  0.2628  0.6967
 9521TIP3   OH250053   4.292   4.484   2.234 -0.2977  0.1373  0.5011
 9521TIP3    H150054   4.379   4.459   2.203 -0.8010 -0.4795 -0.4646
 9521TIP3    H250055   4.245   4.511   2.154 -1.2860 -0.4414  0.8648
 9522TIP3   OH250056   4.780   5.988   0.488  0.0098 -0.1381 -0.3259
 9522TIP3    H150057   4.765   5.912   0.431 -3.5986 -0.0354  0.2708
 9522TIP3    H250058   4.715   5.979   0.557  2.4278  1.2316  2.3237
 9523TIP3   OH250059   5.249   2.485   2.388  0.0934 -0.0870  0.1512
 9523TIP3    H150060   5.236   2.538   2.309  0.3923 -1.8460 -1.1519
 9523TIP3    H250061   5.168   2.495   2.437  0.4072  2.1112  0.3465
 9524TIP3   OH250062   5.842   4.925   1.832 -0.4734 -0.2965 -0.5398
 9524TIP3    H150063   5.893   4.912   1.752 -1.2015 -1.0260 -0.9040
 9524TIP3    H250064   5.892   4.880   1.899 -0.7055 -1.1404 -0.9226
 9525TIP3   OH250065   3.129   3.419  16.979  0.2578 -0.1525  1.1274
 9525TIP3    H150066   3.100   3.378  17.061  1.3032  0.1382  1.6519
 9525TIP3    H250067   3.065   3.488  16.963  1.1592  1.1274  2.7912
 9526TIP3   OH250068   1.032   5.086   2.818  0.4052 -0.2339  0.1971
 9526TIP3    H150069   1.032   5.044   2.732  2.5087  1.1754 -0.5768
 9526TIP3    H250070   1.054   5.017   2.879  2.1580 -0.6415 -0.8363
 9527TIP3   OH250071   1.716   2.071   4.074  0.1934  0.1326  0.0012
 9527TIP3    H150072   1.698   1.986   4.114  1.1337  0.7804  1.9122
 9527TIP3    H250073   1.788   2.055   4.013  1.3829 -0.2096  1.4455
 9528TIP3   OH250074   0.488   6.276  12.324 -0.1478 -0.2218 -0.3853
 9528TIP3    H150075   0.466   6.187  12.352  1.1028 -1.1362 -2.1385
 9528TIP3    H250076   0.544   6.264  12.247  1.5259  2.0635  0.3748
 9529TIP3   OH250077   3.602   0.549   0.697  0.5383 -0.3876  0.1002
 9529TIP3    H150078   3.535   0.482   0.711  1.3295 -0.8661  1.7665
 9529TIP3    H250079   3.631   0.536   0.606  0.5608 -2.1794  0.3403
 9530TIP3   OH250080   1.633   0.862   2.379 -0.3120  0.1293 -0.2099
 9530TIP3    H150081   1.716   0.817   2.362 -1.8888 -3.2828  0.4535
 9530TIP3    H250082   1.631   0.933   2.314  2.7313 -0.1364 -0.7421
 9531TIP3   OH250083   2.205   5.487   6.187 -0.1214  0.4637  0.2660
 9531TIP3    H150084   2.152   5.505   6.264 -0.9210  0.0012 -0.1708
 9531TIP3    H250085   2.248   5.404   6.206  0.0804  0.6003  0.4176
 9532TIP3   OH250086   1.988   4.465   2.049  0.1504 -0.0321 -0.1324
 9532TIP3    H150087   1.992   4.544   1.995  0.4740 -0.2421 -0.4167
 9532TIP3    H250088   2.010   4.495   2.138 -1.6458  0.5510  0.1577
 9533TIP3   OH250089   4.426   5.035  15.984 -0.2646 -0.4830 -0.1588
 9533TIP3    H150090   4.332   5.024  16.000 -0.1260 -0.8115  0.4411
 9533TIP3    H250091   4.465   4.956  16.020  0.2296 -0.4200 -0.5548
 9534TIP3   OH250092   2.858   4.327   2.398 -0.7133 -0.4076 -0.1956
 9534TIP3    H150093   2.924   4.296   2.461 -0.6454 -0.0912 -0.1071
 9534TIP3    H250094   2.775   4.320   2.446 -0.4004  2.2929  0.9154
 9535TIP3   OH250095   4.941   4.214  13.251  0.4178  0.3950 -0.6285
 9535TIP3    H150096   5.000   4.283  13.223  0.4306  0.2085 -1.0573
 9535TIP3    H250097   4.910   4.173  13.170 -0.7300  0.8535 -0.4450
 9536TIP3   OH250098   3.345   2.317   0.088 -0.2224  0.3275  0.4057
 9536TIP3    H150099   3.297   2.239   0.115 -0.5252  0.3766  0.0186
 9536TIP3    H250100   3.328   2.325  -0.006  1.1716 -0.0861  0.0920
 9537TIP3   OH250101   2.518   1.870   3.546 -0.0858  0.2741 -0.6901
 9537TIP3    H150102   2.443   1.838   3.496 -0.2133  1.5444 -1.3581
 9537TIP3    H250103   2.571   1.792   3.563 -1.1629 -0.5169 -0.8903
 9538TIP3   OH250104   6.201   1.756   0.879 -0.3435  0.5040  0.5161
 9538TIP3    H150105   6.271   1.692   0.863 -0.4618  0.0032  1.8851
 9538TIP3    H250106   6.132   1.732   0.816 -0.6653 -1.1741  1.4539
 9539TIP3   OH250107   4.443   5.802  15.907  0.0369 -0.1114 -0.2022
 9539TIP3    H150108   4.428   5.781  15.815 -0.0829  1.0346 -0.4601
 9539TIP3    H250109   4.532   5.772  15.925 -0.4037 -1.5422 -0.3134
 9540TIP3   OH250110   3.678   6.436   5.584 -0.5338  0.6166 -0.4638
 9540TIP3    H150111   3.612   6.481   5.532 -0.0841 -0.2516 -1.8654
 9540TIP3    H250112   3.762   6.470   5.553 -0.2586  0.2613 -0.1384
 9541TIP3   OH250113   3.067   0.727   2.467 -0.0115  0.1586 -0.5080
 9541TIP3    H150114   3.075   0.692   2.378 -0.8709  0.9495 -0.9135
 9541TIP3    H250115   3.048   0.820   2.454  0.4008  0.3944  0.5177
 9542TIP3   OH250116   2.610   0.357  14.343 -0.0971  0.0024 -0.0767
 9542TIP3    H150117   2.522   0.323  14.328  0.2875 -1.1780  0.2634
 9542TIP3    H250118   2.602   0.413  14.420 -0.6673  0.4429 -0.4428
 9543TIP3   OH250119   1.628   0.403  12.426  0.4355 -0.2018 -0.5859
 9543TIP3    H150120   1.663   0.354  12.352  0.1917 -1.4729  0.1098
 9543TIP3    H250121   1.545   0.360  12.448 -0.8791  1.8378 -1.2599
 9544TIP3   OH250122   2.438   2.611  14.961 -0.5033 -0.2226  0.1173
 9544TIP3    H150123   2.461   2.586  14.872  2.4352 -0.9980  0.9754
 9544TIP3    H250124   2.356   2.565  14.978 -0.6205 -0.8553 -1.8507
 9545TIP3   OH250125   3.163   2.167  12.518 -0.0878 -0.4105 -0.0297
 9545TIP3    H150126   3.204   2.189  12.602  2.1285 -1.1470 -0.8260
 9545TIP3    H250127   3.122   2.248  12.489 -0.3566  0.0186  1.4545
 9546TIP3   OH250128   1.370   1.434   2.063 -0.0451 -0.2088 -0.1066
 9546TIP3    H150129   1.419   1.384   1.997 -0.4797 -2.0209  0.8736
 9546TIP3    H250130   1.294   1.467   2.016  0.6797  0.2605 -0.9835
 9547TIP3   OH250131   3.947   1.805   5.446  0.3477  0.5042  0.0786
 9547TIP3    H150132   3.940   1.723   5.397 -1.6959  0.8734 -0.3241
 9547TIP3    H250133   3.949   1.777   5.538  3.9386 -0.1701 -0.0491
 9548TIP3   OH250134   5.471   0.026  12.931 -0.3606 -0.2660  0.2797
 9548TIP3    H150135   5.563   0.025  12.906 -0.0706  1.4654  1.0806
 9548TIP3    H250136   5.448   0.119  12.934 -1.9178 -0.6254  0.8549
 9549TIP3   OH250137   6.038   2.267   3.704  0.5078 -0.2773  0.5886
 9549TIP3    H150138   5.946   2.254   3.678  0.6308 -0.4570  0.2493
 9549TIP3    H250139   6.059   2.191   3.757  0.2745  0.0622  1.1883
 9550TIP3   OH250140   5.121   1.600  14.669  0.2181  0.1036 -0.0945
 9550TIP3    H150141   5.030   1.570  14.661  0.1281  0.4318 -0.2968
 9550TIP3    H250142   5.126   1.636  14.758 -0.3706  1.8075 -0.7136
 9551TIP3   OH250143   4.450   5.719  13.681  0.4226  0.3467  0.0513
 9551TIP3    H150144   4.423   5.665  13.606 -0.9248 -0.2254  0.9004
 9551TIP3    H250145   4.419   5.807  13.659  1.7659  0.6015 -0.9097
 9552TIP3   OH250146   3.532   6.067  14.963  0.1603  0.4538  0.2296
 9552TIP3    H150147   3.620   6.073  14.928  0.6837  0.5847  1.5024
 9552TIP3    H250148   3.475   6.070  14.886  1.2062  1.5767 -0.5403
 9553TIP3   OH250149   0.220   0.886   0.768  0.0398  0.1166 -0.3243
 9553TIP3    H150150   0.310   0.856   0.760  0.0019  0.1622 -0.9193
 9553TIP3    H250151   0.176   0.855   0.689 -0.5025 -0.0290  0.0256
 9554TIP3   OH250152   4.658   1.630  12.705  0.3017  0.1457  0.4739
 9554TIP3    H150153   4.689   1.721  12.707 -0.5906  0.4639  0.3673
 9554TIP3    H250154   4.575   1.632  12.753  0.2564 -0.6149  0.4452
 9555TIP3   OH250155   3.368   0.407  11.154 -0.2315 -0.2184 -0.3262
 9555TIP3    H150156   3.362   0.502  11.153 -3.4741 -0.2957  0.5958
 9555TIP3    H250157   3.445   0.388  11.207 -0.4741  1.8976  0.8665
 9556TIP3   OH250158   0.083   4.161  15.048 -0.2046 -0.6272  0.2939
 9556TIP3    H150159   0.084   4.160  14.953  0.6649 -1.0546  0.2963
 9556TIP3    H250160   0.170   4.193  15.073 -0.6236  0.0387  0.9436
 9557TIP3   OH250161   4.241   4.430  12.462 -0.1470  0.3902 -0.5642
 9557TIP3    H150162   4.210   4.350  12.504 -1.3378  1.2498  0.2620
 9557TIP3    H250163   4.336   4.418  12.453 -0.4210 -1.5350 -1.4257
 9558TIP3   OH250164   6.529   3.770   0.451  0.0357 -0.2592  0.1241
 9558TIP3    H150165   6.550   3.849   0.500  1.0411  0.6452 -1.6435
 9558TIP3    H250166   6.540   3.796   0.359  0.4544 -2.4650 -0.5057
 9559TIP3   OH250167   5.729   1.321   0.138 -0.6334 -0.0897  0.0168
 9559TIP3    H150168   5.692   1.335   0.225 -0.3085  0.6978  0.0347
 9559TIP3    H250169   5.821   1.301   0.154 -1.0256 -2.1422 -0.0199
 9560TIP3   OH250170   1.682   1.346  11.499  0.2693  0.9012  0.3366
 9560TIP3    H150171   1.761   1.396  11.482 -0.1978  1.1584 -1.2333
 9560TIP3    H250172   1.628   1.357  11.420 -1.0058  0.1208  1.0485
 9561TIP3   OH250173   1.264   4.454  16.739  0.8529  0.6691 -0.0285
 9561TIP3    H150174   1.230   4.369  16.764 -2.6153  1.7994 -0.4521
 9561TIP3    H250175   1.317   4.437  16.661  0.1501 -1.0820 -0.1665
 9562TIP3   OH250176   6.677   0.605   0.295  0.0466  0.4652 -0.3304
 9562TIP3    H150177   6.712   0.533   0.243 -1.0135  0.4794 -1.0890
 9562TIP3    H250178   6.700   0.582   0.386 -0.2394 -0.8101 -0.5645
 9563TIP3   OH250179   3.509   2.198  13.136  0.4642 -0.4787  0.2545
 9563TIP3    H150180   3.510   2.215  13.041  1.0565  1.6480  0.5845
 9563TIP3    H250181   3.549   2.112  13.145  0.9400 -0.4769 -1.4001
 9564TIP3   OH250182   6.758   6.237   2.068 -0.0054 -0.5985 -0.3414
 9564TIP3    H150183   6.688   6.189   2.113 -0.5199 -0.1194 -0.6212
 9564TIP3    H250184   6.820   6.258   2.137 -0.8115  0.1720  0.1777
 9565TIP3   OH250185   5.511   2.732   5.439  0.0222 -0.1197  0.8854
 9565TIP3    H150186   5.475   2.647   5.412  1.0829 -0.1648 -0.4546
 9565TIP3    H250187   5.533   2.775   5.357 -1.4478  1.9107  1.4842
 9566TIP3   OH250188   5.894   1.760   2.665 -0.1395  0.0793 -0.2247
 9566TIP3    H150189   5.826   1.781   2.729  0.6483  0.0873  0.6268
 9566TIP3    H250190   5.891   1.832   2.603 -0.7348  0.2153 -0.0510
 9567TIP3   OH250191   1.436   4.277   5.836  0.1938 -0.3889 -0.2311
 9567TIP3    H150192   1.470   4.188   5.827  1.9340  0.0690  1.2914
 9567TIP3    H250193   1.493   4.330   5.782  0.4768  0.0760  0.5124
 9568TIP3   OH250194   2.529   4.857  16.169  0.3663  0.3000 -0.1505
 9568TIP3    H150195   2.575   4.803  16.234  2.8003  0.9608 -1.2128
 9568TIP3    H250196   2.537   4.808  16.088  1.0222  1.3744 -0.7602
 9569TIP3   OH250197   4.576   6.776  14.493  0.0173  0.5492 -0.2453
 9569TIP3    H150198   4.498   6.803  14.542  0.8988  2.3688  0.2420
 9569TIP3    H250199   4.574   6.831  14.414  0.0903 -0.3896 -0.9199
 9570TIP3   OH250200   3.623   1.844  13.210  0.1625 -0.2243 -0.4275
 9570TIP3    H150201   3.632   1.860  13.304 -0.3726 -0.6010 -0.3045
 9570TIP3    H250202   3.670   1.917  13.169  2.9002 -1.5482  0.1189
 9571TIP3   OH250203   1.419   4.394   0.660  0.0099  0.1452 -0.1602
 9571TIP3    H150204   1.338   4.436   0.688 -0.1141  0.9998 -1.6651
 9571TIP3    H250205   1.488   4.453   0.690 -0.0212  0.1608 -0.1185
 9572TIP3   OH250206   6.560   4.078   0.386  0.4841 -0.0302  0.0028
 9572TIP3    H150207   6.473   4.056   0.353 -0.4889  1.0946  1.6864
 9572TIP3    H250208   6.614   4.083   0.307  0.0637 -4.6710 -0.8924
 9573TIP3   OH250209   6.093   6.408   0.187  0.6853  0.1474  0.7078
 9573TIP3    H150210   6.086   6.495   0.226 -1.0345  1.9445 -3.0355
 9573TIP3    H250211   6.003   6.377   0.179  1.1087 -1.0243  0.0879
 9574TIP3   OH250212   1.932   5.181  12.933  0.0110 -0.0392 -0.0954
 9574TIP3    H150213   1.973   5.267  12.931 -1.4834  0.7368  0.6240
 9574TIP3    H250214   1.878   5.178  12.855  0.3291 -0.4734 -0.3012
 9575TIP3   OH250215   5.456   6.012   4.831 -0.3489  0.2975  0.0776
 9575TIP3    H150216   5.444   5.969   4.746 -1.3321 -0.3913  0.5504
 9575TIP3    H250217   5.497   5.945   4.886 -2.1145 -0.1616  0.8912
 9576TIP3   OH250218   6.167   4.859  10.804  0.8803 -0.0180  0.1466
 9576TIP3    H150219   6.240   4.797  10.790  1.3350  0.5910 -0.2276
 9576TIP3    H250220   6.090   4.803  10.813  1.1073 -0.6199 -1.3019
 9577TIP3   OH250221   0.387   3.448   0.983 -0.1506  0.0192  0.3224
 9577TIP3    H150222   0.455   3.507   0.952  0.0994  0.2489  1.2688
 9577TIP3    H250223   0.339   3.499   1.049  0.3048 -0.9259  1.4358
 9578TIP3   OH250224   4.250   4.370   5.654 -0.0122  0.6996  0.4059
 9578TIP3    H150225   4.295   4.455   5.664  1.2174  0.1921 -0.5411
 9578TIP3    H250226   4.216   4.372   5.564  0.5810 -0.0623  0.1620
 9579TIP3   OH250227   0.744   3.087  17.164 -0.0958  0.1805  0.4420
 9579TIP3    H150228   0.831   3.077  17.202  0.4275 -1.2962 -1.0454
 9579TIP3    H250229   0.703   3.001  17.174 -1.2914  0.7724  0.8500
 9580TIP3   OH250230   1.202   6.030   3.168 -0.1703  0.7239  0.8320
 9580TIP3    H150231   1.254   6.109   3.186  0.2957  0.9100 -1.1797
 9580TIP3    H250232   1.113   6.055   3.192  0.2037  1.3372  1.6557
 9581TIP3   OH250233   0.155   0.489   4.371  0.5135 -0.1256 -0.2900
 9581TIP3    H150234   0.176   0.423   4.304  0.6627 -1.2565  0.8321
 9581TIP3    H250235   0.133   0.438   4.449 -0.6385  1.1481  0.2555
 9582TIP3   OH250236   3.328   6.728  11.081  0.2125 -0.5142 -0.4870
 9582TIP3    H150237   3.378   6.665  11.133 -1.5218 -0.9514  0.7493
 9582TIP3    H250238   3.318   6.687  10.996 -0.4589 -1.7082  0.1461
 9583TIP3   OH250239   0.532   6.284   2.964  0.0968  0.3546  0.5671
 9583TIP3    H150240   0.591   6.232   2.910 -0.9262 -0.0085 -0.2300
 9583TIP3    H250241   0.536   6.243   3.051  0.0954 -0.4099  0.2118
 9584TIP3   OH250242   5.142   0.759  14.237  0.2277 -0.3261  0.0914
 9584TIP3    H150243   5.140   0.756  14.333  1.1285 -1.9648  0.0975
 9584TIP3    H250244   5.051   0.742  14.211 -0.3430  1.7072  0.6405
 9585TIP3   OH250245   2.635   3.331   2.515  0.0155 -0.2297  0.4134
 9585TIP3    H150246   2.555   3.296   2.556  1.2180 -3.2138  0.4869
 9585TIP3    H250247   2.668   3.396   2.576 -1.8728  0.4363  0.7851
 9586TIP3   OH250248   2.747   3.233  13.297  0.4496 -0.3039 -0.0141
 9586TIP3    H150249   2.817   3.281  13.341  0.6146 -0.5948  0.0435
 9586TIP3    H250250   2.694   3.198  13.368  0.4632 -0.4043 -0.0539
 9587TIP3   OH250251   1.646   1.397  14.921 -0.0180 -0.9546  0.1944
 9587TIP3    H150252   1.739   1.374  14.926  0.0508 -0.9976 -0.9422
 9587TIP3    H250253   1.636   1.436  14.834 -0.9437 -0.3805  0.5467
 9588TIP3   OH250254   5.542   6.589   4.525 -0.3914 -0.1466  0.1146
 9588TIP3    H150255   5.585   6.656   4.578 -0.2432 -0.0832 -0.0868
 9588TIP3    H250256   5.610   6.526   4.505 -0.6763 -0.7143  0.8639
 9589TIP3   OH250257   4.548   2.784  14.440  0.1177 -0.1375 -0.1683
 9589TIP3    H150258   4.624   2.805  14.385  0.6465 -1.9509 -0.1748
 9589TIP3    H250259   4.564   2.696  14.472  0.2871  1.0870  3.6929
 9590TIP3   OH250260   0.332   2.690   5.558  0.0571 -0.3439 -0.5895
 9590TIP3    H150261   0.352   2.773   5.516  0.8769 -0.1671  0.1447
 9590TIP3    H250262   0.391   2.685   5.633 -1.2121 -0.7674  0.4210
 9591TIP3   OH250263   0.192   0.820   4.524 -0.3241  0.6042 -0.5875
 9591TIP3    H150264   0.213   0.911   4.543  2.3700  0.2416 -1.2931
 9591TIP3    H250265   0.106   0.806   4.563 -1.6230  3.8701 -1.8932
 9592TIP3   OH250266   0.177   6.279  16.131  0.1045 -0.1990  0.1381
 9592TIP3    H150267   0.243   6.300  16.065  0.3522 -0.5953  0.2592
 9592TIP3    H250268   0.180   6.353  16.192 -1.3643  1.0505 -1.2300
 9593TIP3   OH250269   1.986   0.514  17.021 -0.0012  0.4939 -0.4924
 9593TIP3    H150270   1.898   0.477  17.016  0.8993 -1.9677  0.5324
 9593TIP3    H250271   2.031   0.478  16.945  0.9459 -0.7600  0.6161
 9594TIP3   OH250272   6.039   4.261   5.476  0.3186 -0.8711 -0.0365
 9594TIP3    H150273   5.944   4.268   5.490  0.0998 -1.4454 -1.0850
 9594TIP3    H250274   6.060   4.171   5.501  0.3096 -1.2059 -1.1819
 9595TIP3   OH250275   1.209   0.411  10.330 -0.6684 -0.3675  0.3418
 9595TIP3    H150276   1.298   0.426  10.298 -0.6756  1.6943  1.1708
 9595TIP3    H250277   1.220   0.357  10.408 -0.3584 -2.0193 -0.7899
 9596TIP3   OH250278   5.729   5.233  16.726 -0.0169 -0.2285  0.0087
 9596TIP3    H150279   5.752   5.204  16.637 -0.2750 -1.7743  0.4211
 9596TIP3    H250280   5.701   5.324  16.715 -0.9423 -0.6661 -1.6558
 9597TIP3   OH250281   0.918   4.519   0.871 -0.1039 -0.4897 -0.0728
 9597TIP3    H150282   0.862   4.592   0.846  0.7149  0.2803  0.2762
 9597TIP3    H250283   0.888   4.495   0.959 -0.2965 -0.4977 -0.1403
 9598TIP3   OH250284   0.864   2.833   1.405  0.3610  0.1507 -0.3485
 9598TIP3    H150285   0.774   2.802   1.396  0.3520  0.4214 -1.2921
 9598TIP3    H250286   0.891   2.854   1.316  2.3013 -2.4830 -0.5145
 9599TIP3   OH250287   4.300   6.737   1.804 -0.0532 -0.3561 -0.0142
 9599TIP3    H150288   4.252   6.817   1.780  0.4881 -0.0437 -0.0774
 9599TIP3    H250289   4.266   6.671   1.744 -0.3175 -0.1107 -0.1430
 9600TIP3   OH250290   2.897   3.483   3.293  0.5464 -0.7899  0.1611
 9600TIP3    H150291   2.888   3.447   3.205  4.0344 -0.3768 -0.5096
 9600TIP3    H250292   2.859   3.571   3.287 -0.2682 -1.1715 -0.5702
 9601TIP3   OH250293   1.710   0.073   1.811 -0.2448  0.0101 -0.0349
 9601TIP3    H150294   1.728  -0.006   1.863 -0.2170  1.1093  1.6807
 9601TIP3    H250295   1.750   0.144   1.860 -2.7964  1.5229  0.0058
 9602TIP3   OH250296   5.400   2.483   0.746 -0.2113  1.1131  0.2110
 9602TIP3    H150297   5.383   2.514   0.836  0.1210  1.3058  0.2092
 9602TIP3    H250298   5.318   2.442   0.719 -0.3097  1.0443  0.6095
 9603TIP3   OH250299   2.771   2.858  15.799  0.5686 -0.3418  0.1741
 9603TIP3    H150300   2.818   2.806  15.864 -3.0016 -2.6996  1.2014
 9603TIP3    H250301   2.727   2.926  15.850 -0.7783 -1.0652  0.0237
 9604TIP3   OH250302   3.385   6.546  14.475  0.2075 -0.4465 -0.0008
 9604TIP3    H150303   3.349   6.635  14.463  1.6129 -0.0425 -1.6777
 9604TIP3    H250304   3.307   6.490  14.483 -0.7219  0.8445  0.3478
 9605TIP3   OH250305   2.086   0.302  15.675 -0.2916 -0.5376 -0.1596
 9605TIP3    H150306   2.032   0.364  15.724 -1.4456 -1.5249 -0.1383
 9605TIP3    H250307   2.076   0.328  15.583  1.1721  0.7716  0.0160
 9606TIP3   OH250308   4.813   3.910  14.048  0.0009  0.3988  0.4280
 9606TIP3    H150309   4.763   3.982  14.087 -1.3834 -0.5900  0.5755
 9606TIP3    H250310   4.895   3.949  14.020 -0.4623  1.8935  1.0811
 9607TIP3   OH250311   0.697   4.670   3.303 -0.2281  0.4497  0.0597
 9607TIP3    H150312   0.789   4.688   3.319 -0.1769  0.9772 -0.7728
 9607TIP3    H250313   0.655   4.756   3.302 -0.5524  0.2942 -0.5627
 9608TIP3   OH250314   5.565   6.033  13.062 -0.0794  0.9386 -0.5365
 9608TIP3    H150315   5.476   6.050  13.032  0.3315  0.9024 -1.8551
 9608TIP3    H250316   5.618   6.102  13.022  0.5163  0.8577  0.0835
 9609TIP3   OH250317   6.287   1.213  11.965 -0.0469 -0.1960 -0.0091
 9609TIP3    H150318   6.193   1.227  11.957 -0.1881 -0.4953  0.9668
 9609TIP3    H250319   6.296   1.119  11.981  0.3998 -0.1471  0.0539
 9610TIP3   OH250320   6.430   4.535  11.250  0.2070 -0.6790 -0.2915
 9610TIP3    H150321   6.462   4.608  11.302  1.0025 -1.1808 -0.0414
 9610TIP3    H250322   6.343   4.561  11.221 -0.3282 -0.4388  1.4142
 9611TIP3   OH250323   3.473   4.979   3.767 -0.0136  0.2056  0.3053
 9611TIP3    H150324   3.471   4.996   3.861  0.8815 -2.9139  0.9870
 9611TIP3    H250325   3.410   4.908   3.754 -0.6585  1.0564 -1.6243
 9612TIP3   OH250326   3.151   6.816   3.655  0.0237 -0.3364 -0.1094
 9612TIP3    H150327   3.236   6.777   3.635  0.8381  1.9219 -1.4127
 9612TIP3    H250328   3.095   6.787   3.582  0.9404  1.6901 -1.7315
 9613TIP3   OH250329   5.085   1.860  10.891 -0.2226  0.2112 -0.2364
 9613TIP3    H150330   5.091   1.783  10.947 -0.1479  0.9202  0.7704
 9613TIP3    H250331   5.031   1.922  10.940  0.9607  1.3656 -0.3039
 9614TIP3   OH250332   4.805   1.734  13.683  0.0415  0.6573  0.1221
 9614TIP3    H150333   4.787   1.699  13.770 -0.5226  0.2404 -0.1553
 9614TIP3    H250334   4.764   1.672  13.623 -0.4797  1.4958 -0.4049
 9615TIP3   OH250335   5.124   2.107   4.079 -0.8236  0.5183  0.2355
 9615TIP3    H150336   5.219   2.110   4.090 -0.5510 -1.1004 -1.2853
 9615TIP3    H250337   5.094   2.193   4.107  1.3819  2.1153 -1.9007
 9616TIP3   OH250338   5.409   0.664  12.171 -0.0692 -0.1901  0.1229
 9616TIP3    H150339   5.462   0.629  12.100  0.4207  0.2585  0.2598
 9616TIP3    H250340   5.430   0.757  12.173 -0.9218  0.0130  0.1317
 9617TIP3   OH250341   2.861   0.295  12.930 -0.3141  0.3044 -0.1449
 9617TIP3    H150342   2.953   0.284  12.904 -0.3481  2.6989 -1.5689
 9617TIP3    H250343   2.860   0.271  13.023  1.3592 -1.4324 -0.4939
 9618TIP3   OH250344   2.138   0.570  10.629 -0.0271 -0.0861  0.0813
 9618TIP3    H150345   2.182   0.614  10.702 -1.0411  0.5124  0.3508
 9618TIP3    H250346   2.092   0.497  10.670 -0.6831  0.3128  0.0561
 9619TIP3   OH250347   1.150   3.566   1.726  0.6048 -0.1362 -0.4849
 9619TIP3    H150348   1.198   3.486   1.746  0.9514  0.5656  1.8066
 9619TIP3    H250349   1.189   3.632   1.784  0.1688  1.6477 -2.1287
 9620TIP3   OH250350   0.260   3.356  11.837 -0.4164 -0.2327 -0.6201
 9620TIP3    H150351   0.256   3.331  11.930  0.1529 -1.2309 -0.8558
 9620TIP3    H250352   0.296   3.445  11.838 -0.6161 -0.1506  0.1188
 9621TIP3   OH250353   6.644   1.296   4.930  0.1749 -0.1589  1.0490
 9621TIP3    H150354   6.611   1.297   4.840  2.4156  0.8224  0.1644
 9621TIP3    H250355   6.574   1.336   4.982 -0.4906  0.8278 -0.5484
 9622TIP3   OH250356   1.171   4.591   0.445  0.0988 -0.0723 -0.2259
 9622TIP3    H150357   1.135   4.512   0.486  0.0698  0.4633  0.8090
 9622TIP3    H250358   1.095   4.632   0.402 -1.0463  1.9052  3.2958
 9623TIP3   OH250359   6.342   2.622   5.829  0.0576  0.5926 -0.5884
 9623TIP3    H150360   6.276   2.553   5.820 -0.4721  0.6591  1.9640
 9623TIP3    H250361   6.293   2.697   5.865  1.3790  0.7793  0.9455
 9624TIP3   OH250362   1.460   4.237   1.317 -0.5785  0.2558 -0.1344
 9624TIP3    H150363   1.539   4.184   1.330  0.3346  1.6262  0.1128
 9624TIP3    H250364   1.388   4.176   1.327  0.4518 -1.0514 -0.4286
 9625TIP3   OH250365   1.424   0.988   2.011 -0.1493  0.7524 -0.2772
 9625TIP3    H150366   1.379   0.917   1.964  1.0200  0.4489 -0.9583
 9625TIP3    H250367   1.511   0.992   1.972  0.3342  1.5265  0.8342
 9626TIP3   OH250368   2.125   5.258  11.735 -0.5310  0.2387  0.1658
 9626TIP3    H150369   2.057   5.286  11.673 -0.2997 -1.5671 -0.9534
 9626TIP3    H250370   2.207   5.279  11.691 -0.3270  1.5503  1.1176
 9627TIP3   OH250371   4.767   1.496   4.406 -0.1688 -0.1000 -0.4295
 9627TIP3    H150372   4.687   1.494   4.458 -0.8344 -0.2568 -1.4439
 9627TIP3    H250373   4.738   1.487   4.316  1.1116 -2.5385 -0.6979
 9628TIP3   OH250374   1.603   0.657  16.923  0.5108  0.1929 -0.0207
 9628TIP3    H150375   1.587   0.698  17.008 -0.6492  0.7475 -0.4838
 9628TIP3    H250376   1.658   0.582  16.943  1.3305  1.0476  1.0608
 9629TIP3   OH250377   3.687   5.176  13.220 -0.2733 -0.0134  0.3421
 9629TIP3    H150378   3.716   5.252  13.169 -0.7641  1.2701  1.8594
 9629TIP3    H250379   3.622   5.133  13.165 -0.8173  1.3511 -0.1401
 9630TIP3   OH250380   5.418   3.221   5.845 -0.6746 -0.1638 -0.0561
 9630TIP3    H150381   5.505   3.260   5.834 -0.4324 -0.2111  1.4356
 9630TIP3    H250382   5.416   3.149   5.783  0.2136  0.0600 -0.3654
 9631TIP3   OH250383   4.938   5.012  16.407 -0.0480  0.2145 -0.6020
 9631TIP3    H150384   4.900   5.037  16.492 -2.0877  0.0928 -1.4247
 9631TIP3    H250385   5.031   5.003  16.425 -0.1245  2.0756  1.2040
 9632TIP3   OH250386   4.761   0.412   3.534 -0.2704  0.1772 -0.2824
 9632TIP3    H150387   4.669   0.432   3.519 -0.3460  0.7481  0.8062
 9632TIP3    H250388   4.773   0.423   3.629  0.8785 -0.0402 -0.3820
 9633TIP3   OH250389   5.076   2.487   2.855 -0.0048  0.0218 -0.2266
 9633TIP3    H150390   5.034   2.516   2.936  0.7146  0.8516 -0.1425
 9633TIP3    H250391   5.047   2.549   2.788  0.2632 -0.0121 -0.3784
 9634TIP3   OH250392   1.402   5.017  14.417  0.0561  0.6678  0.7902
 9634TIP3    H150393   1.470   5.016  14.484  0.8223 -2.1825  0.1044
 9634TIP3    H250394   1.328   4.972  14.457  0.7549 -1.6696 -0.3924
 9635TIP3   OH250395   5.440   4.101  15.663 -0.0165 -1.0705  0.5223
 9635TIP3    H150396   5.451   4.196  15.659 -0.6138 -1.0060  0.2301
 9635TIP3    H250397   5.415   4.076  15.574 -1.8483 -1.2198  1.0314
 9636TIP3   OH250398   0.012   6.367  16.420 -0.0540  0.1842  0.1434
 9636TIP3    H150399  -0.034   6.289  16.451  2.4892 -0.5130  2.6108
 9636TIP3    H250400  -0.051   6.438  16.432 -2.1463 -1.2718 -1.3991
 9637TIP3   OH250401   3.991   2.596  16.865 -0.5543 -0.2130 -0.1596
 9637TIP3    H150402   3.994   2.566  16.774  1.8518 -1.2964  0.2197
 9637TIP3    H250403   4.012   2.689  16.861  3.9201 -1.0447 -0.5080
 9638TIP3   OH250404   4.572   6.097   6.113  0.4019 -0.4283 -0.1198
 9638TIP3    H150405   4.574   6.185   6.152  1.1614  0.6158 -2.3298
 9638TIP3    H250406   4.481   6.086   6.085  0.1433 -0.6629  0.7788
 9639TIP3   OH250407   4.929   0.118   0.204 -0.0594  0.3003  0.0658
 9639TIP3    H150408   4.876   0.079   0.274  1.0072 -0.7156  0.3476
 9639TIP3    H250409   5.017   0.084   0.219  0.2721  0.3590 -1.5582
 9640TIP3   OH250410   3.914   4.246  14.898 -0.4445 -0.0812 -0.3689
 9640TIP3    H150411   3.835   4.299  14.915  0.7148  1.3685  0.7606
 9640TIP3    H250412   3.885   4.156  14.908 -1.4607  0.4685  2.5794
 9641TIP3   OH250413   4.120   6.545   4.665 -0.1966  0.3354 -0.8243
 9641TIP3    H150414   4.035   6.589   4.665  0.7052  2.2273  0.2892
 9641TIP3    H250415   4.152   6.556   4.754  2.4745  2.3477 -1.9052
 9642TIP3   OH250416   2.408   2.304  14.464 -0.5823 -0.1262 -0.0655
 9642TIP3    H150417   2.340   2.242  14.489 -0.9947  0.8213  1.2583
 9642TIP3    H250418   2.377   2.343  14.383 -2.7379  1.8391  1.5811
 9643TIP3   OH250419   3.904   4.148  15.629  0.5113 -1.0435 -0.6289
 9643TIP3    H150420   3.977   4.169  15.572  0.6732  1.3380  0.3408
 9643TIP3    H250421   3.932   4.177  15.716 -0.6891 -2.2732  0.2093
 9644TIP3   OH250422   2.537   2.018  12.689  0.3212  0.3235 -0.1828
 9644TIP3    H150423   2.490   1.935  12.700 -0.8169  1.2121  2.5337
 9644TIP3    H250424   2.564   2.042  12.777 -1.2255  3.8548 -0.4965
 9645TIP3   OH250425   6.163   1.667   4.092  0.2718 -0.5541  0.4820
 9645TIP3    H150426   6.230   1.670   4.023 -1.0770 -2.7764 -1.0726
 9645TIP3    H250427   6.131   1.757   4.098  1.8353  0.1049 -0.3219
 9646TIP3   OH250428   6.517   2.076   1.655  0.3994  0.3831 -0.4393
 9646TIP3    H150429   6.485   2.162   1.684 -1.3871 -0.7420  1.1895
 9646TIP3    H250430   6.524   2.025   1.736  1.1584 -1.1134 -1.4020
 9647TIP3   OH250431   4.200   6.539   4.929 -0.3568 -0.0585  0.1611
 9647TIP3    H150432   4.228   6.626   4.955 -0.8472  0.1368  0.0381
 9647TIP3    H250433   4.276   6.483   4.946 -0.7798 -0.0295  2.4716
 9648TIP3   OH250434   5.781   3.591   1.330 -0.6626  0.0118 -0.0667
 9648TIP3    H150435   5.862   3.565   1.288 -0.4186  1.9724 -0.9068
 9648TIP3    H250436   5.712   3.556   1.273 -0.3599  0.5636 -0.7854
 9649TIP3   OH250437   2.938   4.513  11.923  0.2168 -0.9265  0.3427
 9649TIP3    H150438   2.910   4.484  12.010 -1.1262 -1.8604 -0.3550
 9649TIP3    H250439   2.951   4.607  11.932 -2.0806 -0.6071  1.0626
 9650TIP3   OH250440   2.011   1.555  16.379 -0.2023  0.3090 -0.5421
 9650TIP3    H150441   1.918   1.576  16.372 -0.3773 -1.0126 -4.8805
 9650TIP3    H250442   2.053   1.601  16.306  2.5853  0.5999  1.0706
 9651TIP3   OH250443   1.667   2.976   5.263 -0.3526  0.1226 -0.3093
 9651TIP3    H150444   1.623   2.893   5.244 -0.6402 -0.2891  1.8829
 9651TIP3    H250445   1.604   3.043   5.239 -0.3963 -0.3143 -1.4406
 9652TIP3   OH250446   3.704   4.382   4.876  0.3648 -0.2565  0.0927
 9652TIP3    H150447   3.689   4.353   4.786  0.6248 -0.4437  0.1102
 9652TIP3    H250448   3.708   4.301   4.927 -0.2063 -0.1366  0.3407
 9653TIP3   OH250449   2.250   2.140   2.826  0.7911 -0.4907  0.6339
 9653TIP3    H150450   2.214   2.139   2.737  0.8640 -1.4312  0.6003
 9653TIP3    H250451   2.342   2.166   2.813  1.0683 -1.5594  0.3033
 9654TIP3   OH250452   2.505   3.476  15.958  0.1951  0.3145  0.0848
 9654TIP3    H150453   2.450   3.412  15.914 -2.0115  2.2600 -0.2143
 9654TIP3    H250454   2.512   3.445  16.048  1.5570 -1.7292 -0.6657
 9655TIP3   OH250455   1.836   6.440  12.583  0.4460 -0.3840 -0.0983
 9655TIP3    H150456   1.850   6.419  12.675 -2.1611 -0.7535  0.2739
 9655TIP3    H250457   1.818   6.534  12.582  3.1012  0.2265 -0.6564
 9656TIP3   OH250458   1.417   5.940   4.524 -0.3087 -0.0496  0.1611
 9656TIP3    H150459   1.497   5.887   4.533 -1.2210 -1.4800  0.2527
 9656TIP3    H250460   1.405   5.980   4.610 -0.5996 -1.2198  0.6923
 9657TIP3   OH250461   2.177   3.598   3.278  0.2397  0.4264  0.3578
 9657TIP3    H150462   2.243   3.579   3.211 -1.0465 -0.2222 -0.7776
 9657TIP3    H250463   2.114   3.655   3.234 -1.8267 -1.7981  0.2505
 9658TIP3   OH250464   1.035   1.760  11.516 -0.1765 -0.1023 -0.2852
 9658TIP3    H150465   0.950   1.788  11.548 -1.3214 -0.1231 -3.0430
 9658TIP3    H250466   1.094   1.831  11.540 -1.1706  0.4313  0.6790
 9659TIP3   OH250467   4.589   1.238  15.395 -0.1717  0.3549 -0.1082
 9659TIP3    H150468   4.535   1.209  15.468 -2.7882  0.0471 -2.0388
 9659TIP3    H250469   4.565   1.330  15.381 -0.0853  0.2704 -0.8976
 9660TIP3   OH250470   3.671   0.417   2.194 -0.7707 -0.7060 -0.0343
 9660TIP3    H150471   3.723   0.381   2.266  1.2967 -0.1215 -1.1415
 9660TIP3    H250472   3.712   0.382   2.115 -0.4682  1.7152 -1.0542
 9661TIP3   OH250473   1.758   5.482   5.657  0.5760 -0.0022  0.2764
 9661TIP3    H150474   1.796   5.425   5.723 -2.4318  0.3851  2.5609
 9661TIP3    H250475   1.713   5.423   5.597  1.1860 -0.2116  0.0119
 9662TIP3   OH250476   1.928   2.256  13.962  0.3509 -0.0107  0.9052
 9662TIP3    H150477   1.960   2.342  13.933 -1.0136  0.5747  1.0719
 9662TIP3    H250478   1.903   2.212  13.881 -0.3014  0.3176  0.9231
 9663TIP3   OH250479   5.415   6.522   3.442  0.4576  0.3500 -0.1563
 9663TIP3    H150480   5.443   6.435   3.415 -1.0790 -0.6640  1.2940
 9663TIP3    H250481   5.486   6.552   3.500 -0.1916 -1.1248  1.4991
 9664TIP3   OH250482   6.743   6.339  10.823  0.1347 -0.0898 -0.2050
 9664TIP3    H150483   6.785   6.261  10.860 -0.3849 -1.8560 -2.9784
 9664TIP3    H250484   6.651   6.315  10.814 -0.6609  1.9999  1.5049
 9665TIP3   OH250485   1.476   5.232  16.839 -0.2118  0.4105  0.1700
 9665TIP3    H150486   1.528   5.193  16.768 -1.7771 -0.9438 -0.3017
 9665TIP3    H250487   1.539   5.282  16.890  1.3618 -0.3313 -0.9521
 9666TIP3   OH250488   5.998   4.965   0.333  0.8680  0.0381 -0.0472
 9666TIP3    H150489   5.912   4.993   0.363  0.2875  1.4900 -2.7774
 9666TIP3    H250490   6.059   5.015   0.387  0.0021 -0.0489  1.0518
 9667TIP3   OH250491   3.512   0.737  15.809  0.2648  0.8239  0.2227
 9667TIP3    H150492   3.553   0.652  15.826 -0.4821  0.6185  1.0962
 9667TIP3    H250493   3.468   0.726  15.725 -1.1853 -0.2184  1.0646
 9668TIP3   OH250494   6.809   6.336   5.447 -0.2260  0.6547 -0.7640
 9668TIP3    H150495   6.895   6.370   5.472  0.4280  0.3241 -2.3980
 9668TIP3    H250496   6.772   6.404   5.390  0.3518 -0.5269 -2.6490
 9669TIP3   OH250497   1.972   2.119  10.907 -0.0613 -0.2045  0.5513
 9669TIP3    H150498   1.933   2.129  10.820  0.7152  0.2222  0.2481
 9669TIP3    H250499   1.983   2.024  10.918  2.3930 -0.1626 -0.9793
 9670TIP3   OH250500   2.612   4.054   5.161  0.1973 -0.0295 -0.3591
 9670TIP3    H150501   2.660   4.122   5.113 -1.2583  1.6540  0.4454
 9670TIP3    H250502   2.583   3.993   5.094  2.3954 -0.4490 -0.9919
 9671TIP3   OH250503   0.135   4.549   6.012  0.3930 -0.7359  0.2597
 9671TIP3    H150504   0.121   4.630   6.060  2.7386  0.9358 -1.6336
 9671TIP3    H250505   0.186   4.494   6.072  1.0971  0.2979  0.6454
 9672TIP3   OH250506   5.884   6.002  12.286  0.3931 -0.3181  0.3954
 9672TIP3    H150507   5.833   6.049  12.221  1.7999  1.2719  0.3907
 9672TIP3    H250508   5.967   6.049  12.292  1.6987 -2.4836  0.7924
 9673TIP3   OH250509   0.969   1.552   2.394 -0.1052  0.5355 -0.2326
 9673TIP3    H150510   0.960   1.645   2.413 -0.7855  0.4563 -0.1451
 9673TIP3    H250511   0.982   1.511   2.480 -0.6860  0.4545 -0.1812
 9674TIP3   OH250512   5.321   4.943   2.528 -0.6792 -0.1703 -0.0387
 9674TIP3    H150513   5.329   4.931   2.433  0.2738  0.8985 -0.1308
 9674TIP3    H250514   5.361   5.029   2.544 -0.5994 -0.4416  1.3632
 9675TIP3   OH250515   1.039   1.687   4.103  0.1155  0.5858  0.2937
 9675TIP3    H150516   1.043   1.612   4.044 -0.6013 -0.1527  1.1535
 9675TIP3    H250517   0.961   1.671   4.157 -0.6290  2.4453 -0.1582
 9676TIP3   OH250518   2.796   3.578  16.251  0.2959  0.3311  0.4510
 9676TIP3    H150519   2.782   3.600  16.159 -1.4302  2.9383  1.2170
 9676TIP3    H250520   2.868   3.515  16.250  1.0883  1.1090 -2.5777
 9677TIP3   OH250521   2.155   6.401  16.405  0.4262  0.3234 -0.5603
 9677TIP3    H150522   2.241   6.385  16.367  1.1069  2.5596 -0.1194
 9677TIP3    H250523   2.162   6.373  16.496  0.4634 -0.0972 -0.6887
 9678TIP3   OH250524   0.907   5.970  15.057 -0.1602  0.0818  0.6620
 9678TIP3    H150525   0.939   5.919  14.983 -2.3973  0.4326 -0.6077
 9678TIP3    H250526   0.889   5.905  15.125  1.3288 -0.2971  0.7278
 9679TIP3   OH250527   5.723   6.264   5.768 -0.2800 -0.2671  0.4294
 9679TIP3    H150528   5.807   6.308   5.759 -0.4658  0.1738  0.8036
 9679TIP3    H250529   5.669   6.325   5.819 -0.9748 -0.3414 -0.1963
 9680TIP3   OH250530   4.203   3.383  11.189 -0.0318 -0.3731 -0.0261
 9680TIP3    H150531   4.119   3.366  11.146  1.7685 -1.1892 -3.6653
 9680TIP3    H250532   4.243   3.296  11.199  1.2837  0.1548 -0.5076
 9681TIP3   OH250533   3.466   3.695   3.667  0.1397 -0.0745 -0.0768
 9681TIP3    H150534   3.540   3.692   3.727  1.1974  1.1250 -1.2424
 9681TIP3    H250535   3.503   3.669   3.582 -0.8728  0.0842 -0.5866
 9682TIP3   OH250536   0.164   6.539   3.036  0.0668  0.4818  0.0696
 9682TIP3    H150537   0.131   6.625   3.011  0.5413  0.5357 -0.3933
 9682TIP3    H250538   0.231   6.519   2.970  1.2920  0.5860  1.2414
 9683TIP3   OH250539   2.518   1.198  12.679 -0.2562 -0.0543  0.0124
 9683TIP3    H150540   2.536   1.226  12.768  0.3479  1.8009 -0.6483
 9683TIP3    H250541   2.572   1.256  12.624 -1.5550 -0.3174 -1.6114
 9684TIP3   OH250542   1.890   0.265  14.300 -0.5292  0.2753 -0.1576
 9684TIP3    H150543   1.879   0.313  14.218 -1.2018 -1.1652 -0.9507
 9684TIP3    H250544   1.969   0.302  14.339  0.6941 -0.0264 -2.2010
 9685TIP3   OH250545   5.123   1.862   1.834  0.3163 -0.8021 -0.2564
 9685TIP3    H150546   5.058   1.792   1.824 -0.8483  0.1957  0.0129
 9685TIP3    H250547   5.101   1.904   1.918  2.0529 -1.1608  0.4251
 9686TIP3   OH250548   4.636   1.690   5.440  0.6448  0.1042  0.8326
 9686TIP3    H150549   4.699   1.762   5.442  0.1579  0.8955 -3.4140
 9686TIP3    H250550   4.560   1.725   5.394 -0.4815 -2.4944  0.5063
 9687TIP3   OH250551   3.509   0.866  12.170  0.1253 -0.0908  0.9483
 9687TIP3    H150552   3.455   0.913  12.233 -1.4684  0.2026 -0.5775
 9687TIP3    H250553   3.509   0.921  12.092  1.6767 -0.6671  0.4968
 9688TIP3   OH250554   5.180   0.835   3.851  0.7820  0.8260 -0.5702
 9688TIP3    H150555   5.191   0.746   3.816  1.2538  0.5598  0.2346
 9688TIP3    H250556   5.105   0.870   3.804 -0.1854 -0.4374 -0.0148
 9689TIP3   OH250557   3.044   5.577  15.432  0.2066 -0.0777  0.3911
 9689TIP3    H150558   3.109   5.647  15.421 -0.4223  0.4095 -0.3932
 9689TIP3    H250559   2.996   5.577  15.349  0.5708 -1.8488  0.1443
 9690TIP3   OH250560   4.430   1.754   2.928  0.3409  0.0658 -0.4067
 9690TIP3    H150561   4.482   1.725   3.003 -0.2346  0.8422  0.3236
 9690TIP3    H250562   4.367   1.684   2.914 -0.6251  0.6326  0.9251
 9691TIP3   OH250563   3.871   0.566   3.113 -0.0490 -0.5760  0.1795
 9691TIP3    H150564   3.873   0.662   3.109 -1.7103 -0.5095  0.0770
 9691TIP3    H250565   3.904   0.538   3.027  0.4290 -0.1016  0.2023
 9692TIP3   OH250566   2.037   1.481  14.085  0.1087 -0.7203 -0.2022
 9692TIP3    H150567   2.008   1.396  14.050  0.7048 -0.2635 -1.8940
 9692TIP3    H250568   2.032   1.540  14.010 -0.2582  0.7519  0.9402
 9693TIP3   OH250569   6.409   6.631  14.428 -0.0332  0.4045  0.0813
 9693TIP3    H150570   6.500   6.635  14.458  0.1915 -0.4496 -0.4254
 9693TIP3    H250571   6.383   6.722  14.416  1.3632  0.6326 -1.5024
 9694TIP3   OH250572   3.079   0.711   3.848  0.6022 -0.1583  0.3743
 9694TIP3    H150573   2.989   0.714   3.880  0.7207 -0.6359  0.7553
 9694TIP3    H250574   3.132   0.696   3.926  0.9853 -0.2600  0.0983
 9695TIP3   OH250575   0.059   5.654   3.968  0.5634 -0.4044 -0.0601
 9695TIP3    H150576   0.041   5.583   4.030 -2.1423 -0.5311 -0.8942
 9695TIP3    H250577  -0.008   5.645   3.900  0.7938  2.2971 -0.7694
 9696TIP3   OH250578   3.328   3.486   1.180  0.1985  0.0381  0.2082
 9696TIP3    H150579   3.249   3.432   1.189  1.0071 -1.2072  0.1393
 9696TIP3    H250580   3.369   3.482   1.267  0.3148  0.4857  0.1762
 9697TIP3   OH250581   4.328   3.277  11.617 -0.1581  0.1068 -0.3485
 9697TIP3    H150582   4.413   3.319  11.628  0.2462 -0.2349 -1.9398
 9697TIP3    H250583   4.268   3.331  11.668  0.8975  0.7084  0.2940
 9698TIP3   OH250584   1.873   2.654   5.924  0.2717 -0.1663 -0.0737
 9698TIP3    H150585   1.836   2.599   5.993  0.0537 -0.1750 -0.1963
 9698TIP3    H250586   1.895   2.594   5.854  0.0319 -0.0961 -0.2084
 9699TIP3   OH250587   3.459   6.087  14.289  0.2700  0.2195 -0.0048
 9699TIP3    H150588   3.486   6.004  14.249 -1.0684 -0.6903  0.8947
 9699TIP3    H250589   3.450   6.147  14.215  1.7936 -0.2535 -0.6178
 9700TIP3   OH250590   5.922   2.633   1.853  0.0701 -0.5005 -0.2157
 9700TIP3    H150591   5.838   2.609   1.893  0.5280 -0.2714  0.9146
 9700TIP3    H250592   5.955   2.551   1.817 -0.2679 -0.7455  0.0227
 9701TIP3   OH250593   5.155   6.680  15.848 -0.0004 -0.1510  0.3077
 9701TIP3    H150594   5.231   6.672  15.905 -0.3761 -0.3329  0.7874
 9701TIP3    H250595   5.082   6.644  15.899 -0.7431  1.5555  0.5119
 9702TIP3   OH250596   1.828   6.156   0.758  0.3761 -0.4704 -0.1395
 9702TIP3    H150597   1.821   6.063   0.737  1.7032 -0.8017  0.7392
 9702TIP3    H250598   1.748   6.177   0.805  0.1629 -1.2124 -0.1627
 9703TIP3   OH250599   3.208   3.768   1.714 -0.2194 -0.5453  0.9519
 9703TIP3    H150600   3.147   3.830   1.673  0.0866 -1.2830 -0.7038
 9703TIP3    H250601   3.172   3.753   1.802 -1.0126  0.9497  0.9107
 9704TIP3   OH250602   2.287   1.651  16.523 -0.0408  0.3240 -0.3487
 9704TIP3    H150603   2.363   1.658  16.466 -0.9996 -0.1031 -1.7448
 9704TIP3    H250604   2.221   1.608  16.469 -1.2402  0.5929  0.8499
 9705TIP3   OH250605   3.119   3.910   5.491  0.3144 -0.0376 -0.4684
 9705TIP3    H150606   3.093   3.860   5.414 -0.4806 -0.2060 -0.0990
 9705TIP3    H250607   3.158   3.990   5.456 -0.3525  0.0472 -1.0388
 9706TIP3   OH250608   6.291   2.049   5.071  0.1356 -0.5495 -0.0244
 9706TIP3    H150609   6.276   1.961   5.107 -0.5879 -1.8529 -3.0975
 9706TIP3    H250610   6.369   2.039   5.016 -0.6511  0.3447 -1.3842
 9707TIP3   OH250611   0.354   5.639   5.544 -0.0340  0.7132  0.4151
 9707TIP3    H150612   0.331   5.700   5.473  0.8699  1.8688  1.0736
 9707TIP3    H250613   0.295   5.565   5.531 -0.4613  1.2573 -1.0479
 9708TIP3   OH250614   5.230   6.012   4.424  0.6473  0.2958 -0.2555
 9708TIP3    H150615   5.263   5.927   4.452 -1.3900 -1.0339 -1.5527
 9708TIP3    H250616   5.223   6.063   4.504  1.8360 -0.7830  0.5686
 9709TIP3   OH250617   1.585   5.564   1.321  0.0159  0.6484 -0.0415
 9709TIP3    H150618   1.641   5.640   1.306 -0.3639  1.2689  1.4271
 9709TIP3    H250619   1.581   5.556   1.417 -1.1927 -0.2789 -0.1394
 9710TIP3   OH250620   4.276   5.232  15.593 -0.0958 -0.1853 -0.0235
 9710TIP3    H150621   4.235   5.151  15.625 -1.8369 -0.0972 -1.8033
 9710TIP3    H250622   4.289   5.217  15.499 -0.0489  1.4310 -0.3029
 9711TIP3   OH250623   1.712   5.167   5.029  0.3073  0.3176 -0.4690
 9711TIP3    H150624   1.757   5.193   4.948  0.1897  1.9682 -0.0371
 9711TIP3    H250625   1.776   5.181   5.098 -0.3488  1.2318 -0.0212
 9712TIP3   OH250626   0.057   1.836  14.275 -0.1124  0.1870  0.2740
 9712TIP3    H150627   0.146   1.858  14.246  0.4234  1.3739  2.5635
 9712TIP3    H250628   0.070   1.766  14.339 -0.7286  0.8358  1.1250
 9713TIP3   OH250629   3.216   5.863   1.431 -0.2187  0.1086 -0.0688
 9713TIP3    H150630   3.228   5.929   1.499  1.8819  1.5412 -1.6800
 9713TIP3    H250631   3.252   5.783   1.468 -1.9851  0.0229  1.5989
 9714TIP3   OH250632   1.667   2.484   5.097  0.3550  0.8481 -0.4166
 9714TIP3    H150633   1.688   2.392   5.077  0.6034  0.7543  0.2515
 9714TIP3    H250634   1.573   2.484   5.113  0.2145  0.8599 -1.2079
 9715TIP3   OH250635   1.143   5.209   0.253 -0.3381 -0.0447  0.2827
 9715TIP3    H150636   1.155   5.301   0.229 -0.4501  0.6252  2.5354
 9715TIP3    H250637   1.214   5.163   0.210  0.4657  1.3079  0.1203
 9716TIP3   OH250638   2.044   6.420   1.383  0.1969  0.5638 -0.6437
 9716TIP3    H150639   2.096   6.473   1.442  1.2916 -1.7027  0.5805
 9716TIP3    H250640   2.038   6.335   1.427  0.9259 -1.2147 -3.6821
 9717TIP3   OH250641   1.346   2.871  13.991  0.7741  0.0039 -0.3085
 9717TIP3    H150642   1.299   2.790  13.973  0.8344 -0.5821  1.9369
 9717TIP3    H250643   1.422   2.868  13.933  0.5744 -1.3645 -0.5307
 9718TIP3   OH250644   0.218   6.412  10.665  0.1155 -0.2429  0.5775
 9718TIP3    H150645   0.240   6.397  10.573  0.5022  0.0732  0.6159
 9718TIP3    H250646   0.124   6.396  10.671 -0.1915  1.1535 -0.1771
 9719TIP3   OH250647   2.022   1.264  14.705  0.3056 -0.2045 -0.6016
 9719TIP3    H150648   1.961   1.209  14.755 -0.3589  1.1311  0.1216
 9719TIP3    H250649   2.102   1.266  14.758  0.5838 -1.0532 -0.9891
 9720TIP3   OH250650   5.148   4.515   3.644 -0.0676  0.0156 -0.2163
 9720TIP3    H150651   5.179   4.602   3.620  0.1552 -0.2479 -0.9023
 9720TIP3    H250652   5.180   4.458   3.574  0.1333 -0.6846  0.4318
 9721TIP3   OH250653   3.973   2.932  11.762  0.4951 -0.4037 -0.9576
 9721TIP3    H150654   3.880   2.955  11.760  0.0357 -2.1692 -1.2063
 9721TIP3    H250655   3.981   2.874  11.837  2.0615  2.1487  1.0394
 9722TIP3   OH250656   6.537   5.310   4.126  0.3931  0.4897 -0.7538
 9722TIP3    H150657   6.512   5.388   4.076  0.7687  0.4012 -1.0865
 9722TIP3    H250658   6.562   5.344   4.212  1.1361  0.8144 -1.0872
 9723TIP3   OH250659   2.673   3.839  13.856  0.3279  0.0484 -0.2904
 9723TIP3    H150660   2.685   3.806  13.946 -0.5767  2.0841  0.6419
 9723TIP3    H250661   2.601   3.786  13.821 -1.1483  0.9791  1.1901
 9724TIP3   OH250662   4.497   6.136  11.180  0.1598  0.2778 -0.3675
 9724TIP3    H150663   4.478   6.216  11.228  1.7779  0.9167 -0.7204
 9724TIP3    H250664   4.593   6.132  11.176  0.2417 -2.7413  1.4197
 9725TIP3   OH250665   1.853   1.675  14.935  0.0585 -0.2660 -0.0840
 9725TIP3    H150666   1.906   1.750  14.962 -0.4939  1.4108 -3.1776
 9725TIP3    H250667   1.886   1.602  14.987  3.0603  1.3854  0.5223
 9726TIP3   OH250668   3.377   0.475   4.373 -0.7781 -0.3017  0.4496
 9726TIP3    H150669   3.286   0.447   4.381 -0.9598  0.1067 -0.1614
 9726TIP3    H250670   3.422   0.399   4.336 -1.2976  0.2105 -1.3304
 9727TIP3   OH250671   4.806   6.418   4.888 -0.2321  0.4493 -0.7926
 9727TIP3    H150672   4.768   6.504   4.904 -0.3758  0.6645 -2.1438
 9727TIP3    H250673   4.765   6.389   4.806  0.3520 -0.5874 -0.7304
 9728TIP3   OH250674   5.137   4.174  15.773 -0.1016 -0.1928  0.4873
 9728TIP3    H150675   5.134   4.242  15.840  0.3943  0.1446  0.1788
 9728TIP3    H250676   5.073   4.202  15.708 -0.7427 -0.6343  0.9158
 9729TIP3   OH250677   4.977   0.830   3.658  0.4816  0.3602  0.8226
 9729TIP3    H150678   4.892   0.829   3.615  0.9073  0.8515 -0.0578
 9729TIP3    H250679   4.984   0.743   3.698  0.0426 -0.0975 -0.0510
 9730TIP3   OH250680   1.671   6.012  15.081  0.5700 -0.1681 -0.4191
 9730TIP3    H150681   1.619   6.024  15.001  1.0537 -2.7054 -1.2127
 9730TIP3    H250682   1.668   5.918  15.097 -0.2963  0.3260  3.1429
 9731TIP3   OH250683   4.381   6.159   0.729 -0.2131 -0.3393 -0.3653
 9731TIP3    H150684   4.389   6.177   0.822  0.8122 -1.7817 -0.1415
 9731TIP3    H250685   4.312   6.094   0.721  0.5609 -1.1702 -0.4581
 9732TIP3   OH250686   2.850   4.346  11.682 -0.1226  0.7091  0.7282
 9732TIP3    H150687   2.890   4.405  11.745  0.4388  0.9432  0.1644
 9732TIP3    H250688   2.880   4.259  11.708  2.0510  0.9928 -0.5548
 9733TIP3   OH250689   3.901   5.786  11.921  0.0205  0.1537  0.4506
 9733TIP3    H150690   3.954   5.784  11.842 -0.6607  0.4323 -0.0258
 9733TIP3    H250691   3.826   5.842  11.898 -1.3722 -1.5930  0.4990
 9734TIP3   OH250692   1.393   6.137   1.632 -0.1852  0.4552 -0.6025
 9734TIP3    H150693   1.313   6.157   1.680  0.3594  0.4422  0.3435
 9734TIP3    H250694   1.451   6.098   1.698  0.3236 -0.2415 -1.4425
 9735TIP3   OH250695   0.823   5.055  14.337  0.1268  0.1814 -0.4262
 9735TIP3    H150696   0.901   5.071  14.391 -1.0066  0.5914  1.1805
 9735TIP3    H250697   0.794   4.968  14.364 -1.5710  1.1740  1.1735
 9736TIP3   OH250698   5.288   5.154   4.004  0.1504 -0.1007 -0.5369
 9736TIP3    H150699   5.342   5.227   4.035  1.3514 -0.5008 -1.6149
 9736TIP3    H250700   5.308   5.146   3.911 -0.1004 -1.6814 -0.4888
 9737TIP3   OH250701   4.715   5.181  11.981  0.1150  0.1153  0.2939
 9737TIP3    H150702   4.679   5.266  12.006 -3.3047 -0.1082 -3.0874
 9737TIP3    H250703   4.741   5.191  11.890 -0.2652 -2.4100 -0.1800
 9738TIP3   OH250704   0.092   2.317   3.291 -0.4506 -0.2094 -0.1839
 9738TIP3    H150705   0.069   2.224   3.295 -1.8141  0.0912 -0.4845
 9738TIP3    H250706   0.170   2.320   3.235 -0.4997 -1.1538 -0.3171
 9739TIP3   OH250707   2.150   0.698  10.387  0.0030  0.3012 -0.0129
 9739TIP3    H150708   2.073   0.653  10.353 -0.3771  0.2921  0.8298
 9739TIP3    H250709   2.184   0.641  10.455  0.0319  0.8742  0.4652
 9740TIP3   OH250710   4.379   2.147   2.810  1.0446  0.1670 -0.4585
 9740TIP3    H150711   4.450   2.187   2.861 -0.0335  3.1594 -1.1063
 9740TIP3    H250712   4.319   2.219   2.793 -2.2551 -2.2259  0.1285
 9741TIP3   OH250713   6.532   2.710   3.406  0.4690 -0.2781  0.1222
 9741TIP3    H150714   6.497   2.622   3.392 -4.3690  1.0644  1.9392
 9741TIP3    H250715   6.589   2.701   3.483 -1.6436 -1.5939  1.6364
 9742TIP3   OH250716   3.095   6.796   5.919 -0.0197  0.5834 -0.1574
 9742TIP3    H150717   3.018   6.783   5.864 -1.5219  0.5972  1.8691
 9742TIP3    H250718   3.087   6.731   5.989  2.5755 -0.3737 -0.6293
 9743TIP3   OH250719   1.302   4.064  10.491 -0.4346  0.4800  0.0555
 9743TIP3    H150720   1.330   4.031  10.405  0.2102 -1.7118  1.0497
 9743TIP3    H250721   1.227   4.010  10.514  0.4080 -0.1043  1.5691
 9744TIP3   OH250722   1.577   0.928  11.607 -0.0568  0.0757 -0.1504
 9744TIP3    H150723   1.522   0.991  11.654 -1.0705 -0.6047 -0.3793
 9744TIP3    H250724   1.581   0.852  11.665  1.0252  0.2801  0.0557
 9745TIP3   OH250725   0.298   2.593   1.490  0.1691  0.5085  0.6030
 9745TIP3    H150726   0.330   2.504   1.502 -1.6082 -0.2318  0.1458
 9745TIP3    H250727   0.225   2.584   1.429  0.3637  2.3804  0.0276
 9746TIP3   OH250728   0.008   3.607   2.799  0.2236  0.0935  0.2898
 9746TIP3    H150729   0.052   3.635   2.719  0.1021 -0.8937 -0.1370
 9746TIP3    H250730  -0.076   3.652   2.798  0.3237  0.2718 -0.0110
 9747TIP3   OH250731   2.784   5.649  12.743  0.4366 -0.4410  0.3018
 9747TIP3    H150732   2.871   5.663  12.779  0.2812  0.0243  0.5082
 9747TIP3    H250733   2.756   5.737  12.715  0.0869 -0.6087  0.1212
 9748TIP3   OH250734   1.573   3.487   3.397 -0.7032 -0.0081  0.7426
 9748TIP3    H150735   1.548   3.488   3.305  0.1823 -1.2754  0.4683
 9748TIP3    H250736   1.608   3.574   3.413  1.2522 -0.4552 -0.7483
 9749TIP3   OH250737   4.293   5.965  16.695 -0.1330  0.1566 -0.2846
 9749TIP3    H150738   4.229   5.896  16.679 -0.2218  0.0328  0.5770
 9749TIP3    H250739   4.251   6.023  16.758  0.9455 -0.4385  1.0389
 9750TIP3   OH250740   1.884   5.120  11.466  0.0206 -0.4738  0.6790
 9750TIP3    H150741   1.907   5.199  11.418  2.0199 -0.8537  0.8971
 9750TIP3    H250742   1.811   5.082  11.417 -0.0682  0.7851 -0.2096
 9751TIP3   OH250743   5.887   6.082  11.736 -0.2100 -0.7442 -0.2172
 9751TIP3    H150744   5.891   6.036  11.820  0.2056 -0.8673 -0.2984
 9751TIP3    H250745   5.977   6.110  11.720 -0.8431  2.4607  1.1138
 9752TIP3   OH250746   0.939   3.791  11.475 -0.2484 -0.1126 -0.1129
 9752TIP3    H150747   0.951   3.877  11.433  1.1544  1.0328  2.3831
 9752TIP3    H250748   0.879   3.745  11.417 -1.1368  2.5703 -1.5454
 9753TIP3   OH250749   3.205   1.498   2.431 -0.3657 -0.9184 -0.1564
 9753TIP3    H150750   3.210   1.405   2.453  0.8669 -0.5065  1.5276
 9753TIP3    H250751   3.277   1.538   2.480 -1.7903  1.1567  0.3687
 9754TIP3   OH250752   2.577   6.490  13.303 -0.6248  0.0951 -0.0356
 9754TIP3    H150753   2.501   6.535  13.341  0.3154  0.0497  2.0654
 9754TIP3    H250754   2.541   6.408  13.268 -1.6916  0.5146  0.0383
 9755TIP3   OH250755   3.405   1.159   3.462  0.0730 -0.0009 -0.4918
 9755TIP3    H150756   3.434   1.101   3.531  1.0585  0.4885 -0.4758
 9755TIP3    H250757   3.318   1.188   3.489 -0.0149 -0.6851 -0.0253
 9756TIP3   OH250758   4.230   1.461  16.405 -0.2193 -0.7120 -0.2991
 9756TIP3    H150759   4.253   1.381  16.454  0.6762 -0.6982 -0.6797
 9756TIP3    H250760   4.136   1.472  16.421 -0.3609 -1.8458 -0.2474
 9757TIP3   OH250761   3.863   5.720   2.503  0.0914 -0.1194  0.4367
 9757TIP3    H150762   3.873   5.624   2.502  0.8580 -0.0515  0.5921
 9757TIP3    H250763   3.774   5.735   2.470 -0.7736 -0.9678  2.2531
 9758TIP3   OH250764   0.738   1.515  12.934  0.3958 -0.3182  0.3287
 9758TIP3    H150765   0.656   1.467  12.932 -0.5534  1.2425 -0.6499
 9758TIP3    H250766   0.712   1.607  12.925  2.1890  0.3055  1.0478
 9759TIP3   OH250767   6.076   2.685   6.363 -0.2783 -0.4738 -0.0971
 9759TIP3    H150768   6.029   2.741   6.301  1.2635  0.3593 -0.5624
 9759TIP3    H250769   6.031   2.601   6.359 -2.0847  0.4436 -0.0629
 9760TIP3   OH250770   6.640   0.914   1.860  0.2975  0.2657 -0.2165
 9760TIP3    H150771   6.615   0.822   1.858  1.6851 -0.1509  0.3489
 9760TIP3    H250772   6.559   0.961   1.877 -0.7705 -0.6898 -2.2282
 9761TIP3   OH250773   0.728   1.928  16.067  0.2508  0.0213  0.0805
 9761TIP3    H150774   0.652   1.986  16.074  0.6815  0.3967  2.4804
 9761TIP3    H250775   0.744   1.899  16.157  4.7567  2.3363  0.2843
 9762TIP3   OH250776   3.817   6.071   4.465 -0.2773 -0.3285  0.0691
 9762TIP3    H150777   3.786   6.129   4.534 -0.7646 -1.3793  0.7671
 9762TIP3    H250778   3.802   5.983   4.499  0.3074 -0.8754 -1.0136
 9763TIP3   OH250779   3.332   2.457   4.870  0.3566  0.6514 -0.5100
 9763TIP3    H150780   3.414   2.501   4.891  0.4408 -0.3423  1.5287
 9763TIP3    H250781   3.357   2.365   4.857 -0.2392  0.6004 -1.3570
 9764TIP3   OH250782   5.548   6.158   2.279 -0.0812  0.5013 -0.0469
 9764TIP3    H150783   5.529   6.242   2.321 -0.7753  0.5053 -0.3527
 9764TIP3    H250784   5.636   6.169   2.241  0.8949  0.2460  2.0107
 9765TIP3   OH250785   0.267   1.457  12.641  0.3575 -0.2106 -0.0267
 9765TIP3    H150786   0.360   1.439  12.653  0.6049 -0.4567 -1.9687
 9765TIP3    H250787   0.250   1.435  12.550 -1.5556  0.0895  0.2160
 9766TIP3   OH250788   4.855   1.394   5.969  0.4250  0.2942 -0.3915
 9766TIP3    H150789   4.819   1.361   5.887  1.4744 -0.1788 -0.6816
 9766TIP3    H250790   4.919   1.328   5.996  0.9054  0.9862  0.2201
 9767TIP3   OH250791   1.955   5.368  15.863 -0.3705  0.5021  0.0413
 9767TIP3    H150792   1.942   5.362  15.769 -2.4384  0.2666  0.3027
 9767TIP3    H250793   1.975   5.279  15.890  2.8361  0.9552 -0.4361
 9768TIP3   OH250794   0.460   0.159   2.673  0.5988 -0.3740 -0.4822
 9768TIP3    H150795   0.368   0.144   2.654  0.5487 -0.0931 -0.4677
 9768TIP3    H250796   0.504   0.079   2.644  0.1222 -1.3614  1.3679
 9769TIP3   OH250797   4.706   4.090  16.551  0.1040  0.1349  0.5836
 9769TIP3    H150798   4.648   4.040  16.607 -0.2929  0.1651  0.2033
 9769TIP3    H250799   4.734   4.028  16.483  2.2579 -0.5156  1.9614
 9770TIP3   OH250800   1.508   6.738   0.709  0.0831  0.1196 -0.0531
 9770TIP3    H150801   1.553   6.656   0.733 -0.1195 -0.6096 -1.9784
 9770TIP3    H250802   1.447   6.712   0.640  0.2443  1.9555 -0.9405
 9771TIP3   OH250803   2.521   4.366  15.979  0.2422  0.9286 -0.2120
 9771TIP3    H150804   2.537   4.461  15.979 -0.5495  1.0758  0.1838
 9771TIP3    H250805   2.451   4.354  15.916  1.8944  0.2849 -2.0140
 9772TIP3   OH250806   1.782   2.986  14.616 -0.3707  0.0615 -0.3821
 9772TIP3    H150807   1.705   3.024  14.659 -1.0455 -0.8562 -0.7584
 9772TIP3    H250808   1.849   3.055  14.621 -0.6833  0.2978  1.3903
 9773TIP3   OH250809   0.560   6.407  11.673  0.2962  0.1364  0.2757
 9773TIP3    H150810   0.469   6.433  11.657 -0.3278 -0.9051  1.8685
 9773TIP3    H250811   0.611   6.484  11.647 -1.0343  0.8294 -0.4486
 9774TIP3   OH250812   4.166   1.480   1.756  0.6945  0.0746 -0.0209
 9774TIP3    H150813   4.089   1.431   1.726  0.4962  0.9929 -1.0743
 9774TIP3    H250814   4.132   1.536   1.826  0.5423  0.0114 -0.0429
 9775TIP3   OH250815   0.346   5.722   0.267 -0.2154  0.1280  0.2639
 9775TIP3    H150816   0.402   5.799   0.283  0.2277  0.1580 -1.2892
 9775TIP3    H250817   0.325   5.726   0.174 -0.2135 -1.6100  0.1496
 9776TIP3   OH250818   4.608   2.492   2.811 -0.1352  0.4084 -0.6119
 9776TIP3    H150819   4.596   2.405   2.849 -2.8357  0.8987 -0.1387
 9776TIP3    H250820   4.641   2.545   2.883 -1.8524  0.5161  0.1591
 9777TIP3   OH250821   6.108   2.990   5.426  0.5602 -0.2021 -0.1112
 9777TIP3    H150822   6.144   3.078   5.417  0.8801 -0.3633 -0.4197
 9777TIP3    H250823   6.161   2.936   5.367  1.4474 -0.9276  1.3118
 9778TIP3   OH250824   3.738   6.253   0.242  0.0676 -0.0204 -0.2206
 9778TIP3    H150825   3.697   6.304   0.312 -1.8072 -0.9858 -0.5581
 9778TIP3    H250826   3.776   6.177   0.285  0.1739  0.1117 -0.0830
 9779TIP3   OH250827   0.380   1.440  14.627  0.4743  0.5526 -0.7531
 9779TIP3    H150828   0.425   1.421  14.545  0.9546 -0.6162 -0.2331
 9779TIP3    H250829   0.377   1.356  14.673  0.0044  1.1448  0.3287
 9780TIP3   OH250830   1.904   4.447   4.426  0.3245 -0.1315 -0.0655
 9780TIP3    H150831   1.995   4.443   4.456  0.1240  0.3714  0.6443
 9780TIP3    H250832   1.854   4.405   4.495  0.0326 -0.6344 -0.5716
 9781TIP3   OH250833   4.853   3.042  11.585  0.1491 -0.1878  0.3196
 9781TIP3    H150834   4.932   3.048  11.531  1.3633  0.1542  2.0544
 9781TIP3    H250835   4.855   2.953  11.620  0.5570  0.2457  1.4589
 9782TIP3   OH250836   4.282   5.324   5.779 -0.4816  0.1343 -0.0413
 9782TIP3    H150837   4.376   5.336   5.772 -0.2669 -0.9306  0.7298
 9782TIP3    H250838   4.256   5.285   5.696 -0.3473  1.0316 -0.5050
 9783TIP3   OH250839   1.943   3.324   0.666  0.1016  0.0555  0.5604
 9783TIP3    H150840   1.959   3.389   0.734 -0.0238  0.7041 -0.0200
 9783TIP3    H250841   2.028   3.282   0.654  0.6965  1.4508 -0.4124
 9784TIP3   OH250842   1.221   4.970   0.748 -0.1283 -0.7200  0.6508
 9784TIP3    H150843   1.160   4.913   0.702  0.1427 -0.9830  0.6094
 9784TIP3    H250844   1.301   4.918   0.756  0.5520  0.1052 -0.5097
 9785TIP3   OH250845   4.743   6.119  13.404  0.6114 -0.6569  0.0753
 9785TIP3    H150846   4.817   6.096  13.459  0.1541  0.6340  1.2843
 9785TIP3    H250847   4.684   6.044  13.411  1.0740 -0.9906  0.4301
 9786TIP3   OH250848   5.865   4.695   1.983 -0.1422  0.0314  0.0968
 9786TIP3    H150849   5.936   4.632   1.997  0.4426  0.7676  0.5482
 9786TIP3    H250850   5.790   4.642   1.960 -0.0951 -0.9897  2.0619
 9787TIP3   OH250851   5.973   2.296   1.253  0.0424  0.0171  0.1970
 9787TIP3    H150852   5.981   2.377   1.202 -0.4913  1.1883  1.8965
 9787TIP3    H250853   6.058   2.254   1.244 -0.3401 -0.3877 -2.4974
 9788TIP3   OH250854   4.694   5.439   4.851 -0.3316 -0.1699  0.0440
 9788TIP3    H150855   4.676   5.387   4.929  1.3770  1.1589  1.4051
 9788TIP3    H250856   4.783   5.473   4.864 -0.4616  1.1020 -1.9087
 9789TIP3   OH250857   1.677   0.320  10.363  0.1674 -0.1347  0.3776
 9789TIP3    H150858   1.643   0.233  10.387  0.4532 -0.2811  0.2523
 9789TIP3    H250859   1.764   0.303  10.328 -0.2156  0.0860 -0.7081
 9790TIP3   OH250860   4.664   4.505  11.796  0.3156  0.0732  0.0045
 9790TIP3    H150861   4.628   4.561  11.727 -0.2967 -1.6706 -1.1782
 9790TIP3    H250862   4.726   4.449  11.750  1.1052 -0.0505  1.1965
 9791TIP3   OH250863   4.377   3.484   6.198  0.2075 -0.7752 -0.4992
 9791TIP3    H150864   4.290   3.510   6.229  1.1706  1.3356  0.5902
 9791TIP3    H250865   4.364   3.466   6.104 -0.9009  2.3897 -1.0777
 9792TIP3   OH250866   2.563   3.651  17.138 -0.3901  0.1026 -0.0155
 9792TIP3    H150867   2.475   3.682  17.120 -0.5780 -1.2140 -1.6494
 9792TIP3    H250868   2.607   3.725  17.179 -1.8809  1.2193 -0.3653
 9793TIP3   OH250869   0.436   0.218   1.327 -0.3247  0.0824 -0.1799
 9793TIP3    H150870   0.425   0.235   1.420  1.5284 -1.3021  0.3715
 9793TIP3    H250871   0.434   0.304   1.286  2.9688  1.2520  1.7009
 9794TIP3   OH250872   5.083   4.038   0.789  1.0609  0.5111  0.0540
 9794TIP3    H150873   5.178   4.042   0.787  1.1329 -0.6041 -2.4326
 9794TIP3    H250874   5.055   4.081   0.708 -0.5329  0.4505  0.5331
 9795TIP3   OH250875   4.445   3.707  16.168  0.2194  0.1111 -0.1732
 9795TIP3    H150876   4.492   3.790  16.166  2.3788 -1.0289  0.1559
 9795TIP3    H250877   4.416   3.694  16.078  1.0455  0.5708 -0.5101
 9796TIP3   OH250878   4.149   4.718   1.796 -0.5480  0.0481  0.2999
 9796TIP3    H150879   4.133   4.746   1.887  0.0088 -0.5807  0.6047
 9796TIP3    H250880   4.243   4.729   1.785 -0.7251  0.8831 -0.4812
 9797TIP3   OH250881   4.338   6.266  12.718  0.1244 -0.0575  0.3811
 9797TIP3    H150882   4.426   6.298  12.699  0.8199 -1.3194  1.3079
 9797TIP3    H250883   4.332   6.268  12.813 -0.1392 -1.7361  0.4253
 9798TIP3   OH250884   4.641   1.158   0.854 -0.0577  0.0409  0.0977
 9798TIP3    H150885   4.699   1.145   0.928 -0.7318  0.6465  0.7536
 9798TIP3    H250886   4.687   1.222   0.799  0.0918  0.1953  0.3969
 9799TIP3   OH250887   3.406   5.081  12.767  0.1383 -0.2392  0.5970
 9799TIP3    H150888   3.379   4.989  12.765  2.7180 -1.1262  2.1556
 9799TIP3    H250889   3.324   5.130  12.764 -1.2894 -2.4675 -2.3972
 9800TIP3   OH250890   5.969   1.533  15.203 -0.0365  0.6458  0.3472
 9800TIP3    H150891   5.923   1.449  15.210 -3.1851  1.9300 -2.2295
 9800TIP3    H250892   6.060   1.510  15.186 -0.0396 -2.1217  3.2709
 9801TIP3   OH250893   2.556   3.213  13.810  0.1831 -0.2548 -0.1109
 9801TIP3    H150894   2.606   3.252  13.881 -1.6665  1.8009  0.1317
 9801TIP3    H250895   2.507   3.142  13.850 -0.2220  0.3653  0.4916
 9802TIP3   OH250896   5.248   0.177   4.875 -0.6997 -0.3593 -0.3192
 9802TIP3    H150897   5.250   0.082   4.864  2.6076 -0.3609 -0.7603
 9802TIP3    H250898   5.324   0.208   4.826 -1.2305  2.4582  0.4696
 9803TIP3   OH250899   1.237   1.606   0.608 -0.0391  0.2283 -0.1856
 9803TIP3    H150900   1.273   1.592   0.520  0.6226  0.9756 -0.0373
 9803TIP3    H250901   1.292   1.551   0.665  0.1108  0.4497 -0.1173
 9804TIP3   OH250902   3.252   5.657  17.023  0.1869  0.4385  0.5273
 9804TIP3    H150903   3.306   5.693  16.952  0.0918 -1.2389 -0.4467
 9804TIP3    H250904   3.291   5.571  17.042 -2.9190 -1.5685 -1.2657
 9805TIP3   OH250905   0.750   5.824   1.947  0.9846 -0.5276  0.4904
 9805TIP3    H150906   0.687   5.841   1.877  1.1695 -0.0529  0.4336
 9805TIP3    H250907   0.727   5.886   2.016  1.3236 -0.4133  0.5060
 9806TIP3   OH250908   0.379   3.309   2.790  0.3413 -0.0812  0.9254
 9806TIP3    H150909   0.296   3.331   2.833  0.4083  1.4757  0.3174
 9806TIP3    H250910   0.410   3.392   2.754  0.8450 -1.1208 -1.1492
 9807TIP3   OH250911   6.255   5.575   5.055 -0.0574 -0.0975  0.0320
 9807TIP3    H150912   6.246   5.646   4.992  1.7414  0.5217  0.3969
 9807TIP3    H250913   6.305   5.508   5.008  1.4603  0.4440  0.7989
 9808TIP3   OH250914   4.066   5.382   2.228  0.3047  0.1029  0.1129
 9808TIP3    H150915   4.138   5.431   2.269  1.2587  0.6780 -2.1317
 9808TIP3    H250916   4.110   5.322   2.167 -1.1095  0.5618 -1.4268
 9809TIP3   OH250917   3.883   1.840   1.094  0.2063 -0.1603 -0.2951
 9809TIP3    H150918   3.881   1.803   1.182  0.8187  1.7172  0.5765
 9809TIP3    H250919   3.971   1.821   1.061 -0.1088 -1.0893 -0.6300
 9810TIP3   OH250920   3.360   4.987   4.067 -0.1348 -0.5778  0.0515
 9810TIP3    H150921   3.304   4.972   4.142  0.9865 -0.9716  0.8401
 9810TIP3    H250922   3.435   4.930   4.081 -0.4220 -1.5399 -1.9677
 9811TIP3   OH250923   1.664   4.215   2.371  0.6187  0.9936  0.3577
 9811TIP3    H150924   1.659   4.267   2.451 -0.5448  1.6198 -0.0973
 9811TIP3    H250925   1.668   4.280   2.300 -1.8759  0.5544 -0.2878
 9812TIP3   OH250926   5.169   2.661  14.028 -0.3020 -0.4043  0.2216
 9812TIP3    H150927   5.248   2.631  14.074 -0.1147 -0.0833  0.1099
 9812TIP3    H250928   5.202   2.721  13.961 -0.6686  0.0507  0.4399
 9813TIP3   OH250929   4.511   3.603  15.388  0.6072 -0.1449  0.2237
 9813TIP3    H150930   4.438   3.658  15.416  0.6780 -0.3936  0.9208
 9813TIP3    H250931   4.470   3.524  15.352  0.5344 -0.5046  1.0824
 9814TIP3   OH250932   3.049   3.336   2.132  1.1096 -0.0069 -0.6754
 9814TIP3    H150933   3.002   3.287   2.199  3.8480 -0.4492  1.0735
 9814TIP3    H250934   3.105   3.396   2.180  1.9597  0.8714 -2.6376
 9815TIP3   OH250935   5.460   6.417   4.834 -0.1053 -0.5278 -0.2332
 9815TIP3    H150936   5.503   6.334   4.812 -0.8386 -0.8679 -0.4169
 9815TIP3    H250937   5.523   6.463   4.889  0.6793 -0.8142 -0.8753
 9816TIP3   OH250938   0.496   4.955  15.283 -0.7890 -0.6872  0.1530
 9816TIP3    H150939   0.407   4.923  15.267 -2.2267  2.0025  2.0401
 9816TIP3    H250940   0.505   4.955  15.378  1.4378 -1.2678 -0.0081
 9817TIP3   OH250941   3.101   1.619  16.974  0.6048  0.0462  0.7684
 9817TIP3    H150942   3.185   1.582  16.947  0.6503  0.9759 -0.4637
 9817TIP3    H250943   3.077   1.678  16.903 -0.3988  0.9051  1.7861
 9818TIP3   OH250944   1.578   0.431   1.293 -0.0715  0.6030 -0.1054
 9818TIP3    H150945   1.583   0.348   1.246  0.1507 -0.4979  1.7591
 9818TIP3    H250946   1.562   0.496   1.225 -0.7404 -1.0137 -1.5730
 9819TIP3   OH250947   5.226   5.393  14.850  0.3350  0.4807  0.1034
 9819TIP3    H150948   5.277   5.469  14.878 -0.5169  0.8349  0.7364
 9819TIP3    H250949   5.203   5.348  14.932  0.3359 -0.1343 -0.2264
 9820TIP3   OH250950   6.441   0.057  16.441  0.4739 -0.4493 -0.4683
 9820TIP3    H150951   6.395   0.010  16.372 -1.6745 -0.0587  0.6188
 9820TIP3    H250952   6.406   0.021  16.522  0.2932  1.5749  0.3966
 9821TIP3   OH250953   4.922   1.542   5.465 -0.4903 -0.3122  0.0274
 9821TIP3    H150954   5.018   1.545   5.474 -0.5247 -0.6919  0.5963
 9821TIP3    H250955   4.896   1.634   5.457  0.0040 -0.2565 -1.1565
 9822TIP3   OH250956   4.766   3.660   3.410 -0.0693 -0.3965 -0.0687
 9822TIP3    H150957   4.832   3.720   3.443  0.1525 -1.3523  1.3369
 9822TIP3    H250958   4.689   3.676   3.465 -0.1393 -1.1054  0.0465
 9823TIP3   OH250959   5.593   4.727  15.626 -0.2516 -0.1332  0.1280
 9823TIP3    H150960   5.499   4.728  15.607 -0.5800  1.7549  1.4775
 9823TIP3    H250961   5.621   4.817  15.607  1.5862 -0.9760 -1.4152
 9824TIP3   OH250962   4.342   3.513  13.029 -0.1604  0.6507  0.1230
 9824TIP3    H150963   4.310   3.459  13.101 -0.2725 -0.3674 -0.6810
 9824TIP3    H250964   4.270   3.575  13.013 -1.2016 -0.7595 -0.7832
 9825TIP3   OH250965   1.315   4.163  13.853  0.5023 -0.1443  0.0076
 9825TIP3    H150966   1.237   4.144  13.800 -0.8820  1.1263  1.4776
 9825TIP3    H250967   1.283   4.162  13.943  1.3511  3.7242  0.5163
 9826TIP3   OH250968   4.039   3.833  10.784  0.1748  0.1105  0.2553
 9826TIP3    H150969   4.067   3.805  10.696 -0.5106 -0.3457  0.1722
 9826TIP3    H250970   4.036   3.928  10.779 -0.6288  0.0633 -0.4773
 9827TIP3   OH250971   3.484   6.322  11.845 -0.2151 -0.0373 -0.2022
 9827TIP3    H150972   3.515   6.367  11.766 -1.3436  0.6316 -0.2908
 9827TIP3    H250973   3.554   6.334  11.908  0.3092  0.2264 -0.8212
 9828TIP3   OH250974   3.023   6.430   1.574 -0.8441 -0.2934  0.5914
 9828TIP3    H150975   3.031   6.512   1.525 -0.9177  1.0370  2.6613
 9828TIP3    H250976   3.114   6.402   1.589 -0.8266 -0.8470 -0.4862
 9829TIP3   OH250977   1.059   5.370  16.036  0.6108  0.3903  0.3605
 9829TIP3    H150978   0.990   5.343  15.976  1.5883  2.2833 -1.7572
 9829TIP3    H250979   1.138   5.326  16.004  0.6205 -1.2132  2.3443
 9830TIP3   OH250980   1.014   0.420  12.265 -0.4053  0.2517  0.3081
 9830TIP3    H150981   0.965   0.351  12.310 -0.3110 -0.3036 -0.4212
 9830TIP3    H250982   1.079   0.373  12.213  2.9555  1.0194  3.4361
 9831TIP3   OH250983   0.624   3.421  15.641  0.0729  0.3400  0.6106
 9831TIP3    H150984   0.634   3.361  15.715 -2.0317  2.0338  2.3800
 9831TIP3    H250985   0.680   3.495  15.662  1.6218 -0.3175 -0.9222
 9832TIP3   OH250986   1.024   0.742  10.974 -0.5103 -0.0149  0.0163
 9832TIP3    H150987   1.095   0.777  10.920  0.8848  3.2212  3.4398
 9832TIP3    H250988   0.952   0.804  10.961 -0.6997 -0.1023  0.6140
 9833TIP3   OH250989   0.627   5.000   1.563  0.1058  1.0356 -0.2687
 9833TIP3    H150990   0.605   5.068   1.500  0.6133  0.6006 -0.9330
 9833TIP3    H250991   0.716   4.974   1.539 -0.8337 -1.3834 -1.4351
 9834TIP3   OH250992   0.268   1.515  11.828  0.2516 -0.1100 -0.3185
 9834TIP3    H150993   0.217   1.481  11.754  1.5591 -0.8178 -0.9248
 9834TIP3    H250994   0.349   1.464  11.827  0.6082  0.3726  1.1679
 9835TIP3   OH250995   1.638   2.588   3.857  0.2445 -0.0464  0.0711
 9835TIP3    H150996   1.709   2.652   3.849 -1.0684  1.4914  0.2118
 9835TIP3    H250997   1.671   2.524   3.920  1.2930  0.9216  0.5551
 9836TIP3   OH250998   4.591   0.850   4.385 -0.2985 -0.4402 -0.3848
 9836TIP3    H150999   4.524   0.911   4.353 -0.6734  0.2318  1.5636
 9836TIP3    H251000   4.575   0.844   4.479  1.0207 -1.9913 -0.2166
 9837TIP3   OH251001   5.637   4.526  12.662 -0.1832 -0.1041  1.2503
 9837TIP3    H151002   5.547   4.496  12.645 -0.0172 -0.4844  1.0307
 9837TIP3    H251003   5.677   4.532  12.575  0.6803 -2.0920  1.4658
 9838TIP3   OH251004   3.311   5.402  11.315  0.3445 -0.3794 -0.0765
 9838TIP3    H151005   3.387   5.366  11.361  0.3823  0.0593  0.2146
 9838TIP3    H251006   3.263   5.325  11.284 -0.1308 -0.7299  1.4309
 9839TIP3   OH251007   6.228   5.907   4.307  0.0016  0.5222 -0.1904
 9839TIP3    H151008   6.202   5.937   4.220 -0.8853  1.2159  0.2987
 9839TIP3    H251009   6.165   5.839   4.329  2.2075 -2.1356 -1.4413
 9840TIP3   OH251010   2.947   6.780   0.871  0.2719 -0.1971 -0.8373
 9840TIP3    H151011   2.986   6.787   0.784  0.9566  0.7276 -0.4637
 9840TIP3    H251012   2.931   6.870   0.899 -0.7428 -0.5062 -0.3472
 9841TIP3   OH251013   3.009   0.342  16.365 -0.1253 -0.5726 -0.2819
 9841TIP3    H151014   2.960   0.300  16.436  2.1388 -0.3207  1.5426
 9841TIP3    H251015   2.941   0.377  16.307 -2.0964 -0.7232  1.7831
 9842TIP3   OH251016   1.297   2.784  16.135  0.1603  0.2034  0.1276
 9842TIP3    H151017   1.278   2.837  16.058 -1.4025 -0.2808  0.1311
 9842TIP3    H251018   1.293   2.694  16.103  1.8864  0.0255  0.3108
 9843TIP3   OH251019   4.573   3.257   4.414 -0.0508 -0.4915 -0.2333
 9843TIP3    H151020   4.538   3.191   4.354 -1.0325  1.7331 -2.2698
 9843TIP3    H251021   4.499   3.280   4.471  0.4736 -1.5598  0.9156
 9844TIP3   OH251022   4.462   3.537   4.704  0.3015  0.6544 -0.7018
 9844TIP3    H151023   4.468   3.461   4.761 -0.9207 -0.2921 -1.7733
 9844TIP3    H251024   4.371   3.565   4.710  0.9429  2.7892  0.5395
 9845TIP3   OH251025   3.236   2.869  11.132 -0.8777 -0.4260 -0.0059
 9845TIP3    H151026   3.249   2.780  11.101 -1.4283 -0.5049 -0.0236
 9845TIP3    H251027   3.142   2.884  11.125 -0.8786 -0.0783  0.6201
 9846TIP3   OH251028   4.838   1.273   5.009  0.2583 -0.3399  0.2640
 9846TIP3    H151029   4.835   1.214   5.084  1.9659  0.5980  1.1393
 9846TIP3    H251030   4.916   1.246   4.961 -0.9767 -1.1104 -1.3733
 9847TIP3   OH251031   3.024   0.144  14.136 -0.1187 -0.3381 -0.4607
 9847TIP3    H151032   2.988   0.202  14.203 -0.1083 -0.5676 -0.2522
 9847TIP3    H251033   3.118   0.163  14.137 -0.0339 -0.7735  0.0197
 9848TIP3   OH251034   4.638   5.295   2.472 -0.7532 -0.2601  0.2587
 9848TIP3    H151035   4.615   5.300   2.565 -0.9881 -0.5549  0.2215
 9848TIP3    H251036   4.733   5.306   2.469 -0.9524  1.9136  0.3427
 9849TIP3   OH251037   4.650   3.126   2.158  0.3025  0.2477  0.3393
 9849TIP3    H151038   4.681   3.213   2.131  0.3661  0.3724  0.8065
 9849TIP3    H251039   4.628   3.082   2.076  1.1185  0.3853  0.0380
 9850TIP3   OH251040   1.089   4.618  14.684  0.4467 -0.7660 -0.1238
 9850TIP3    H151041   1.020   4.629  14.619  0.2049  2.1451  0.4918
 9850TIP3    H251042   1.169   4.610  14.633  0.0000 -1.1586 -0.7865
 9851TIP3   OH251043   4.291   0.030   0.790  0.3081  0.0981 -0.0005
 9851TIP3    H151044   4.342  -0.045   0.761  0.7152 -0.7368  2.6092
 9851TIP3    H251045   4.343   0.106   0.764  0.6192 -0.5466 -1.3656
 9852TIP3   OH251046   1.603   0.724   5.171  0.1627 -0.1114  0.2347
 9852TIP3    H151047   1.597   0.666   5.247  1.8163 -0.3939  0.1869
 9852TIP3    H251048   1.605   0.812   5.208 -0.9974 -0.1363  0.3861
 9853TIP3   OH251049   2.085   1.544  17.115  0.7744  0.0717  0.0141
 9853TIP3    H151050   2.160   1.593  17.081 -0.6652  1.4699 -1.3072
 9853TIP3    H251051   2.018   1.552  17.047  0.0079 -2.6815  0.3251
 9854TIP3   OH251052   0.858   3.513   0.919 -1.1312 -0.6467 -0.3942
 9854TIP3    H151053   0.864   3.430   0.968  0.9524 -0.3629 -0.0563
 9854TIP3    H251054   0.888   3.579   0.981 -0.6317  0.0355 -1.3374
 9855TIP3   OH251055   0.294   5.411   4.330 -0.7841 -0.2113  0.8857
 9855TIP3    H151056   0.375   5.459   4.348  0.1817 -2.2749  2.4079
 9855TIP3    H251057   0.322   5.333   4.283 -2.3447  0.6350 -1.6867
 9856TIP3   OH251058   3.832   2.067   3.191  0.1637 -0.3582  0.2682
 9856TIP3    H151059   3.874   2.032   3.269 -0.9035  2.3991  2.1926
 9856TIP3    H251060   3.890   2.137   3.161  0.2232 -0.9424 -1.1029
 9857TIP3   OH251061   5.734   4.642   3.176 -0.3568  0.0297  0.2849
 9857TIP3    H151062   5.740   4.648   3.271 -0.9191 -0.6080  0.3708
 9857TIP3    H251063   5.666   4.577   3.160  2.2426 -2.7013 -0.5228
 9858TIP3   OH251064   6.456   1.630  14.455  0.8821  0.4693 -0.4065
 9858TIP3    H151065   6.505   1.712  14.463  1.1204  0.2594  0.3686
 9858TIP3    H251066   6.445   1.618  14.360  0.8059  1.4127 -0.5309
 9859TIP3   OH251067   4.198   1.820   6.284  0.2443  0.3343 -0.3387
 9859TIP3    H151068   4.209   1.849   6.375 -0.8094 -0.9130  0.2229
 9859TIP3    H251069   4.128   1.876   6.249  0.4641  0.6333 -0.3040
 9860TIP3   OH251070   0.930   4.950   1.957 -0.2310 -0.0273 -0.0120
 9860TIP3    H151071   0.876   4.935   2.034  0.0971 -1.2806 -0.0009
 9860TIP3    H251072   0.876   5.004   1.900 -1.8604 -1.8779 -0.3387
 9861TIP3   OH251073   2.644   5.216  11.802 -0.7930 -0.4702  0.1105
 9861TIP3    H151074   2.739   5.225  11.789 -0.9650 -1.1273 -2.1163
 9861TIP3    H251075   2.636   5.162  11.881  0.6349  0.4767  0.9568
 9862TIP3   OH251076   0.061   2.519   4.914  0.1707 -0.6556 -0.3228
 9862TIP3    H151077  -0.010   2.579   4.937 -0.9225 -1.0571 -2.4329
 9862TIP3    H251078   0.112   2.565   4.848 -0.4757 -1.8431 -1.7108
 9863TIP3   OH251079   2.832   3.013   3.045  0.2540 -0.3766 -0.5803
 9863TIP3    H151080   2.771   2.941   3.032  1.5119 -1.0353 -3.5867
 9863TIP3    H251081   2.791   3.088   3.001  0.2987 -0.0135 -0.0216
 9864TIP3   OH251082   5.062   4.279  13.702 -0.0911 -0.0256  0.3049
 9864TIP3    H151083   5.052   4.356  13.646 -1.7993  0.2738  0.9625
 9864TIP3    H251084   5.046   4.205  13.643  3.1976 -0.0573 -0.7171
 9865TIP3   OH251085   1.289   3.797   1.576 -0.4874 -0.3287  0.1643
 9865TIP3    H151086   1.274   3.719   1.630  1.7260 -0.0920  1.2433
 9865TIP3    H251087   1.285   3.870   1.638 -1.0193  0.2708 -0.5662
 9866TIP3   OH251088   4.513   1.801  11.143 -0.9225  0.5353 -0.1646
 9866TIP3    H151089   4.602   1.819  11.172 -1.0350  0.8418 -0.0050
 9866TIP3    H251090   4.519   1.717  11.096 -0.5010  0.7061 -0.4165
 9867TIP3   OH251091   4.201   1.144   4.914  0.5997  0.2224 -0.2281
 9867TIP3    H151092   4.274   1.205   4.911  0.6973  0.1267  0.2314
 9867TIP3    H251093   4.219   1.087   4.988  0.1623  0.0688 -0.2340
 9868TIP3   OH251094   1.237   0.988   0.900 -0.2586 -0.4504 -0.2052
 9868TIP3    H151095   1.162   0.944   0.859 -0.0491 -1.2259  0.2402
 9868TIP3    H251096   1.259   0.934   0.976 -1.7484  1.8415  2.0262
 9869TIP3   OH251097   2.633   2.073   0.286  0.1168  0.4727 -0.5757
 9869TIP3    H151098   2.701   2.111   0.230  0.1127  1.6847  0.1956
 9869TIP3    H251099   2.563   2.138   0.287  0.0918  0.4692  0.7555
 9870TIP3   OH251100   5.611   4.967   1.529 -0.2463 -0.4604  0.0470
 9870TIP3    H151101   5.521   4.990   1.508 -0.5397 -2.7958 -1.6659
 9870TIP3    H251102   5.603   4.889   1.585  0.7126 -0.3201  0.3973
 9871TIP3   OH251103   5.832   6.558  16.689 -0.4792 -0.1511  0.1868
 9871TIP3    H151104   5.758   6.505  16.718 -0.5216 -0.7942 -1.0022
 9871TIP3    H251105   5.885   6.497  16.637 -0.2981  0.8625 -0.8412
 9872TIP3   OH251106   4.364   4.636  13.546  0.9035  0.0350 -0.2987
 9872TIP3    H151107   4.455   4.617  13.568  1.4700  0.9552 -1.6872
 9872TIP3    H251108   4.345   4.719  13.591  1.1910  0.5239 -1.0651
 9873TIP3   OH251109   6.068   1.170  15.859 -0.3217  0.4521 -0.2167
 9873TIP3    H151110   6.091   1.121  15.938  1.7739  2.7069  0.7011
 9873TIP3    H251111   6.152   1.185  15.815 -1.2858  0.4892 -2.1372
 9874TIP3   OH251112   5.726   1.237   4.674 -0.3897 -0.1178  0.5824
 9874TIP3    H151113   5.810   1.278   4.697 -0.4213  0.3734 -0.1376
 9874TIP3    H251114   5.660   1.297   4.708 -0.4550 -0.4748  1.0957
 9875TIP3   OH251115   1.360   5.238   4.329 -0.5304  0.2449  0.1092
 9875TIP3    H151116   1.443   5.283   4.343 -0.3747 -0.4158  1.5478
 9875TIP3    H251117   1.294   5.301   4.358 -0.3897  0.0189  0.9487
 9876TIP3   OH251118   6.312   1.096   4.660  0.3486 -0.1613  0.0494
 9876TIP3    H151119   6.348   1.015   4.696  0.7083 -0.3374 -0.6659
 9876TIP3    H251120   6.233   1.113   4.710  0.6046 -0.6245  0.6126
 9877TIP3   OH251121   4.046   5.010   5.578 -0.0071  0.1266  0.1851
 9877TIP3    H151122   4.017   5.056   5.657  1.5026  0.4557  0.5776
 9877TIP3    H251123   3.978   5.028   5.513 -0.1444  1.7333  0.7428
 9878TIP3   OH251124   4.449   3.248  12.341  0.0304 -0.0559  0.3109
 9878TIP3    H151125   4.409   3.277  12.423  2.4956  0.6070  1.3545
 9878TIP3    H251126   4.498   3.325  12.310 -0.2082 -0.5439 -1.3969
 9879TIP3   OH251127   6.537   3.562  15.498  0.2529 -0.1083 -1.1035
 9879TIP3    H151128   6.593   3.535  15.570  0.6101 -0.4139 -1.4927
 9879TIP3    H251129   6.594   3.613  15.440 -0.6586  2.5616  0.1843
 9880TIP3   OH251130   4.293   6.805   4.961 -0.1944  0.0455 -0.4903
 9880TIP3    H151131   4.268   6.861   5.035  0.3300 -1.7159  1.1085
 9880TIP3    H251132   4.342   6.862   4.903  0.3367  1.2669  1.0826
 9881TIP3   OH251133   3.458   4.430  13.290  0.2192 -0.5645  0.6650
 9881TIP3    H151134   3.534   4.401  13.240  0.6231 -1.9939  2.0070
 9881TIP3    H251135   3.395   4.359  13.280 -1.7911  1.4044 -1.9720
 9882TIP3   OH251136   5.198   0.007   0.270 -0.6377 -0.2632  0.3027
 9882TIP3    H151137   5.261   0.077   0.284 -0.7680 -0.2153  0.6572
 9882TIP3    H251138   5.191  -0.037   0.355  1.4022 -2.3743 -0.5181
 9883TIP3   OH251139   1.311   5.166   3.689 -0.6932 -0.2732 -0.3899
 9883TIP3    H151140   1.249   5.115   3.741  0.4752 -1.9361 -0.5637
 9883TIP3    H251141   1.307   5.127   3.602 -1.2510  1.2812 -1.1002
 9884TIP3   OH251142   3.865   3.343  12.205  0.1315 -0.2767 -0.3420
 9884TIP3    H151143   3.880   3.335  12.111  0.3064  0.7668 -0.4215
 9884TIP3    H251144   3.845   3.436  12.218 -2.0057 -0.7609  0.3561
 9885TIP3   OH251145   3.067   3.998   3.899  0.2463  0.6358  0.2173
 9885TIP3    H151146   3.088   3.976   3.990  0.0858  1.3757  0.4428
 9885TIP3    H251147   3.135   3.955   3.847  0.5943  0.5661  0.7225
 9886TIP3   OH251148   3.222   2.063  15.258  0.7807  0.0403 -0.0419
 9886TIP3    H151149   3.267   2.143  15.287  3.7625 -1.5083 -0.0534
 9886TIP3    H251150   3.259   2.045  15.172 -0.7034 -0.7529 -0.5381
 9887TIP3   OH251151   3.492   5.923   0.348  0.5087 -0.1547 -0.5179
 9887TIP3    H151152   3.510   5.967   0.431  3.2844 -0.0938 -1.0604
 9887TIP3    H251153   3.406   5.955   0.322 -0.0691  0.4592  1.8998
 9888TIP3   OH251154   4.233   3.364   5.375  0.4970 -0.6758  0.0883
 9888TIP3    H151155   4.147   3.371   5.335  0.9509 -0.5100 -0.8953
 9888TIP3    H251156   4.251   3.453   5.408  1.1246 -0.1596 -1.5271
 9889TIP3   OH251157   4.728   0.716   6.467 -0.2052 -0.2747  0.6505
 9889TIP3    H151158   4.702   0.770   6.541  1.6379  0.2693  0.9438
 9889TIP3    H251159   4.795   0.767   6.422 -0.0794 -1.3361 -0.4164
 9890TIP3   OH251160   0.793   0.366   0.993  0.2065  0.2273  0.0730
 9890TIP3    H151161   0.849   0.305   0.945  0.2738  0.9526 -0.7948
 9890TIP3    H251162   0.829   0.367   1.082  1.5886  0.6917 -0.4630
 9891TIP3   OH251163   0.787   2.326   5.471 -0.2573  0.3652  0.0565
 9891TIP3    H151164   0.749   2.403   5.514 -1.0266  0.0022  0.0415
 9891TIP3    H251165   0.875   2.318   5.508  0.4228  2.1433 -1.0527
 9892TIP3   OH251166   3.817   3.542  13.981 -0.1352 -0.0889  0.0007
 9892TIP3    H151167   3.808   3.550  13.886  2.5679  0.4563 -0.2997
 9892TIP3    H251168   3.770   3.462  14.003 -1.7513  0.3517 -1.6038
 9893TIP3   OH251169   3.651   0.469  16.974  0.5429  0.1377  0.1883
 9893TIP3    H151170   3.624   0.466  16.882 -0.8513  0.2121  0.5823
 9893TIP3    H251171   3.634   0.559  17.001 -0.2613 -0.2013  0.8623
 9894TIP3   OH251172   2.166   1.770   0.589  0.0462  0.5854 -0.1075
 9894TIP3    H151173   2.081   1.726   0.587  0.3691 -0.0975  0.5816
 9894TIP3    H251174   2.145   1.862   0.577 -0.8081  0.4423  0.1626
 9895TIP3   OH251175   4.705   2.788   4.016  0.3338  0.1676  0.1180
 9895TIP3    H151176   4.610   2.796   4.021  0.2534 -0.9335  0.6829
 9895TIP3    H251177   4.738   2.876   4.032 -0.5708  0.4058  0.7196
 9896TIP3   OH251178   1.893   3.071   0.873  0.5129 -0.3084 -0.7138
 9896TIP3    H151179   1.943   3.104   0.799  0.7257 -1.6756 -1.2109
 9896TIP3    H251180   1.928   3.119   0.949  1.6647 -0.2950 -1.2282
 9897TIP3   OH251181   2.399   5.061   3.922 -0.4256 -0.0170  0.8164
 9897TIP3    H151182   2.402   4.977   3.967  0.8913 -1.9537 -2.5433
 9897TIP3    H251183   2.488   5.096   3.931 -0.3298 -0.1175  0.2997
 9898TIP3   OH251184   4.487   5.162  13.140  0.3167 -0.2071 -0.7663
 9898TIP3    H151185   4.460   5.202  13.222  1.2043  0.2420 -0.6786
 9898TIP3    H251186   4.416   5.182  13.079  0.3780  0.8305 -0.5162
 9899TIP3   OH251187   2.662   3.985   2.377  0.1298  0.3877 -0.7664
 9899TIP3    H151188   2.714   3.915   2.339 -1.9681 -0.8728 -1.4804
 9899TIP3    H251189   2.606   4.016   2.305 -1.6882  0.1080  0.4425
 9900TIP3   OH251190   4.700   5.960  15.401  0.4179 -0.5833 -0.2444
 9900TIP3    H151191   4.681   6.053  15.411 -3.5468 -1.2182 -0.0617
 9900TIP3    H251192   4.786   5.948  15.442  0.2247  2.6490  1.4321
 9901TIP3   OH251193   2.960   5.656   3.629 -0.3776 -1.2853  0.5759
 9901TIP3    H151194   2.925   5.602   3.559 -0.9222  0.1156 -0.2599
 9901TIP3    H251195   2.886   5.707   3.661  0.3305 -0.2216  0.5871
 9902TIP3   OH251196   5.884   0.986   1.064  0.4102  0.4096 -0.3282
 9902TIP3    H151197   5.954   0.934   1.104 -1.4002 -0.5486  1.8511
 9902TIP3    H251198   5.858   0.937   0.986  0.6835 -0.3955  0.0819
 9903TIP3   OH251199   2.648   1.791  14.840 -0.7838 -0.4636 -0.1696
 9903TIP3    H151200   2.631   1.803  14.747  1.0894 -2.2437 -0.8271
 9903TIP3    H251201   2.742   1.809  14.850 -0.4622 -2.4594  0.9140
 9904TIP3   OH251202   6.568   5.828  12.373  0.3315  0.5816 -0.0564
 9904TIP3    H151203   6.619   5.872  12.305 -0.0141  0.4061 -0.4306
 9904TIP3    H251204   6.489   5.880  12.381  0.3268  0.5442  0.1437
 9905TIP3   OH251205   5.634   0.263  17.090  0.3653 -0.1260  0.0442
 9905TIP3    H151206   5.668   0.174  17.100  2.0288  0.6491  2.0511
 9905TIP3    H251207   5.681   0.298  17.014  1.0893 -0.3680  0.3731
 9906TIP3   OH251208   5.542   1.257  16.771  0.5546 -0.1311 -0.2960
 9906TIP3    H151209   5.467   1.198  16.767  0.6070 -0.1413 -2.0700
 9906TIP3    H251210   5.569   1.256  16.863 -1.8944  0.2659  0.4886
 9907TIP3   OH251211   4.063   2.766  12.464 -0.0489 -0.3795  0.3517
 9907TIP3    H151212   4.088   2.763  12.372 -0.5264  0.0976  0.1992
 9907TIP3    H251213   4.012   2.846  12.472  0.0489 -0.3796  1.0500
 9908TIP3   OH251214   6.216   4.019  14.764  0.6226  0.1691 -0.1001
 9908TIP3    H151215   6.161   4.085  14.722 -0.0152 -0.3934 -0.1729
 9908TIP3    H251216   6.286   4.069  14.806 -1.1460  1.1137  1.8948
 9909TIP3   OH251217   5.371   2.820   4.979 -0.0704  0.3026  0.0980
 9909TIP3    H151218   5.397   2.814   4.888  0.9317  2.1329  0.2119
 9909TIP3    H251219   5.433   2.763   5.026  1.1076  1.3808 -0.1038
 9910TIP3   OH251220   0.706   3.310   1.019 -0.5463  0.1474  0.1646
 9910TIP3    H151221   0.638   3.280   0.959 -1.4542 -0.6597  1.5602
 9910TIP3    H251222   0.659   3.347   1.093  0.5271 -0.0147  0.9595
 9911TIP3   OH251223   6.393   5.662  11.754 -0.0375 -0.0212 -0.0394
 9911TIP3    H151224   6.367   5.707  11.673 -2.5736 -1.3527 -0.0879
 9911TIP3    H251225   6.474   5.618  11.731 -1.7020 -2.0781 -2.6885
 9912TIP3   OH251226   2.415   0.451  11.735 -0.4774 -0.4656 -0.5252
 9912TIP3    H151227   2.321   0.470  11.730  0.0846  2.6234 -1.2803
 9912TIP3    H251228   2.458   0.530  11.703  2.4872 -0.7468  2.2077
 9913TIP3   OH251229   4.587   3.492   1.080 -0.6172 -0.2689  0.2025
 9913TIP3    H151230   4.594   3.397   1.092 -1.0575 -0.3997 -0.5465
 9913TIP3    H251231   4.500   3.506   1.044 -1.0475  0.5503  1.4825
 9914TIP3   OH251232   5.172   1.481   3.710  0.3365 -0.5740  0.1994
 9914TIP3    H151233   5.141   1.508   3.796 -0.3422  0.6776 -0.3977
 9914TIP3    H251234   5.184   1.563   3.662  0.5773 -1.2396 -0.9294
 9915TIP3   OH251235   3.346   5.595   0.301 -0.0623 -0.5554 -0.0407
 9915TIP3    H151236   3.379   5.563   0.385  1.2230  1.6905  0.3818
 9915TIP3    H251237   3.386   5.681   0.290  0.3609 -1.0434 -3.3018
 9916TIP3   OH251238   0.134   2.729   2.446 -0.1357 -0.9688  0.2773
 9916TIP3    H151239   0.110   2.815   2.480 -0.8358 -1.3931  0.8922
 9916TIP3    H251240   0.230   2.729   2.445 -0.1176  0.3086 -1.0270
 9917TIP3   OH251241   1.619   0.422   6.472  0.2514  0.0878 -0.0744
 9917TIP3    H151242   1.576   0.494   6.425  1.4776 -0.3123 -1.9216
 9917TIP3    H251243   1.549   0.359   6.488 -0.1428  0.0317 -1.8180
 9918TIP3   OH251244   5.340   4.942  16.319 -0.4289 -0.2211 -0.1548
 9918TIP3    H151245   5.332   4.847  16.328  1.7705 -0.6056 -1.4132
 9918TIP3    H251246   5.368   4.972  16.405 -1.7321 -0.5984  0.4221
 9919TIP3   OH251247   1.069   2.943  14.898 -0.3881  0.0392  0.0344
 9919TIP3    H151248   0.980   2.973  14.912  0.0124  0.5374  1.7336
 9919TIP3    H251249   1.078   2.866  14.953  0.1770 -0.1066 -0.2526
 9920TIP3   OH251250   3.482   1.662  12.823 -0.0558 -0.3507 -0.5980
 9920TIP3    H151251   3.472   1.740  12.769 -1.1937 -0.4134 -0.4894
 9920TIP3    H251252   3.555   1.682  12.881 -0.5136  0.7475 -0.3814
 9921TIP3   OH251253   1.383   5.414   6.017 -0.4083 -0.2236 -0.5328
 9921TIP3    H151254   1.349   5.502   6.029 -0.1476 -0.3385  1.3140
 9921TIP3    H251255   1.474   5.427   5.989 -0.1827  0.1175  0.3293
 9922TIP3   OH251256   2.399   2.372  12.085 -0.3049 -0.6117  0.1621
 9922TIP3    H151257   2.413   2.402  11.996 -1.6285  0.6277  0.3441
 9922TIP3    H251258   2.467   2.415  12.137 -1.4314  1.1653  0.2223
 9923TIP3   OH251259   5.823   5.131  14.272  0.1856 -0.4171 -0.1534
 9923TIP3    H151260   5.791   5.110  14.184 -2.7953  2.3064  0.0965
 9923TIP3    H251261   5.749   5.114  14.330  0.7123  1.5953  1.2458
 9924TIP3   OH251262   2.220   4.689  10.429 -0.1166  0.1362  0.5312
 9924TIP3    H151263   2.262   4.607  10.402 -0.4435  0.4328 -0.9773
 9924TIP3    H251264   2.127   4.676  10.409 -0.4033  0.3558  1.6487
 9925TIP3   OH251265   3.977   6.832  16.076 -0.3809  0.0724  0.3048
 9925TIP3    H151266   3.931   6.748  16.078  0.1375 -0.2123  2.0537
 9925TIP3    H251267   4.049   6.820  16.138 -1.4275  2.4403  2.1066
 9926TIP3   OH251268   4.288   1.137   5.395 -0.6702 -0.1747  0.1899
 9926TIP3    H151269   4.269   1.208   5.456 -0.4621 -2.2255  2.7636
 9926TIP3    H251270   4.213   1.079   5.401 -0.2725 -0.8389 -0.9269
 9927TIP3   OH251271   0.011   3.867   4.839  0.3879 -0.5736  0.4068
 9927TIP3    H151272  -0.041   3.935   4.797  0.8131 -0.6789 -0.3110
 9927TIP3    H251273   0.020   3.896   4.930  2.4266  1.5144 -0.3551
 9928TIP3   OH251274   4.350   2.231  17.114  0.1922 -0.5071 -0.3306
 9928TIP3    H151275   4.259   2.248  17.089  0.7826  1.3900 -1.4199
 9928TIP3    H251276   4.362   2.280  17.195  0.0330 -1.4775  0.2985
 9929TIP3   OH251277   1.519   1.591   3.606  0.0185 -0.2547 -0.1684
 9929TIP3    H151278   1.449   1.551   3.554  0.3550 -1.2945  0.1509
 9929TIP3    H251279   1.494   1.576   3.697  1.6917 -2.6811  0.0019
 9930TIP3   OH251280   6.386   4.211  14.879  0.7432 -0.8880  0.2424
 9930TIP3    H151281   6.459   4.223  14.940  1.6870 -2.1096 -0.6063
 9930TIP3    H251282   6.309   4.203  14.936  1.4639 -1.0506  1.2265
 9931TIP3   OH251283   2.516   2.477  15.209 -0.1753  0.1598  0.0899
 9931TIP3    H151284   2.577   2.550  15.199 -0.0449  0.1085  0.5200
 9931TIP3    H251285   2.509   2.440  15.121  0.2004  0.3364 -0.0154
 9932TIP3   OH251286   0.014   2.981   3.511  0.5008  0.1248  0.1449
 9932TIP3    H151287   0.032   2.919   3.582  1.4483  0.9149  0.6330
 9932TIP3    H251288  -0.073   3.016   3.531  0.7655  0.3533  0.9578
 9933TIP3   OH251289   2.911   1.810   0.669  0.3613  0.1870 -0.2659
 9933TIP3    H151290   2.825   1.825   0.707  0.5164  0.2301  0.0826
 9933TIP3    H251291   2.924   1.882   0.607  0.0549  0.0518 -0.4850
 9934TIP3   OH251292   0.215   4.835   4.863  0.0888 -0.4288 -0.1192
 9934TIP3    H151293   0.198   4.924   4.895 -1.2067 -0.7196  0.0761
 9934TIP3    H251294   0.138   4.814   4.810 -0.6644 -2.2275  1.5936
 9935TIP3   OH251295   1.166   6.408   0.644  0.4344 -0.0465 -0.2523
 9935TIP3    H151296   1.218   6.471   0.594  0.5492  0.3730  0.3795
 9935TIP3    H251297   1.230   6.362   0.699  0.3005 -0.4392 -0.4229
 9936TIP3   OH251298   1.914   2.033   5.169 -0.3443 -0.4379  0.0245
 9936TIP3    H151299   1.915   2.005   5.077  0.2830 -1.1481  0.2350
 9936TIP3    H251300   1.923   1.952   5.218 -0.9200 -0.0842  0.7305
 9937TIP3   OH251301   1.762   0.235   5.407  0.3658 -0.3501  0.6979
 9937TIP3    H151302   1.816   0.248   5.484 -0.6278 -0.9166  1.5195
 9937TIP3    H251303   1.763   0.140   5.392  0.6954 -0.2324 -0.1021
 9938TIP3   OH251304   6.771   4.751  16.183  0.3463  0.3627  0.5201
 9938TIP3    H151305   6.852   4.722  16.142  1.4338  0.9293  2.1515
 9938TIP3    H251306   6.773   4.712  16.271 -0.0866  2.0376  1.3249
 9939TIP3   OH251307   2.805   4.968   5.864 -0.2647  0.2080 -0.1567
 9939TIP3    H151308   2.892   4.929   5.874 -1.2494 -2.0239  0.4926
 9939TIP3    H251309   2.775   4.983   5.953 -1.6250 -1.8302 -0.1854
 9940TIP3   OH251310   0.606   0.430  14.918  0.3565  0.2596 -0.0758
 9940TIP3    H151311   0.533   0.464  14.970  0.6640  1.3130 -0.3099
 9940TIP3    H251312   0.684   0.468  14.959  0.8196 -1.0912  0.3630
 9941TIP3   OH251313   5.259   4.877   4.057  0.1782  0.0431  0.0400
 9941TIP3    H151314   5.272   4.970   4.043 -0.1093  0.0343 -0.2966
 9941TIP3    H251315   5.236   4.842   3.971 -0.6146 -0.1782  0.3296
 9942TIP3   OH251316   6.639   6.619  12.846  0.1768  0.1417  0.1826
 9942TIP3    H151317   6.706   6.660  12.900 -2.0124  2.0165  1.6511
 9942TIP3    H251318   6.601   6.551  12.902  0.5515 -0.6444 -0.4966
 9943TIP3   OH251319   5.193   2.159   1.739 -0.0551 -0.1740 -0.1699
 9943TIP3    H151320   5.223   2.244   1.709  1.5791 -0.9162 -0.7665
 9943TIP3    H251321   5.133   2.129   1.671 -1.5693  0.9413  0.5989
 9944TIP3   OH251322   1.875   0.538  14.980  0.2071 -0.1636 -0.7467
 9944TIP3    H151323   1.849   0.577  14.897  0.4214  0.4247 -0.5400
 9944TIP3    H251324   1.796   0.544  15.035 -0.4869 -2.0885 -1.4264
 9945TIP3   OH251325   6.637   1.431   5.577  0.0124  0.4844  0.0397
 9945TIP3    H151326   6.725   1.412   5.611 -0.4219 -0.0565  0.8948
 9945TIP3    H251327   6.618   1.358   5.518 -0.5586 -0.3571  1.2239
 9946TIP3   OH251328   3.031   5.530  15.726 -0.2526  0.2161  0.3180
 9946TIP3    H151329   3.016   5.549  15.633 -0.4004  1.8357  0.6428
 9946TIP3    H251330   3.121   5.559  15.742  0.4936 -1.9196  0.2497
 9947TIP3   OH251331   6.580   3.337  14.943 -0.3098 -0.0260 -0.1073
 9947TIP3    H151332   6.552   3.247  14.926 -0.4779  0.2514 -1.4797
 9947TIP3    H251333   6.526   3.365  15.017 -0.7370 -0.8364 -0.0941
 9948TIP3   OH251334   2.007   6.064   6.136 -0.1231  0.3854 -0.3276
 9948TIP3    H151335   1.953   6.061   6.214  1.5633 -1.7555  0.8735
 9948TIP3    H251336   2.093   6.092   6.167  0.3899  0.2565 -1.5548
 9949TIP3   OH251337   1.732   5.240  13.938  0.0414 -0.1673 -0.3316
 9949TIP3    H151338   1.638   5.256  13.949 -0.6543 -3.3718 -0.6151
 9949TIP3    H251339   1.744   5.235  13.843  0.3726 -0.4125 -0.2749
 9950TIP3   OH251340   4.086   0.490   2.642 -0.3655  0.0284  1.3007
 9950TIP3    H151341   4.128   0.405   2.628  1.9635  0.6284  3.7383
 9950TIP3    H251342   4.141   0.553   2.596 -1.6266  0.3600  0.1727
 9951TIP3   OH251343   6.301   1.034  11.202 -0.6906  0.3162 -0.0146
 9951TIP3    H151344   6.236   1.067  11.265 -0.5853  1.2110 -0.3661
 9951TIP3    H251345   6.368   0.993  11.257  0.2905  2.6008  0.6227
 9952TIP3   OH251346   4.560   6.668  15.519 -0.4316 -0.0267 -0.5001
 9952TIP3    H151347   4.497   6.726  15.476  0.9249  2.0729  0.2040
 9952TIP3    H251348   4.521   6.651  15.605  0.3651  2.1672  0.3698
 9953TIP3   OH251349   3.097   5.186  13.888 -0.0948 -0.2664  0.2735
 9953TIP3    H151350   3.124   5.097  13.864  1.4061 -0.9151  3.7306
 9953TIP3    H251351   3.177   5.229  13.916 -0.6207  2.6517 -2.1676
 9954TIP3   OH251352   0.630   0.692   1.336  0.4662  0.2033  0.5709
 9954TIP3    H151353   0.722   0.712   1.357  0.9421  0.2409 -1.3879
 9954TIP3    H251354   0.586   0.777   1.341  1.0053  0.5735 -0.5870
 9955TIP3   OH251355   1.780   4.217   6.360 -0.1457  0.4123 -0.3982
 9955TIP3    H151356   1.781   4.307   6.328 -1.0695  1.3417  1.9453
 9955TIP3    H251357   1.872   4.191   6.359  0.3599  2.0080  0.3985
 9956TIP3   OH251358   6.225   2.438   1.472 -0.2699 -0.1492  0.1928
 9956TIP3    H151359   6.249   2.351   1.501  0.4648  0.5106  1.6590
 9956TIP3    H251360   6.269   2.448   1.387  0.1308 -0.9684  0.2939
 9957TIP3   OH251361   4.628   3.742  15.859  0.5099 -0.1292 -0.3538
 9957TIP3    H151362   4.668   3.719  15.775 -0.8202 -1.9424 -0.5790
 9957TIP3    H251363   4.587   3.660  15.888 -0.4388  0.8725  1.2766
 9958TIP3   OH251364   1.286   1.951   1.199 -0.6967  0.4653  0.0419
 9958TIP3    H151365   1.248   1.929   1.284 -1.5258  0.6719 -0.2625
 9958TIP3    H251366   1.211   1.961   1.141 -0.2109  1.4089 -0.4580
 9959TIP3   OH251367   2.505   3.634  12.720 -0.1853  0.0788 -0.3605
 9959TIP3    H151368   2.503   3.689  12.642  0.4089 -1.2601 -1.3354
 9959TIP3    H251369   2.557   3.558  12.696 -2.2174 -1.6829  0.4375
 9960TIP3   OH251370   1.240   1.267   5.246 -0.7365  0.3631 -0.1807
 9960TIP3    H151371   1.149   1.273   5.277  0.2843  0.9782  3.1497
 9960TIP3    H251372   1.245   1.183   5.202 -2.8857  0.2828 -0.3678
 9961TIP3   OH251373   1.845   6.277  10.748  0.8074 -0.2528 -0.6657
 9961TIP3    H151374   1.820   6.187  10.726 -0.7295  0.1463 -0.7054
 9961TIP3    H251375   1.761   6.321  10.766  1.3675  1.6050 -2.2704
 9962TIP3   OH251376   5.939   3.197  16.372 -0.5674  0.0581 -0.1127
 9962TIP3    H151377   5.936   3.253  16.295  0.0849  0.1673 -0.0645
 9962TIP3    H251378   5.979   3.251  16.440 -3.1857  0.7629  0.9964
 9963TIP3   OH251379   3.880   2.784  11.346 -0.0798 -0.3315  0.6730
 9963TIP3    H151380   3.964   2.827  11.363 -0.7839  1.4058 -0.0767
 9963TIP3    H251381   3.859   2.739  11.428  2.0488 -1.6924  0.5552
 9964TIP3   OH251382   5.883   3.357  16.147 -1.0503  0.4240  0.3443
 9964TIP3    H151383   5.949   3.296  16.115 -1.2334 -1.3799  3.0587
 9964TIP3    H251384   5.835   3.384  16.069  1.4654  0.1265 -1.4208
 9965TIP3   OH251385   6.606   5.016  14.023  0.4637 -0.5131 -0.3468
 9965TIP3    H151386   6.542   5.084  14.002 -0.8575 -1.0010  1.7959
 9965TIP3    H251387   6.648   5.046  14.103 -2.7928 -3.6471  2.9459
 9966TIP3   OH251388   6.158   3.314   4.765 -0.2611  0.1108 -0.2474
 9966TIP3    H151389   6.179   3.364   4.686 -0.2045 -0.8770 -0.8784
 9966TIP3    H251390   6.128   3.229   4.732  2.1499 -1.2431  0.8052
 9967TIP3   OH251391   4.050   1.905   4.430  0.2009 -0.5254  0.2427
 9967TIP3    H151392   4.099   1.956   4.366  3.4738 -1.6244  1.6083
 9967TIP3    H251393   4.036   1.965   4.503 -0.3778 -0.2540 -0.0855
 9968TIP3   OH251394   2.573   4.192  11.872  0.1538 -0.4404 -0.1205
 9968TIP3    H151395   2.633   4.184  11.798  1.0996  1.3246  0.4208
 9968TIP3    H251396   2.497   4.238  11.836  0.2867 -0.2527 -0.1574
 9969TIP3   OH251397   3.941   5.664  10.303  0.0680 -0.4638  0.0714
 9969TIP3    H151398   3.852   5.692  10.281  0.5225  0.3750 -0.7924
 9969TIP3    H251399   3.929   5.582  10.350 -1.2577  0.4834  1.5079
 9970TIP3   OH251400   6.187   3.886  12.113 -0.3786  0.4824  0.2511
 9970TIP3    H151401   6.226   3.826  12.177 -1.4967  0.5020  0.9845
 9970TIP3    H251402   6.229   3.864  12.030  0.7360  0.1057  0.8962
 9971TIP3   OH251403   5.389   3.393  16.743  0.0916  0.5179 -0.7588
 9971TIP3    H151404   5.462   3.435  16.789 -0.7684 -0.3644  1.5939
 9971TIP3    H251405   5.426   3.313  16.708  0.1117 -0.5366  1.4574
 9972TIP3   OH251406   4.146   0.111  14.102 -0.2497 -0.7474 -0.0104
 9972TIP3    H151407   4.094   0.148  14.031 -1.5547  0.4726  1.5203
 9972TIP3    H251408   4.234   0.145  14.087 -1.3130  2.9925  1.1625
 9973TIP3   OH251409   6.799   1.636  12.967  0.4287 -0.8533 -0.2779
 9973TIP3    H151410   6.711   1.625  13.001 -0.0116  1.3835 -0.5026
 9973TIP3    H251411   6.803   1.581  12.889 -1.3553  0.2008 -1.1848
 9974TIP3   OH251412   4.404   6.127  13.153 -0.5643 -0.0625 -0.4524
 9974TIP3    H151413   4.437   6.215  13.133  1.0900 -0.8944 -1.6221
 9974TIP3    H251414   4.467   6.068  13.112 -2.3000 -1.7984 -0.7563
 9975TIP3   OH251415   6.451   4.700  13.105 -0.7149 -0.0196 -0.2990
 9975TIP3    H151416   6.490   4.620  13.070  0.1313 -0.6003  1.8151
 9975TIP3    H251417   6.524   4.763  13.108 -0.6553 -0.1163  0.7370
 9976TIP3   OH251418   3.863   0.187   5.225 -0.0697  0.2243 -1.1029
 9976TIP3    H151419   3.941   0.241   5.207 -0.7556  1.5408 -0.2638
 9976TIP3    H251420   3.830   0.164   5.138  0.7136  0.4581 -1.4739
 9977TIP3   OH251421   3.090   4.852  16.380  0.6448  0.1272 -0.0135
 9977TIP3    H151422   3.152   4.832  16.450 -1.7535 -2.8087  1.5377
 9977TIP3    H251423   3.026   4.910  16.421  1.9643  2.8177 -1.4864
 9978TIP3   OH251424   6.541   5.483  16.289 -0.5740 -0.0317 -0.2466
 9978TIP3    H151425   6.609   5.443  16.235 -0.5711 -0.8436  0.3295
 9978TIP3    H251426   6.564   5.575  16.294 -0.5257  0.0435 -1.5535
 9979TIP3   OH251427   5.767   1.251   2.243 -0.2070 -0.0518  0.2997
 9979TIP3    H151428   5.688   1.304   2.239  0.7486  1.3985 -0.1788
 9979TIP3    H251429   5.742   1.167   2.203 -1.6595  0.1252  0.7728
 9980TIP3   OH251430   0.950   0.690   3.037 -0.3895 -0.8102  0.3865
 9980TIP3    H151431   0.873   0.660   2.990 -1.2953 -0.2840  1.4865
 9980TIP3    H251432   0.949   0.640   3.119 -0.5972  0.4831  1.1952
 9981TIP3   OH251433   2.908   1.243   1.835  0.3866 -0.5643  0.4820
 9981TIP3    H151434   2.946   1.252   1.748  1.2406 -1.2084  0.7772
 9981TIP3    H251435   2.852   1.165   1.829  0.5858 -0.7130  0.5597
 9982TIP3   OH251436   3.447   4.288   0.387 -0.0420  0.3417  0.0891
 9982TIP3    H151437   3.524   4.303   0.442 -0.0422  2.2304 -0.3606
 9982TIP3    H251438   3.373   4.320   0.438 -0.2829  0.3300 -0.2436
 9983TIP3   OH251439   3.194   5.185   0.533 -0.4440  0.3798  0.1266
 9983TIP3    H151440   3.125   5.172   0.469 -0.4562  0.3612  0.1437
 9983TIP3    H251441   3.200   5.280   0.543 -1.5362  0.3482  1.2966
 9984TIP3   OH251442   2.994   2.258   5.512 -0.1338 -0.0212  0.1217
 9984TIP3    H151443   3.026   2.323   5.574  2.8760 -0.8349 -0.4328
 9984TIP3    H251444   2.983   2.178   5.564  1.9578 -0.5835 -0.2156
 9985TIP3   OH251445   0.392   4.171  10.243 -0.4665 -0.2356  0.6718
 9985TIP3    H151446   0.411   4.079  10.262  0.7780  0.1638  1.4473
 9985TIP3    H251447   0.470   4.218  10.271 -0.6343  0.9541 -0.7647
 9986TIP3   OH251448   3.099   0.045   3.221 -0.0330  0.3201 -0.6664
 9986TIP3    H151449   3.038   0.017   3.153  0.2185  0.0129 -0.7664
 9986TIP3    H251450   3.177   0.072   3.172  0.8597 -1.6582 -0.4185
 9987TIP3   OH251451   2.145   1.287   3.953  0.1307  0.3382  0.1027
 9987TIP3    H151452   2.173   1.263   3.865 -2.2625 -2.5412 -0.0363
 9987TIP3    H251453   2.050   1.293   3.947 -0.0698  0.3668  2.4098
 9988TIP3   OH251454   1.209   3.551   4.431  0.0561 -0.2498 -0.0777
 9988TIP3    H151455   1.297   3.525   4.402  0.4416 -0.6050  1.3253
 9988TIP3    H251456   1.224   3.629   4.485 -0.2942 -1.1325  1.3399
 9989TIP3   OH251457   0.124   0.254   5.329  0.2950 -0.3000 -0.3779
 9989TIP3    H151458   0.166   0.250   5.414  1.7830 -3.3464 -1.1475
 9989TIP3    H251459   0.033   0.231   5.345  0.5783 -0.8968  0.3834
 9990TIP3   OH251460   1.818   0.867  12.971 -0.1063  0.2763  0.5580
 9990TIP3    H151461   1.751   0.934  12.954 -1.3700 -1.1527 -0.3484
 9990TIP3    H251462   1.769   0.786  12.980  1.4517 -0.6762  0.8178
 9991TIP3   OH251463   5.992   6.493  15.002 -0.3777  0.2789 -0.0126
 9991TIP3    H151464   5.906   6.461  14.975  0.1680  1.0335 -3.0444
 9991TIP3    H251465   6.033   6.417  15.044 -2.4970 -0.0561  1.6371
 9992TIP3   OH251466   3.077   6.456   4.801  0.2859 -0.2461 -0.4773
 9992TIP3    H151467   3.016   6.433   4.730  0.7541 -2.0304 -0.3510
 9992TIP3    H251468   3.033   6.426   4.880  0.3107  0.6348 -0.1184
 9993TIP3   OH251469   1.098   4.218  14.383 -0.3601 -0.0333 -0.0538
 9993TIP3    H151470   1.037   4.266  14.439  0.6086  0.4545  0.6077
 9993TIP3    H251471   1.164   4.182  14.443  0.5336  0.2479 -0.8328
 9994TIP3   OH251472   1.827   5.897  13.290  0.5540 -0.0879  0.3213
 9994TIP3    H151473   1.847   5.863  13.377 -1.1027  0.2685  0.8718
 9994TIP3    H251474   1.732   5.909  13.290  0.7733  2.2415 -0.6755
 9995TIP3   OH251475   3.645   3.979   2.183 -0.0039 -0.1513 -0.2713
 9995TIP3    H151476   3.731   3.967   2.223 -0.0238 -0.3411 -0.2843
 9995TIP3    H251477   3.631   4.073   2.184  1.1919  0.1181 -2.3445
 9996TIP3   OH251478   1.741   1.996  13.304  0.1811 -0.0769  0.0251
 9996TIP3    H151479   1.790   1.915  13.291  0.0471 -0.4772  1.7026
 9996TIP3    H251480   1.731   2.034  13.217 -0.7056 -2.4163 -0.9575
 9997TIP3   OH251481   0.363   1.827   2.811 -0.3542  0.0009  0.2208
 9997TIP3    H151482   0.402   1.788   2.733  1.6267  2.4544 -0.1622
 9997TIP3    H251483   0.306   1.896   2.777 -1.2176 -0.3647  0.9101
 9998TIP3   OH251484   1.924   2.201   4.236 -0.3496  0.4555  0.3403
 9998TIP3    H151485   1.861   2.131   4.216 -1.2732  1.5825 -0.8857
 9998TIP3    H251486   1.882   2.252   4.305 -0.8441  1.2641 -0.5447
 9999TIP3   OH251487   5.017   0.417   0.826 -0.1231 -0.3947 -0.2439
 9999TIP3    H151488   4.992   0.325   0.841 -1.6092  0.1165  0.6524
 9999TIP3    H251489   5.024   0.454   0.914 -0.3497  0.5401 -0.6061
10000TIP3   OH251490   0.702   0.624  14.719  0.5960 -0.3925 -0.7355
10000TIP3    H151491   0.608   0.635  14.730  0.7402  0.6880 -0.4245
10000TIP3    H251492   0.715   0.530  14.707 -0.3347 -0.7611  0.9324
10001TIP3   OH251493   3.167   3.389   1.835  0.5875  0.2575  0.5109
10001TIP3    H151494   3.110   3.429   1.901 -0.2409 -1.9631  1.2487
10001TIP3    H251495   3.106   3.353   1.770  1.2735 -0.0294  0.0166
10002TIP3   OH251496   5.952   4.886  15.433 -0.0813 -0.1775 -0.0649
10002TIP3    H151497   5.881   4.950  15.424 -2.0543 -1.7337  2.9367
10002TIP3    H251498   5.924   4.811  15.380  0.9402  0.3402 -1.4082
10003TIP3   OH251499   2.242   3.479   0.537 -0.4263 -0.3198 -0.5031
10003TIP3    H151500   2.263   3.482   0.630  0.1316  1.6404 -0.6329
10003TIP3    H251501   2.146   3.484   0.534 -0.5056 -1.3776 -0.0338
10004TIP3   OH251502   5.781   2.598   6.187  0.4119 -0.4591 -0.2154
10004TIP3    H151503   5.748   2.683   6.157 -0.1470 -0.9339 -1.0047
10004TIP3    H251504   5.787   2.607   6.282 -0.4606  0.1948 -0.1997
10005TIP3   OH251505   6.037   0.369  14.280  0.0445  0.1638  0.2855
10005TIP3    H151506   6.082   0.441  14.237  0.1196 -0.4127 -0.6337
10005TIP3    H251507   5.993   0.322  14.209 -0.6938 -0.2049  0.9713
10006TIP3   OH251508   0.171   1.688   0.638  0.1465  0.3776  0.1300
10006TIP3    H151509   0.255   1.662   0.674  0.1140 -2.5695 -1.5926
10006TIP3    H251510   0.192   1.736   0.558  0.2530 -0.7407 -0.5370
10007TIP3   OH251511   2.353   1.684   1.599 -0.2465  0.3673  0.7103
10007TIP3    H151512   2.376   1.764   1.551 -1.0525 -0.5670 -1.3549
10007TIP3    H251513   2.432   1.631   1.595  0.4830  1.2250  2.5843
10008TIP3   OH251514   2.081   5.169   5.609 -0.1190 -0.2924 -0.3064
10008TIP3    H151515   2.141   5.195   5.539 -0.1533 -1.0448 -0.6246
10008TIP3    H251516   2.005   5.133   5.563 -0.2075 -0.6570  0.1222
10009TIP3   OH251517   3.885   3.138   0.496  0.6352 -0.9096 -0.6049
10009TIP3    H151518   3.870   3.059   0.547 -0.7969 -0.0018  0.4546
10009TIP3    H251519   3.871   3.111   0.405 -0.0472 -1.8279 -0.2383
10010TIP3   OH251520   6.472   0.417  14.871  0.0256 -0.6000 -0.0241
10010TIP3    H151521   6.494   0.339  14.819 -2.3473 -1.5191  0.2240
10010TIP3    H251522   6.543   0.424  14.935  2.3634 -0.1748 -2.4846
10011TIP3   OH251523   6.251   0.915   3.263 -0.0162 -0.3025 -0.6016
10011TIP3    H151524   6.245   0.889   3.355 -0.9895  0.8904 -0.2975
10011TIP3    H251525   6.295   1.000   3.265  0.7497 -0.6804 -1.3199
10012TIP3   OH251526   5.323   3.327   1.139  0.0318 -0.2757 -0.2324
10012TIP3    H151527   5.271   3.301   1.216 -0.3033  1.0845  0.0317
10012TIP3    H251528   5.329   3.247   1.087 -1.6823 -0.6793  0.1033
10013TIP3   OH251529   3.848   3.639  15.716  0.6048  0.4645 -0.4764
10013TIP3    H151530   3.897   3.587  15.652  1.2323 -0.1331  0.4688
10013TIP3    H251531   3.806   3.707  15.663  1.2140  0.0749 -1.5105
10014TIP3   OH251532   0.563   5.943   1.769 -0.1462  0.2707  0.7705
10014TIP3    H151533   0.620   5.916   1.697  0.7827  2.8107  0.4401
10014TIP3    H251534   0.477   5.952   1.728  0.3855  1.7447 -0.0946
10015TIP3   OH251535   5.664   5.457   2.154 -0.0097 -0.2962  0.2186
10015TIP3    H151536   5.584   5.494   2.190 -0.4607 -0.9846 -0.0632
10015TIP3    H251537   5.717   5.434   2.230  0.0103  0.3428  0.4019
10016TIP3   OH251538   2.653   5.224   2.913 -0.1940  0.2422 -0.0933
10016TIP3    H151539   2.710   5.149   2.896 -1.6615 -1.3850  1.7624
10016TIP3    H251540   2.675   5.252   3.001 -0.9381  0.8066 -0.0779
10017TIP3   OH251541   2.319   1.263   5.655  0.6655  0.3749  0.1315
10017TIP3    H151542   2.241   1.242   5.603  0.7907  0.2670 -0.0118
10017TIP3    H251543   2.294   1.243   5.745  0.9736 -0.9672 -0.0561
10018TIP3   OH251544   3.662   1.221   1.458  0.2670 -0.4948  0.3487
10018TIP3    H151545   3.582   1.184   1.421  0.6901 -0.8674 -0.2034
10018TIP3    H251546   3.728   1.208   1.390  0.0154  3.1696 -0.8605
10019TIP3   OH251547   2.109   6.287   2.643 -0.1173  0.0102  0.4424
10019TIP3    H151548   2.063   6.207   2.669  0.3094 -0.9250 -1.4815
10019TIP3    H251549   2.198   6.275   2.676  0.0452 -0.5122 -0.1517
10020TIP3   OH251550   3.471   6.705   0.983 -0.3351 -0.4044  0.2516
10020TIP3    H151551   3.380   6.732   0.969 -0.1084  0.0859 -0.2892
10020TIP3    H251552   3.520   6.747   0.913  0.8083  1.9929  2.3126
10021TIP3   OH251553   0.488   0.455   4.676 -0.0115  0.2214  0.0311
10021TIP3    H151554   0.434   0.488   4.604 -0.5771  1.6604  1.0848
10021TIP3    H251555   0.469   0.513   4.750  2.3503  0.2789  0.6895
10022TIP3   OH251556   2.574   2.780   6.366 -0.0481  0.1324 -0.0507
10022TIP3    H151557   2.597   2.692   6.334  1.3346  0.8690 -1.2043
10022TIP3    H251558   2.644   2.836   6.333 -0.8260  1.6583  0.8032
10023TIP3   OH251559   5.140   4.164  12.252 -0.1120 -0.2465 -0.2427
10023TIP3    H151560   5.068   4.152  12.190  0.2296 -0.6493 -0.5618
10023TIP3    H251561   5.215   4.189  12.197  0.7604 -2.6712 -0.2728
10024TIP3   OH251562   6.345   2.327   4.320 -0.7985 -0.0635 -0.2679
10024TIP3    H151563   6.252   2.346   4.305 -0.9732 -0.0050  0.8140
10024TIP3    H251564   6.345   2.268   4.395  0.0943  0.6548  0.3056
10025TIP3   OH251565   5.525   3.423  10.969  0.5802  0.2481  0.0123
10025TIP3    H151566   5.532   3.512  11.004  1.0727 -0.2179  1.1727
10025TIP3    H251567   5.594   3.417  10.904  0.0804  0.9315 -0.5983
10026TIP3   OH251568   3.516   4.761   3.510  0.1900 -0.0254 -0.4489
10026TIP3    H151569   3.439   4.779   3.563 -1.0597 -0.6294 -1.9895
10026TIP3    H251570   3.586   4.747   3.573 -1.1726 -0.4442  1.0291
10027TIP3   OH251571   4.628   1.961  12.450  0.3953  0.6847 -0.0766
10027TIP3    H151572   4.718   1.936  12.433  0.6510  1.7432 -0.4013
10027TIP3    H251573   4.614   1.942  12.543  0.3818 -1.0962 -0.4274
10028TIP3   OH251574   3.027   2.281   1.020  0.0563 -0.3292  0.3797
10028TIP3    H151575   3.116   2.259   0.991 -0.1106  1.0412 -1.3299
10028TIP3    H251576   3.034   2.289   1.115  1.8982  0.2827  0.2233
10029TIP3   OH251577   5.900   5.234  10.816  0.1764 -0.0517  0.3618
10029TIP3    H151578   5.966   5.185  10.768  0.9592 -0.7351  2.0550
10029TIP3    H251579   5.823   5.233  10.760  0.7278 -1.6920 -0.4193
10030TIP3   OH251580   1.461   5.768   2.491  0.1206 -0.0773  0.2730
10030TIP3    H151581   1.515   5.724   2.426  0.0022 -0.2664  0.3035
10030TIP3    H251582   1.393   5.813   2.439 -1.1033 -1.7503  0.3547
10031TIP3   OH251583   4.682   3.139  16.090 -0.1133 -0.1792  0.3053
10031TIP3    H151584   4.742   3.213  16.079 -0.2323 -0.2899 -1.1855
10031TIP3    H251585   4.716   3.092  16.167 -1.2837  2.5774  2.7164
10032TIP3   OH251586   3.777   6.031  14.013  0.5336 -0.3047 -0.1493
10032TIP3    H151587   3.739   6.117  14.027  0.7563 -0.2812  0.3678
10032TIP3    H251588   3.830   6.039  13.934  0.4584  0.0014 -0.1658
10033TIP3   OH251589   1.908   2.679   3.234 -0.2629  0.2427 -0.2801
10033TIP3    H151590   1.951   2.595   3.253  0.7757  0.6472 -0.7707
10033TIP3    H251591   1.819   2.668   3.268  0.2827 -0.5253  0.9915
10034TIP3   OH251592   6.493   2.250   4.860  0.4680  0.1241 -0.0218
10034TIP3    H151593   6.534   2.332   4.832  0.5372  0.6487  1.5376
10034TIP3    H251594   6.416   2.276   4.910  0.5224 -0.7571  0.5489
10035TIP3   OH251595   5.145   0.954  11.007 -0.0108 -0.2933  0.0104
10035TIP3    H151596   5.199   0.889  11.052 -0.7562  0.0176  1.4157
10035TIP3    H251597   5.056   0.937  11.037 -0.6149 -0.2928 -1.6679
10036TIP3   OH251598   4.017   6.013  12.107  0.4369 -0.2082 -0.2606
10036TIP3    H151599   4.018   6.022  12.203  0.5790  0.3129 -0.3077
10036TIP3    H251600   3.957   5.940  12.091 -1.3703  1.1043  0.1294
10037TIP3   OH251601   6.571   4.570  11.002 -0.2256  0.0300  0.5157
10037TIP3    H151602   6.478   4.592  10.988  0.1138  1.2649  0.0327
10037TIP3    H251603   6.573   4.534  11.091 -1.1898 -0.1696  0.4741
10038TIP3   OH251604   2.235   4.356  13.213 -0.4481 -0.4165  0.4623
10038TIP3    H151605   2.324   4.339  13.243 -0.7050 -1.9362  0.4515
10038TIP3    H251606   2.229   4.311  13.129 -0.5524  1.5907 -0.6624
10039TIP3   OH251607   3.265   5.410   3.464  0.0362 -0.3863 -0.2675
10039TIP3    H151608   3.185   5.418   3.413  0.1942 -0.6011 -0.5588
10039TIP3    H251609   3.329   5.373   3.402  0.1344 -0.9921  0.1883
10040TIP3   OH251610   0.647   4.901  12.941  0.0381 -0.2659  0.2113
10040TIP3    H151611   0.593   4.971  12.977  0.8172  0.1321  0.6398
10040TIP3    H251612   0.593   4.862  12.872 -1.4662 -1.0303  1.7738
10041TIP3   OH251613   3.650   4.708  16.610 -0.1416  0.2735 -0.2178
10041TIP3    H151614   3.598   4.760  16.548 -0.7082 -0.2004 -0.1580
10041TIP3    H251615   3.730   4.686  16.562 -0.3425  0.3555 -0.5992
10042TIP3   OH251616   4.012   3.640  14.787 -0.7256 -0.3113 -0.1026
10042TIP3    H151617   4.073   3.600  14.725 -0.9119  0.3217 -0.7020
10042TIP3    H251618   4.055   3.720  14.816 -0.1583 -1.1197  1.4367
10043TIP3   OH251619   3.919   5.711  17.175 -0.3065 -0.3881  0.3041
10043TIP3    H151620   3.839   5.761  17.193 -1.1223 -0.9456 -1.5190
10043TIP3    H251621   3.984   5.777  17.152 -0.3336  0.0530  1.4742
10044TIP3   OH251622   4.192   1.957  15.667 -0.4217  0.0045 -0.3982
10044TIP3    H151623   4.101   1.938  15.688 -0.5054  0.1128 -0.6565
10044TIP3    H251624   4.236   1.962  15.752 -0.4579 -1.0161 -0.3038
10045TIP3   OH251625   4.823   2.595  14.777  0.1319 -0.1975  0.8867
10045TIP3    H151626   4.730   2.614  14.790  0.1227 -0.5520  1.3685
10045TIP3    H251627   4.856   2.670  14.728 -0.0752  0.6832  2.0489
10046TIP3   OH251628   5.355   4.453   4.894  0.3947 -0.1644  0.5383
10046TIP3    H151629   5.399   4.461   4.978 -0.1606 -1.9409  1.0343
10046TIP3    H251630   5.316   4.539   4.878  1.7221  0.6272  1.3717
10047TIP3   OH251631   0.694   2.191  11.420  0.6803 -0.3350 -0.4786
10047TIP3    H151632   0.685   2.178  11.326 -0.4164 -1.0964 -0.2840
10047TIP3    H251633   0.701   2.286  11.430 -1.2000 -0.0800 -1.2025
10048TIP3   OH251634   3.650   3.966  12.836  0.0368 -0.2946  0.0269
10048TIP3    H151635   3.626   3.908  12.909  2.5509  0.7965  1.8551
10048TIP3    H251636   3.589   4.040  12.844 -1.0672 -1.1422 -0.3131
10049TIP3   OH251637   1.229   4.469  11.868 -0.7379  0.4175 -0.0605
10049TIP3    H151638   1.284   4.485  11.791 -0.2847 -1.3390 -0.1252
10049TIP3    H251639   1.164   4.405  11.840  0.1283 -1.1382  1.2751
10050TIP3   OH251640   3.943   6.637   2.012  0.2661 -0.3375  0.4403
10050TIP3    H151641   4.026   6.589   2.002  0.1899 -0.6681  1.3425
10050TIP3    H251642   3.877   6.578   1.976  0.6273  0.7969 -2.3428
10051TIP3   OH251643   1.578   5.824   0.474  0.3986  0.5323 -0.1002
10051TIP3    H151644   1.547   5.773   0.549 -0.0525  0.0676 -0.5971
10051TIP3    H251645   1.631   5.762   0.424  0.4442  0.7591 -0.3321
10052TIP3   OH251646   5.306   2.323   5.334  0.1163  0.2483  0.0620
10052TIP3    H151647   5.240   2.388   5.357  1.0992  1.6827 -1.0452
10052TIP3    H251648   5.364   2.319   5.410 -0.5405 -0.1389  0.5560
10053TIP3   OH251649   2.825   2.010   5.925  0.6049 -0.6930 -0.0863
10053TIP3    H151650   2.882   1.950   5.973 -0.9461 -1.2672  1.1160
10053TIP3    H251651   2.843   2.096   5.963  1.0761 -0.7764 -0.1154
10054TIP3   OH251652   3.898   3.402   5.561 -0.2918 -0.0416  0.0440
10054TIP3    H151653   3.821   3.458   5.547  0.7301  1.5759  0.5196
10054TIP3    H251654   3.967   3.444   5.510  0.3487 -1.3474 -0.1989
10055TIP3   OH251655   2.676   6.721   0.878 -0.6296 -0.0576 -0.0775
10055TIP3    H151656   2.615   6.794   0.890  1.3034  1.3575  1.7153
10055TIP3    H251657   2.751   6.760   0.833 -0.2292 -1.3493 -0.5726
10056TIP3   OH251658   4.044   0.846   5.227  0.0356  0.3082 -0.2263
10056TIP3    H151659   4.095   0.771   5.258 -0.0235 -0.1994 -1.2836
10056TIP3    H251660   4.062   0.916   5.290 -0.3278 -0.7423  1.1014
10057TIP3   OH251661   5.119   4.539  15.114  0.5356 -0.0515 -0.1421
10057TIP3    H151662   5.154   4.472  15.171 -0.1435 -0.3216 -0.0325
10057TIP3    H251663   5.166   4.619  15.138  2.4693 -0.7576 -1.3176
10058TIP3   OH251664   3.812   0.491   4.897  0.1168 -0.1262 -0.3786
10058TIP3    H151665   3.766   0.418   4.854 -1.1213 -0.4563  1.3901
10058TIP3    H251666   3.805   0.564   4.836  0.2773 -1.1427 -1.6438
10059TIP3   OH251667   6.557   3.438   0.129 -0.1093 -0.3479 -0.1989
10059TIP3    H151668   6.558   3.469   0.219 -1.2356  1.3480 -0.7269
10059TIP3    H251669   6.481   3.381   0.124  1.0457 -2.0245  0.3607
10060TIP3   OH251670   1.118   5.981   6.128  0.2186  0.3716 -0.0697
10060TIP3    H151671   1.088   5.941   6.046  0.3890 -0.6420  0.3485
10060TIP3    H251672   1.211   5.959   6.132  0.2768  0.6695  0.2593
10061TIP3   OH251673   5.213   3.200   2.411  0.5074  0.0317  0.6405
10061TIP3    H151674   5.277   3.149   2.360  1.3016  1.1111  0.5061
10061TIP3    H251675   5.169   3.136   2.466 -0.0561 -1.1042 -1.0800
10062TIP3   OH251676   3.834   5.610   1.185 -0.3916 -0.6874 -0.1436
10062TIP3    H151677   3.908   5.549   1.189 -0.0612 -0.2665  0.1642
10062TIP3    H251678   3.768   5.563   1.134 -0.0099 -1.1678 -0.2059
10063TIP3   OH251679   4.593   3.468   5.136 -0.4456 -0.1105 -0.6656
10063TIP3    H151680   4.530   3.540   5.140 -1.2376 -0.8288  0.1360
10063TIP3    H251681   4.544   3.391   5.163  0.8548 -0.6448  0.3129
10064TIP3   OH251682   6.583   1.639  16.759 -0.0983  0.0031  0.2130
10064TIP3    H151683   6.669   1.598  16.745 -0.2057  0.4189 -1.8739
10064TIP3    H251684   6.600   1.733  16.750 -0.5809  0.1720  0.9771
10065TIP3   OH251685   1.618   2.204  11.111  0.5324 -0.5886  0.1995
10065TIP3    H151686   1.564   2.152  11.051 -0.3106 -1.1791  1.4126
10065TIP3    H251687   1.669   2.261  11.055 -0.9669 -0.4128 -1.0373
10066TIP3   OH251688   5.035   6.439  15.552  0.2486 -0.4093  0.0665
10066TIP3    H151689   5.039   6.432  15.456  0.8548 -0.3167  0.0842
10066TIP3    H251690   5.124   6.464  15.578 -0.0320  0.0379  0.6145
10067TIP3   OH251691   4.718   4.650  15.202  0.1871  0.2148 -0.1522
10067TIP3    H151692   4.739   4.587  15.133  3.1059  2.5759 -1.6605
10067TIP3    H251693   4.708   4.734  15.156  2.1806  1.8785  2.1645
10068TIP3   OH251694   6.122   6.106  12.390  0.4274  0.0412  0.2481
10068TIP3    H151695   6.208   6.092  12.429  2.0561  4.2812 -1.2730
10068TIP3    H251696   6.075   6.158  12.456  0.3513  0.7225 -0.3390
10069TIP3   OH251697   5.276   5.640   2.005 -0.5400 -0.1155 -0.4530
10069TIP3    H151698   5.323   5.557   1.994 -1.5079 -0.6983 -0.3035
10069TIP3    H251699   5.199   5.617   2.057 -0.2758  1.0806  0.5103
10070TIP3   OH251700   5.039   6.408   1.243  0.4124 -0.1061  0.1696
10070TIP3    H151701   5.018   6.324   1.283 -0.1247  0.6038  1.4410
10070TIP3    H251702   4.998   6.405   1.156 -2.3509  0.0130  1.3649
10071TIP3   OH251703   3.022   1.295   3.386 -0.0285 -0.6014 -0.1863
10071TIP3    H151704   3.040   1.201   3.382  0.6249 -0.6022  1.8879
10071TIP3    H251705   3.068   1.331   3.310 -1.8155 -2.1287 -2.1063
10072TIP3   OH251706   2.501   0.148  11.468 -0.0606 -0.1811  0.0099
10072TIP3    H151707   2.455   0.231  11.454  0.5432  0.1850  0.1517
10072TIP3    H251708   2.558   0.165  11.543 -0.2324 -0.8560  0.3064
10073TIP3   OH251709   2.051   6.111  12.158  0.2556  0.1415 -0.6782
10073TIP3    H151710   1.994   6.040  12.131  0.3043 -0.9108  1.7067
10073TIP3    H251711   2.140   6.078  12.143  0.2993 -0.6932  1.1070
10074TIP3   OH251712   4.805   5.985  15.682  0.1369 -0.1011 -0.0197
10074TIP3    H151713   4.891   6.017  15.656  0.5022  0.0504  1.2869
10074TIP3    H251714   4.743   6.038  15.631  0.7989  0.6546 -0.0531
10075TIP3   OH251715   6.520   2.008  15.780 -0.2863 -0.1956 -0.5888
10075TIP3    H151716   6.542   2.014  15.687 -0.8313 -0.4325 -0.7374
10075TIP3    H251717   6.602   1.982  15.822  0.5261  1.9562 -0.7143
10076TIP3   OH251718   2.460   4.073  11.439 -0.4882 -0.2828 -0.4771
10076TIP3    H151719   2.504   4.003  11.389  1.2997  1.3177 -1.2542
10076TIP3    H251720   2.410   4.026  11.505  2.3657 -2.3288  0.4696
10077TIP3   OH251721   0.666   0.972   3.619  0.4071  0.3709  0.0196
10077TIP3    H151722   0.745   1.003   3.664  0.8276  0.4604 -0.7655
10077TIP3    H251723   0.633   0.902   3.675  1.5542 -0.2883 -0.0886
10078TIP3   OH251724   1.521   4.834  15.390  0.3859 -0.0673  0.1774
10078TIP3    H151725   1.449   4.773  15.406  1.1793 -1.4048 -1.1287
10078TIP3    H251726   1.506   4.866  15.301  0.3673  1.1173  0.5988
10079TIP3   OH251727   0.427   6.265  14.422 -0.0808  0.2758  0.5161
10079TIP3    H151728   0.350   6.210  14.405  0.9644 -1.0300 -0.2096
10079TIP3    H251729   0.467   6.227  14.499  1.0085 -0.4352 -0.3669
10080TIP3   OH251730   5.972   2.775  13.787  0.2233  0.0304  0.0217
10080TIP3    H151731   5.901   2.732  13.834 -0.4693 -0.2558 -1.2430
10080TIP3    H251732   6.045   2.712  13.790 -0.6047 -1.0500 -1.3454
10081TIP3   OH251733   2.193   0.693  10.917 -0.0218  0.1223  0.0536
10081TIP3    H151734   2.176   0.606  10.954 -0.5249  0.3422  0.3574
10081TIP3    H251735   2.247   0.737  10.982 -0.2329  0.2266  0.1617
10082TIP3   OH251736   2.722   3.177   5.119  0.0667 -0.5737 -0.0750
10082TIP3    H151737   2.812   3.199   5.094  0.3684 -1.7431 -0.0768
10082TIP3    H251738   2.673   3.179   5.037  0.5997 -2.2434 -0.4709
10083TIP3   OH251739   0.327   0.262   5.575  0.2580 -0.0547  0.2917
10083TIP3    H151740   0.302   0.353   5.589 -3.1929 -0.7062 -0.7250
10083TIP3    H251741   0.337   0.226   5.663  0.8175  1.0863  0.7050
10084TIP3   OH251742   3.917   5.792   3.301 -0.3626 -0.0361  0.0769
10084TIP3    H151743   3.823   5.808   3.293  0.0543  2.5272 -0.8735
10084TIP3    H251744   3.950   5.869   3.348  1.2443 -0.9606  0.5278
10085TIP3   OH251745   6.012   4.556   2.400 -0.0338  0.1707  0.0409
10085TIP3    H151746   6.026   4.529   2.491  0.2643 -1.0133 -0.3393
10085TIP3    H251747   5.975   4.644   2.407  1.8623  0.9505  1.2627
10086TIP3   OH251748   5.783   3.017  10.480  0.1257 -0.1783  0.4301
10086TIP3    H151749   5.771   2.962  10.402  2.8497 -0.3509  0.0424
10086TIP3    H251750   5.830   3.094  10.449 -1.3878  1.2447  1.4415
10087TIP3   OH251751   5.875   2.264  15.924 -0.5624  0.0086 -0.3097
10087TIP3    H151752   5.934   2.317  15.977  0.4363  0.2632 -1.6227
10087TIP3    H251753   5.921   2.180  15.913 -0.8056 -0.0813 -0.6692
10088TIP3   OH251754   0.812   6.494   0.801  0.3176  0.4399 -0.3891
10088TIP3    H151755   0.785   6.586   0.809  1.8272  0.8352  0.4409
10088TIP3    H251756   0.760   6.448   0.867 -1.5328  0.3999 -1.7926
10089TIP3   OH251757   1.495   2.337  11.950  0.2359 -0.1232 -0.0170
10089TIP3    H151758   1.409   2.296  11.953  0.6614 -1.0106  0.4616
10089TIP3    H251759   1.493   2.393  11.872 -1.7272  2.0786  1.5013
10090TIP3   OH251760   5.317   0.932  14.888  0.0510  0.4363  0.0025
10090TIP3    H151761   5.367   0.942  14.807  0.7138 -0.5744  0.2600
10090TIP3    H251762   5.230   0.966  14.867  0.2564  0.3441 -1.0818
10091TIP3   OH251763   1.730   2.426   5.820  0.1251  0.6864 -0.0256
10091TIP3    H151764   1.815   2.386   5.838 -0.3095 -0.5755 -0.6905
10091TIP3    H251765   1.692   2.442   5.906 -0.9803 -3.1606  0.3780
10092TIP3   OH251766   2.591   6.198  13.992  0.3453  0.3647 -0.1049
10092TIP3    H151767   2.613   6.160  14.077 -0.2398  1.8196  0.7360
10092TIP3    H251768   2.579   6.123  13.934  0.4812 -0.6661  1.1659
10093TIP3   OH251769   1.205   4.385   3.198  0.2457 -0.2132 -0.1794
10093TIP3    H151770   1.243   4.325   3.133  0.9503  1.6239 -1.5532
10093TIP3    H251771   1.277   4.444   3.221 -1.0901  1.8843 -1.0778
10094TIP3   OH251772   0.638   0.546   6.083 -0.5418 -0.0566  0.7083
10094TIP3    H151773   0.634   0.639   6.106  0.4783  0.0477  0.5264
10094TIP3    H251774   0.732   0.528   6.072 -0.7552 -1.0017  0.3028
10095TIP3   OH251775   1.136   1.884  17.144 -0.1611 -0.1459 -0.2052
10095TIP3    H151776   1.071   1.894  17.214 -1.5531 -1.9956 -1.1376
10095TIP3    H251777   1.220   1.904  17.186 -1.1344  0.4647  1.5400
10096TIP3   OH251778   5.946   2.327  16.281 -0.4372 -0.4414 -0.1090
10096TIP3    H151779   5.931   2.415  16.315  0.1087  0.2906 -1.6448
10096TIP3    H251780   5.994   2.283  16.351 -2.0438 -0.0478  1.3061
10097TIP3   OH251781   5.904   5.583   2.632 -0.0631  0.0490 -0.6587
10097TIP3    H151782   5.829   5.552   2.684  0.4668 -1.2782 -0.6398
10097TIP3    H251783   5.974   5.595   2.696  0.5475 -1.4388 -1.0074
10098TIP3   OH251784   0.472   1.175   2.360  0.3520 -0.5044  0.2663
10098TIP3    H151785   0.537   1.137   2.300  0.6005 -0.7984  0.7153
10098TIP3    H251786   0.398   1.114   2.356  0.0144 -0.0608 -0.4017
10099TIP3   OH251787   5.426   4.600  14.441 -0.2760  0.2893  0.0062
10099TIP3    H151788   5.368   4.621  14.368 -0.0043  1.1986  0.0304
10099TIP3    H251789   5.399   4.513  14.470 -1.7563  0.7677  0.1394
10100TIP3   OH251790   0.672   5.482  15.809  0.5284  0.0082 -0.2078
10100TIP3    H151791   0.585   5.512  15.834  0.3853  0.4456 -1.1943
10100TIP3    H251792   0.658   5.435  15.727  1.0222 -1.1772  0.3658
10101TIP3   OH251793   1.656   4.424  11.774  0.1279 -0.2192 -0.0185
10101TIP3    H151794   1.619   4.359  11.833 -2.1930  1.1886  0.2226
10101TIP3    H251795   1.738   4.450  11.816  0.5128 -2.0760  0.4739
10102TIP3   OH251796   0.097   4.814   1.942 -0.0944 -0.3534 -0.1714
10102TIP3    H151797   0.178   4.797   1.894 -0.4428  1.2017 -1.3639
10102TIP3    H251798   0.098   4.908   1.959 -0.4725 -0.6983  2.0359
10103TIP3   OH251799   1.088   4.156  15.260 -0.5249  0.2434  0.9622
10103TIP3    H151800   0.996   4.130  15.255 -0.0935 -1.2352 -0.1271
10103TIP3    H251801   1.089   4.231  15.319 -2.5626  0.9642  0.1565
10104TIP3   OH251802   1.276   0.118  14.244 -0.0851 -0.3716 -0.0589
10104TIP3    H151803   1.343   0.066  14.290 -0.5063 -0.1693  0.8152
10104TIP3    H251804   1.222   0.153  14.315  0.3271  1.4624 -0.6201
10105TIP3   OH251805   1.573   3.132   1.705 -0.2024 -0.4750  0.1605
10105TIP3    H151806   1.536   3.045   1.719 -0.1646 -0.9904 -2.3827
10105TIP3    H251807   1.667   3.120   1.716 -0.1439 -0.9267 -0.6719
10106TIP3   OH251808   1.917   2.905   3.094 -0.4797 -0.7537 -0.6604
10106TIP3    H151809   1.999   2.886   3.049  1.1797  0.9208  1.4302
10106TIP3    H251810   1.921   2.852   3.174 -1.1628 -0.2432 -0.2772
10107TIP3   OH251811   2.820   1.518   4.863 -0.1912 -0.4478 -0.2918
10107TIP3    H151812   2.853   1.441   4.909  0.6881 -0.0024 -0.1316
10107TIP3    H251813   2.876   1.525   4.785  0.6073  0.7337  0.3479
10108TIP3   OH251814   4.681   6.523  13.857  0.3483 -0.9737 -0.4770
10108TIP3    H151815   4.684   6.605  13.905  1.0202 -0.8106 -0.7906
10108TIP3    H251816   4.622   6.539  13.783  1.3381 -0.4247 -1.1651
10109TIP3   OH251817   0.336   2.925   5.385  0.1790  0.0129  0.3697
10109TIP3    H151818   0.300   3.004   5.345  2.6262  1.5744  1.0631
10109TIP3    H251819   0.359   2.869   5.311 -0.1482  0.6126 -0.1965
10110TIP3   OH251820   3.403   1.299  15.816 -0.2540 -0.0232  0.0114
10110TIP3    H151821   3.317   1.342  15.822 -0.8470 -1.0118 -1.1226
10110TIP3    H251822   3.440   1.309  15.904 -1.8896 -0.3012  0.7823
10111TIP3   OH251823   1.956   3.642   1.351  0.3174 -0.2288  0.2619
10111TIP3    H151824   2.019   3.710   1.375 -1.2249  0.6785  1.9779
10111TIP3    H251825   1.948   3.588   1.429 -0.6600 -0.6272 -0.1002
10112TIP3   OH251826   1.889   4.544  12.318 -0.4604  0.0253 -0.3708
10112TIP3    H151827   1.981   4.533  12.343 -0.9214  0.2467  1.6403
10112TIP3    H251828   1.868   4.466  12.267  0.4246 -0.8481  0.5481
10113TIP3   OH251829   5.145   5.472   3.752 -0.3164 -0.3499  0.1697
10113TIP3    H151830   5.115   5.561   3.734  3.2206  0.7707 -0.9888
10113TIP3    H251831   5.193   5.479   3.834 -0.0330 -1.1996  0.0878
10114TIP3   OH251832   3.673   2.227  12.375  0.3595  0.7205 -0.1399
10114TIP3    H151833   3.630   2.263  12.297  0.9412  0.5355 -0.5514
10114TIP3    H251834   3.760   2.267  12.376 -0.2765  2.2216  1.4945
10115TIP3   OH251835   6.616   4.742  14.627 -0.0605  1.0002  0.3960
10115TIP3    H151836   6.656   4.656  14.613  3.6355  2.8018 -1.7717
10115TIP3    H251837   6.630   4.760  14.720  1.4344  0.2201  0.3553
10116TIP3   OH251838   4.647   5.567   1.978  0.7983  0.2831  0.2698
10116TIP3    H151839   4.731   5.526   1.958  0.6523 -0.3972  1.0237
10116TIP3    H251840   4.666   5.661   1.978  2.1188  0.1057  2.7340
10117TIP3   OH251841   4.963   3.534  12.596 -0.2397  0.2671 -0.2559
10117TIP3    H151842   4.951   3.502  12.685  0.8149  3.4238  1.1295
10117TIP3    H251843   4.886   3.588  12.579  0.8780  1.9529 -0.1309
10118TIP3   OH251844   6.380   3.666  16.912  0.0175  0.6723 -0.5196
10118TIP3    H151845   6.438   3.614  16.967 -0.5202  0.1012 -0.4866
10118TIP3    H251846   6.292   3.634  16.932 -0.1006 -0.6716 -2.8467
10119TIP3   OH251847   4.351   0.358   1.855  0.2093 -0.1105 -0.1359
10119TIP3    H151848   4.349   0.263   1.862  0.1450 -0.1960 -1.1593
10119TIP3    H251849   4.437   0.383   1.889  1.1414 -0.7422 -1.9099
10120TIP3   OH251850   4.316   5.058   2.663 -0.1425 -0.0256  0.1487
10120TIP3    H151851   4.305   5.098   2.576  1.0475 -1.2661 -0.6219
10120TIP3    H251852   4.318   5.132   2.723  4.7927  1.5856 -1.4442
10121TIP3   OH251853   2.112   0.565   3.229 -0.1284 -0.3292 -0.6397
10121TIP3    H151854   2.171   0.545   3.156 -0.1946  1.8221 -1.3224
10121TIP3    H251855   2.161   0.538   3.307  2.2441  2.2454 -1.1065
10122TIP3   OH251856   2.203   2.208   5.261  0.0534 -0.1402  0.4063
10122TIP3    H151857   2.170   2.236   5.176  0.8307  0.9392  0.4427
10122TIP3    H251858   2.292   2.177   5.244  0.3310  0.3937  0.8787
10123TIP3   OH251859   1.237   3.371  12.977  0.5588 -0.0607 -0.5167
10123TIP3    H151860   1.170   3.425  12.934 -1.8588 -2.2047  0.2793
10123TIP3    H251861   1.281   3.432  13.037 -2.2590  1.0492  0.5997
10124TIP3   OH251862   3.489   3.638   4.953 -0.3766  0.1179 -0.1950
10124TIP3    H151863   3.440   3.565   4.989  0.7734 -0.9487 -0.7216
10124TIP3    H251864   3.559   3.598   4.902  0.7130  1.5889  0.0705
10125TIP3   OH251865   1.080   5.429  12.644  0.1683  0.5617 -0.4208
10125TIP3    H151866   1.065   5.391  12.558  1.5701 -0.5809 -0.1887
10125TIP3    H251867   1.135   5.506  12.627  0.1272  0.5572 -0.5765
10126TIP3   OH251868   6.051   4.227   4.842 -0.1831  0.5197  0.0178
10126TIP3    H151869   6.041   4.152   4.783  1.7898 -0.2336  0.5645
10126TIP3    H251870   5.979   4.285   4.819  0.1951  0.0321 -2.8262
10127TIP3   OH251871   1.568   5.607   6.422 -0.1931  0.1816  0.3615
10127TIP3    H151872   1.505   5.640   6.486 -0.4574 -0.9299  0.6885
10127TIP3    H251873   1.612   5.535   6.467  0.9726  0.6231 -0.0381
10128TIP3   OH251874   4.578   4.029  15.686  0.1322  0.5370 -0.6137
10128TIP3    H151875   4.631   4.012  15.765 -0.6447 -1.4078 -0.4462
10128TIP3    H251876   4.625   3.984  15.616 -0.2701  0.4577 -0.8364
10129TIP3   OH251877   2.335   4.141  13.841 -0.3709  0.4209  0.3102
10129TIP3    H151878   2.281   4.152  13.919  0.4576  0.3854  0.8959
10129TIP3    H251879   2.275   4.105  13.776 -0.8280 -0.5580  1.2440
10130TIP3   OH251880   5.804   0.005   2.128 -0.0337 -0.4341  0.0164
10130TIP3    H151881   5.743   0.028   2.198 -0.1518 -0.1709 -0.1733
10130TIP3    H251882   5.864  -0.058   2.168 -0.0023 -0.1593  0.3974
10131TIP3   OH251883   2.704   4.456   0.382 -0.0127  0.6979  0.1939
10131TIP3    H151884   2.645   4.393   0.424  1.6782 -1.9618 -1.1097
10131TIP3    H251885   2.653   4.536   0.373 -2.2504 -0.4011  2.1131
10132TIP3   OH251886   1.436   3.739   4.081  0.1855  0.2645  0.3619
10132TIP3    H151887   1.351   3.770   4.111 -0.8251 -1.2095 -0.8062
10132TIP3    H251888   1.442   3.649   4.114  2.0735  0.8637  1.8517
10133TIP3   OH251889   4.700   6.026   3.292 -0.1492  0.4383  0.6675
10133TIP3    H151890   4.627   6.071   3.335 -0.8466  0.2878 -0.3196
10133TIP3    H251891   4.778   6.060   3.336 -0.6992  2.0269  0.4921
10134TIP3   OH251892   2.432   4.953   3.276  0.3320 -0.7266  0.1680
10134TIP3    H151893   2.527   4.963   3.268  0.5616 -2.3953  0.3051
10134TIP3    H251894   2.395   5.009   3.208  1.2943  1.5869  1.4440
10135TIP3   OH251895   3.681   5.964  12.906 -0.0887 -0.5608 -0.1679
10135TIP3    H151896   3.676   5.889  12.965 -0.0514 -0.5729 -0.1798
10135TIP3    H251897   3.609   6.020  12.933  0.0383 -0.4820  0.0039
10136TIP3   OH251898   2.634   1.292  16.785 -0.3256  0.0325 -0.7289
10136TIP3    H151899   2.724   1.289  16.755 -0.6254  0.9818 -1.7810
10136TIP3    H251900   2.639   1.275  16.879  0.7857 -1.3878 -1.0189
10137TIP3   OH251901   5.333   0.921   2.097  0.1532  0.6366  0.2412
10137TIP3    H151902   5.243   0.892   2.108 -0.5952  1.4158 -2.8976
10137TIP3    H251903   5.342   0.996   2.156 -1.0691  0.2551  0.9434
10138TIP3   OH251904   0.034   3.398   2.562 -0.3037 -0.2083  0.1278
10138TIP3    H151905   0.113   3.446   2.586 -0.6870  0.8684 -0.6867
10138TIP3    H251906   0.020   3.338   2.635  0.8034  0.1579  0.6694
10139TIP3   OH251907   1.452   2.345  12.637 -0.1001 -0.2495 -0.4695
10139TIP3    H151908   1.363   2.323  12.664 -0.7241 -0.3919 -2.4386
10139TIP3    H251909   1.453   2.441  12.633 -0.2903 -0.2570 -0.7645
10140TIP3   OH251910   1.328   1.401  10.909 -0.5816 -0.1041 -0.1030
10140TIP3    H151911   1.329   1.437  10.997 -1.5158 -0.6758  0.1421
10140TIP3    H251912   1.377   1.319  10.916  0.9915  0.7487 -0.5312
10141TIP3   OH251913   1.212   2.262  13.347  0.3749 -0.0935  0.3295
10141TIP3    H151914   1.137   2.275  13.289 -0.3575  1.2109  1.4877
10141TIP3    H251915   1.190   2.183  13.397  0.1345 -0.1526  0.1323
10142TIP3   OH251916   1.202   1.163  14.460  0.2369 -0.2570  0.4214
10142TIP3    H151917   1.254   1.093  14.421  1.5999  0.7828  0.2978
10142TIP3    H251918   1.195   1.229  14.391 -0.0077  0.2484  0.9238
10143TIP3   OH251919   3.342   5.654   3.551  0.2749  0.5697  0.0273
10143TIP3    H151920   3.271   5.719   3.552 -0.2643  0.0073 -0.4979
10143TIP3    H251921   3.298   5.572   3.530  0.6619 -0.3568  2.5943
10144TIP3   OH251922   0.903   0.112   3.440 -0.0326  0.2661  0.3316
10144TIP3    H151923   0.900   0.172   3.514  0.0311 -0.8812  1.2791
10144TIP3    H251924   0.997   0.094   3.428 -0.1704 -1.8680  1.9232
10145TIP3   OH251925   4.644   0.373   1.513  0.0811  0.2968 -0.2582
10145TIP3    H151926   4.573   0.429   1.482  0.1002  0.3263 -0.2481
10145TIP3    H251927   4.703   0.433   1.559  0.4797  0.4012 -0.8797
10146TIP3   OH251928   0.137   4.840  13.602  0.3773  0.2263 -0.1474
10146TIP3    H151929   0.173   4.802  13.522  1.4490 -0.1528  0.4980
10146TIP3    H251930   0.163   4.780  13.671 -0.6574  0.4747  0.4765
10147TIP3   OH251931   0.137   1.056   5.584  0.1160  0.0893 -0.0710
10147TIP3    H151932   0.201   1.047   5.655  0.2066 -0.8828 -0.2663
10147TIP3    H251933   0.190   1.057   5.504 -0.0871 -0.3524 -0.2120
10148TIP3   OH251934   2.839   4.998  10.461  0.4281 -0.3618  0.1503
10148TIP3    H151935   2.760   5.001  10.407 -0.2971 -1.3786  1.1136
10148TIP3    H251936   2.906   4.963  10.403 -0.3415 -1.4620 -0.1060
10149TIP3   OH251937   3.840   4.105  14.062  0.1764 -0.3113  0.4135
10149TIP3    H151938   3.898   4.077  14.132  0.0642 -0.1201  0.5814
10149TIP3    H251939   3.787   4.028  14.042  0.7153 -0.5917  0.0265
10150TIP3   OH251940   6.542   4.137   1.159 -0.7651 -0.5137  0.4257
10150TIP3    H151941   6.574   4.128   1.249 -1.9573  2.5372  1.2699
10150TIP3    H251942   6.448   4.150   1.167 -0.5220  3.5209 -0.7708
10151TIP3   OH251943   6.322   0.770   4.094 -0.1479 -0.0540 -0.3694
10151TIP3    H151944   6.392   0.816   4.141  0.3930 -0.1021 -1.1110
10151TIP3    H251945   6.252   0.835   4.087 -1.1260 -0.6826  2.3542
10152TIP3   OH251946   5.392   1.177   4.231 -1.0429  0.5224 -0.8823
10152TIP3    H151947   5.427   1.088   4.230 -0.4124  0.7718 -1.3934
10152TIP3    H251948   5.391   1.201   4.324 -0.0936  0.4086 -0.8293
10153TIP3   OH251949   3.654   0.998   4.563  0.3358 -1.3994  0.6351
10153TIP3    H151950   3.621   1.076   4.518  1.0240 -0.4838  1.6451
10153TIP3    H251951   3.588   0.979   4.629 -0.9902 -3.1261 -1.0804
10154TIP3   OH251952   0.639   3.796  15.161 -0.1114  0.0423  0.0665
10154TIP3    H151953   0.557   3.800  15.112  0.4655 -0.8337 -1.0154
10154TIP3    H251954   0.613   3.775  15.251 -1.1930  1.7541  0.1947
10155TIP3   OH251955   4.830   0.596  11.644  0.1887  0.9533  0.0074
10155TIP3    H151956   4.852   0.611  11.736 -0.1444 -1.9324  0.6260
10155TIP3    H251957   4.737   0.577  11.643  0.0415  1.5857 -1.0642
10156TIP3   OH251958   3.315   3.702   0.317 -0.1260  0.3765  0.7370
10156TIP3    H151959   3.390   3.727   0.264 -2.2391 -0.1691 -2.8365
10156TIP3    H251960   3.251   3.771   0.303 -2.3056 -1.8108 -1.0578
10157TIP3   OH251961   5.268   2.490   3.692  0.0793  0.4051  0.5334
10157TIP3    H151962   5.342   2.517   3.637 -0.8530  1.2079 -0.3573
10157TIP3    H251963   5.269   2.551   3.766  1.3379 -0.6806  1.4743
10158TIP3   OH251964   0.325   3.394  14.501  0.0140 -0.3158  0.4237
10158TIP3    H151965   0.399   3.389  14.442  0.3367 -0.9971  0.8750
10158TIP3    H251966   0.336   3.477  14.547  0.3861 -0.3195  0.3410
10159TIP3   OH251967   2.762   6.339  11.339 -0.1443  0.1974 -0.2633
10159TIP3    H151968   2.681   6.345  11.289  0.2973  2.5712 -0.8319
10159TIP3    H251969   2.735   6.310  11.426 -1.7258  1.4771 -0.2762
10160TIP3   OH251970   4.511   2.113  12.246 -0.3403  0.3716 -0.3063
10160TIP3    H151971   4.577   2.083  12.309 -1.4362  0.0037  0.7151
10160TIP3    H251972   4.471   2.189  12.288 -0.4578  0.6951 -0.9910
10161TIP3   OH251973   1.904   0.220  13.340 -0.1942 -0.6348 -0.1614
10161TIP3    H151974   1.834   0.172  13.384 -0.6631 -0.5512 -0.8086
10161TIP3    H251975   1.985   0.183  13.376 -0.5591 -0.1038  1.2768
10162TIP3   OH251976   2.221   6.399   2.166  0.3459  0.5639 -0.5788
10162TIP3    H151977   2.168   6.479   2.170  0.1464  0.3884  1.3733
10162TIP3    H251978   2.156   6.329   2.157  0.2360  0.3941  1.2142
10163TIP3   OH251979   5.394   2.516  11.292 -0.3314 -0.2483 -0.5217
10163TIP3    H151980   5.482   2.483  11.306 -1.0930 -2.4861 -0.6647
10163TIP3    H251981   5.350   2.503  11.376  0.0209  2.9660  0.2917
10164TIP3   OH251982   3.060   5.395   3.717 -0.1587  0.2612 -0.1284
10164TIP3    H151983   3.082   5.488   3.725  1.5644 -0.1911  0.9162
10164TIP3    H251984   3.055   5.363   3.807 -0.7243 -0.6759 -0.4758
10165TIP3   OH251985   5.613   5.454  17.129  0.0807 -0.0010 -0.1976
10165TIP3    H151986   5.662   5.383  17.088 -0.7987 -1.6281  1.3953
10165TIP3    H251987   5.593   5.514  17.058  0.0369 -1.8398 -1.8222
10166TIP3   OH251988   3.573   0.567   3.351 -0.6656  0.1584  0.2206
10166TIP3    H151989   3.490   0.575   3.304  0.3969  0.7223 -1.6800
10166TIP3    H251990   3.639   0.575   3.283  0.9900  1.4318  1.8852
10167TIP3   OH251991   5.580   6.627  14.538 -0.1333 -0.1807 -0.5846
10167TIP3    H151992   5.562   6.592  14.626  2.0263  1.0381  0.4085
10167TIP3    H251993   5.552   6.718  14.543 -0.2255 -0.1711 -1.2621
10168TIP3   OH251994   0.426   2.121  14.555  0.1301 -0.6761 -0.1232
10168TIP3    H151995   0.495   2.104  14.490  1.6071  0.8995  0.9301
10168TIP3    H251996   0.474   2.133  14.638 -1.5248 -0.6473  0.8674
10169TIP3   OH251997   6.705   2.685  16.703  0.0755 -0.2038 -0.0860
10169TIP3    H151998   6.645   2.634  16.649  2.0691 -2.1499 -0.6082
10169TIP3    H251999   6.659   2.694  16.787 -1.7193  0.0561 -1.0533
10170TIP3   OH252000   3.052   2.841  15.145 -0.2169  0.2852  0.2050
10170TIP3    H152001   3.031   2.797  15.227  0.2175 -0.6951 -0.1917
10170TIP3    H252002   3.046   2.934  15.165  0.3021  0.0669  1.4648
10171TIP3   OH252003   4.796   0.453  15.304 -0.3099 -0.3185  0.0033
10171TIP3    H152004   4.753   0.368  15.306  0.1883 -0.6107 -0.9217
10171TIP3    H252005   4.866   0.443  15.239 -0.3194  0.8322 -0.2098
10172TIP3   OH252006   3.108   6.547   3.825  0.1847 -0.0429 -0.5623
10172TIP3    H152007   3.016   6.559   3.849  0.2006 -0.1052 -0.4694
10172TIP3    H252008   3.149   6.632   3.843 -0.1672  0.4609 -2.0597
10173TIP3   OH252009   0.823   6.234  16.801 -0.0544 -0.4856 -0.8286
10173TIP3    H152010   0.747   6.290  16.810 -0.4388 -1.0513 -0.4566
10173TIP3    H252011   0.851   6.217  16.892 -0.3771 -1.4607 -0.8978
10174TIP3   OH252012   4.147   6.396   1.206 -0.0907 -0.1605 -0.0111
10174TIP3    H152013   4.153   6.301   1.209  0.1471 -0.2164 -1.4172
10174TIP3    H252014   4.201   6.427   1.278  0.5580 -1.0733 -0.0990
10175TIP3   OH252015   0.275   1.522   4.733  0.0656  0.6549 -0.4086
10175TIP3    H152016   0.210   1.484   4.793 -0.3764 -0.9817 -1.8425
10175TIP3    H252017   0.359   1.506   4.776 -0.3495  1.1972  0.6425
10176TIP3   OH252018   4.174   0.533  15.792  0.1531 -0.1887  0.1094
10176TIP3    H152019   4.135   0.447  15.779  0.1992 -0.0717 -0.8368
10176TIP3    H252020   4.259   0.515  15.833  1.0305 -0.7513 -1.8266
10177TIP3   OH252021   6.667   1.470  14.664 -0.3854  0.1355  0.3642
10177TIP3    H152022   6.618   1.395  14.629 -0.0342 -0.2430  0.6716
10177TIP3    H252023   6.655   1.539  14.599 -1.7306  0.2170  0.6634
10178TIP3   OH252024   0.274   0.242  15.520 -0.1404  0.0106  0.6595
10178TIP3    H152025   0.278   0.170  15.584  1.6427  0.8310  1.5283
10178TIP3    H252026   0.364   0.254  15.493 -0.7361  0.3840 -1.2861
10179TIP3   OH252027   5.362   5.798  15.649 -0.9468  0.5044 -0.4890
10179TIP3    H152028   5.454   5.824  15.647 -0.5906 -0.4985  1.2961
10179TIP3    H252029   5.355   5.729  15.583  0.0216 -0.6661  0.5863
10180TIP3   OH252030   2.879   3.353   1.922  0.6334 -0.2760  0.7247
10180TIP3    H152031   2.927   3.334   2.002  0.0125 -0.2129  1.1177
10180TIP3    H252032   2.855   3.266   1.888  2.2074 -0.3782 -0.2264
10181TIP3   OH252033   0.977   4.759   4.919  0.0428 -0.4035  0.4349
10181TIP3    H152034   1.058   4.801   4.889  0.2344 -1.2969 -0.3440
10181TIP3    H252035   0.953   4.700   4.847 -0.5499 -1.1656  1.2442
10182TIP3   OH252036   2.852   4.832   4.562  0.1202 -0.1557  0.2802
10182TIP3    H152037   2.775   4.883   4.539  2.1993  3.1874  0.0526
10182TIP3    H252038   2.913   4.845   4.490  1.3890 -1.5926  1.0287
10183TIP3   OH252039   6.669   1.997   3.166 -0.3956 -1.5203  0.2008
10183TIP3    H152040   6.631   2.079   3.197  0.4535 -0.5898 -1.1026
10183TIP3    H252041   6.642   1.932   3.231 -0.3225 -0.0478  1.7926
10184TIP3   OH252042   5.657   5.488  11.859  0.4436 -0.0430 -0.0277
10184TIP3    H152043   5.720   5.425  11.823 -0.5957 -0.2621 -1.5726
10184TIP3    H252044   5.617   5.443  11.933  0.0650 -1.0605 -0.8144
10185TIP3   OH252045   3.027   0.539   6.522 -0.2230  0.1936  0.1140
10185TIP3    H152046   3.102   0.502   6.475  0.3567  2.0238 -0.4928
10185TIP3    H252047   2.952   0.522   6.465  0.3350  1.6004 -1.1092
10186TIP3   OH252048   5.029   0.947   0.671  0.6211  0.0678 -0.1249
10186TIP3    H152049   5.069   0.988   0.747 -0.8437  1.0203  0.1671
10186TIP3    H252050   5.081   0.868   0.656  2.5177  1.1884  0.2798
10187TIP3   OH252051   6.734   2.653   5.280  0.1697  0.4146  0.0153
10187TIP3    H152052   6.717   2.611   5.364  0.3325  0.0589 -0.1277
10187TIP3    H252053   6.693   2.597   5.215 -0.7390  1.1647 -0.0787
10188TIP3   OH252054   4.871   0.750  13.638 -0.4864  0.3589  0.1586
10188TIP3    H152055   4.930   0.681  13.609 -0.3938  0.5899 -0.1991
10188TIP3    H252056   4.913   0.785  13.717 -1.7884 -1.7034  1.8966
10189TIP3   OH252057   6.106   4.516  11.378  0.1039 -0.5097  0.2749
10189TIP3    H152058   6.164   4.590  11.395  1.9470 -2.0120  0.8078
10189TIP3    H252059   6.054   4.544  11.302  1.6625  0.8186 -0.3820
10190TIP3   OH252060   6.704   5.730  13.611  0.0780  0.1323 -0.3911
10190TIP3    H152061   6.764   5.662  13.642 -1.3478 -0.4293  1.2784
10190TIP3    H252062   6.748   5.812  13.636  0.5915 -0.2400 -0.0427
10191TIP3   OH252063   3.842   6.503  15.372  0.2186  0.3269 -0.2759
10191TIP3    H152064   3.832   6.471  15.282  0.6445  0.4858 -0.3855
10191TIP3    H252065   3.753   6.512  15.405  0.0724 -2.0616  0.1596
10192TIP3   OH252066   0.281   2.643   5.937  0.6708  0.0659 -0.3605
10192TIP3    H152067   0.309   2.562   5.979  0.3255 -0.6241 -1.4253
10192TIP3    H252068   0.210   2.617   5.878  1.3194  0.9416 -1.5865
10193TIP3   OH252069   1.584   6.161  15.635 -0.5949 -0.3610 -0.4901
10193TIP3    H152070   1.584   6.152  15.730  0.3618  0.7225 -0.3613
10193TIP3    H252071   1.661   6.111  15.606  0.0040  0.5382 -0.5223
10194TIP3   OH252072   1.470   1.767   1.573  0.3440 -0.6642 -0.2896
10194TIP3    H152073   1.408   1.792   1.641  1.6989  0.3853  0.6089
10194TIP3    H252074   1.463   1.836   1.507  0.7923 -0.3742 -0.0320
10195TIP3   OH252075   0.481   3.572   4.911  0.0452  0.7356  0.1889
10195TIP3    H152076   0.568   3.542   4.884  0.3106  1.8704 -0.3025
10195TIP3    H252077   0.430   3.572   4.829 -0.0601  1.2172  0.2516
10196TIP3   OH252078   4.876   2.186  16.076  0.0704  0.4246  0.2306
10196TIP3    H152079   4.919   2.121  16.131 -0.0083  1.3041  1.3750
10196TIP3    H252080   4.915   2.270  16.102 -0.6425  0.9673 -0.3842
10197TIP3   OH252081   5.708   6.513   2.130 -0.4713 -0.0084  0.2299
10197TIP3    H152082   5.729   6.431   2.174  0.6758 -0.5890 -1.3321
10197TIP3    H252083   5.773   6.575   2.163  0.4756 -0.4778 -0.7152
10198TIP3   OH252084   0.811   6.381   5.175 -0.1114 -0.0801  0.0019
10198TIP3    H152085   0.797   6.307   5.235  0.4484  0.0201  0.2695
10198TIP3    H252086   0.814   6.341   5.088  0.8243 -0.4688  0.1966
10199TIP3   OH252087   5.755   2.232  13.428  0.1794 -0.1889  0.4834
10199TIP3    H152088   5.671   2.241  13.385 -1.0355  2.0597  3.0602
10199TIP3    H252089   5.751   2.146  13.471 -0.0865 -0.7754 -0.6531
10200TIP3   OH252090   2.985   6.157   1.461  0.2019 -0.5356 -0.1730
10200TIP3    H152091   2.926   6.111   1.520  1.4825 -1.3180  0.5526
10200TIP3    H252092   2.940   6.238   1.440 -0.5921 -0.5517  1.3368
10201TIP3   OH252093   4.480   3.842   2.349 -0.1868  0.4316 -0.0839
10201TIP3    H152094   4.425   3.885   2.284  1.3591  0.4966 -1.4065
10201TIP3    H252095   4.558   3.897   2.354  0.2016 -0.2009  0.9996
10202TIP3   OH252096   0.048   5.557   4.328 -0.4539 -0.9158  1.1441
10202TIP3    H152097   0.115   5.496   4.298 -0.0260 -0.7457  1.7402
10202TIP3    H252098   0.043   5.543   4.422  0.9129  1.1678  1.6116
10203TIP3   OH252099   1.531   1.338  16.040  0.0177 -0.2877 -0.5297
10203TIP3    H152100   1.552   1.430  16.027  1.7498 -0.3028  1.6135
10203TIP3    H252101   1.616   1.295  16.052 -0.8461 -1.6605  1.2662
10204TIP3   OH252102   5.161   4.746  13.380 -0.4111 -0.3692 -0.1143
10204TIP3    H152103   5.066   4.743  13.387 -0.5954  2.4408 -0.3023
10204TIP3    H252104   5.178   4.803  13.305  1.4414 -0.4587  0.1797
10205TIP3   OH252105   4.107   2.021  13.988  0.0830  0.0107  0.3764
10205TIP3    H152106   4.197   1.991  14.000  0.0531 -0.0486  0.4492
10205TIP3    H252107   4.109   2.070  13.905  0.2538  0.3035  0.5545
10206TIP3   OH252108   2.794   3.275   4.410 -0.0322  0.5414  0.1862
10206TIP3    H152109   2.785   3.253   4.317  0.6170  0.0911  0.2228
10206TIP3    H252110   2.858   3.212   4.443 -1.3940 -0.3100  1.2956
10207TIP3   OH252111   3.235   4.963   0.304 -0.0988  0.7165  0.5757
10207TIP3    H152112   3.306   5.026   0.316  0.8194  0.0507 -1.1417
10207TIP3    H252113   3.278   4.878   0.297 -0.9572  0.3862 -1.2784
10208TIP3   OH252114   4.546   5.957  12.469 -0.2639 -0.3695  0.5872
10208TIP3    H152115   4.600   5.968  12.390  1.8177  2.0806  2.1609
10208TIP3    H252116   4.461   5.993  12.445  0.1546 -0.1717 -0.6929
10209TIP3   OH252117   5.539   4.844   2.705 -0.2215  0.6715 -0.2187
10209TIP3    H152118   5.459   4.831   2.654 -0.1378 -1.5846  0.1340
10209TIP3    H252119   5.600   4.885   2.644 -1.3998  1.8155 -0.6906
10210TIP3   OH252120   0.880   6.311   2.403 -0.6483 -0.2301 -0.4573
10210TIP3    H152121   0.817   6.361   2.352  0.1925  0.4884 -0.8156
10210TIP3    H252122   0.890   6.229   2.355  0.2541  0.5015 -1.5577
10211TIP3   OH252123   4.155   3.497  12.809  0.6405 -0.2033 -0.0032
10211TIP3    H152124   4.118   3.444  12.738 -0.3466  0.6772 -0.1802
10211TIP3    H252125   4.204   3.435  12.862 -0.8469 -1.3943  0.0555
10212TIP3   OH252126   5.677   3.304   5.786 -0.2547 -0.4960  0.1335
10212TIP3    H152127   5.686   3.398   5.769 -0.1145 -0.7451 -1.3526
10212TIP3    H252128   5.766   3.272   5.792 -0.2844 -0.6594 -0.2385
10213TIP3   OH252129   3.961   4.153   2.250  0.5338 -0.4050 -0.2546
10213TIP3    H152130   4.003   4.109   2.325 -0.4532 -1.1927 -0.1474
10213TIP3    H252131   4.019   4.134   2.177  0.7132 -0.9458  0.0155
10214TIP3   OH252132   5.686   5.159   1.831 -0.4306 -0.6233 -0.1416
10214TIP3    H152133   5.744   5.085   1.846  1.2046  0.4650 -0.8431
10214TIP3    H252134   5.734   5.235   1.866 -0.6844  0.5540 -2.1901
10215TIP3   OH252135   6.094   6.489   1.180  0.0536 -0.2357  0.0511
10215TIP3    H152136   6.029   6.523   1.242 -0.1109 -0.6067  0.0854
10215TIP3    H252137   6.050   6.415   1.138  0.5855 -0.7107  0.3290
10216TIP3   OH252138   1.489   3.281  16.910 -0.0368  0.3508  0.0183
10216TIP3    H152139   1.428   3.352  16.931 -0.5400 -0.5557  1.8245
10216TIP3    H252140   1.434   3.204  16.902  0.7860 -0.3442  0.8983
10217TIP3   OH252141   0.816   2.632   1.686  0.1115 -0.4330  0.2834
10217TIP3    H152142   0.747   2.652   1.749  0.1659 -0.6360  0.4063
10217TIP3    H252143   0.801   2.540   1.663  0.1773 -0.3999  0.1063
10218TIP3   OH252144   0.449   0.889   0.408  0.2689  0.2511  0.5716
10218TIP3    H152145   0.457   0.892   0.503  0.9853 -0.7396  0.5665
10218TIP3    H252146   0.404   0.806   0.391  0.0890  0.4549  0.0488
10219TIP3   OH252147   2.715   6.344   3.172 -0.2770  0.2523 -0.0378
10219TIP3    H152148   2.780   6.337   3.242  0.0689 -0.7190 -0.4384
10219TIP3    H252149   2.744   6.419   3.121  2.3694 -1.8671 -1.9822
10220TIP3   OH252150   1.608   1.440   4.584  0.7333  0.7774 -0.1062
10220TIP3    H152151   1.611   1.403   4.496  2.4907  3.0748 -1.1083
10220TIP3    H252152   1.515   1.434   4.609  0.4611 -1.4346 -1.3771
10221TIP3   OH252153   1.957   3.247   1.092  0.4706 -0.2889  0.4963
10221TIP3    H152154   1.926   3.337   1.104 -0.5627 -0.9159  3.1614
10221TIP3    H252155   2.040   3.257   1.046  0.5422  2.0678  1.0004
10222TIP3   OH252156   0.628   2.952  16.812  0.3691 -0.1310 -0.1745
10222TIP3    H152157   0.569   2.999  16.752 -0.2577  0.7092  1.0554
10222TIP3    H252158   0.570   2.898  16.865  1.1879 -3.8145 -2.7127
10223TIP3   OH252159   5.359   4.555   2.488  0.4862 -0.0319 -0.0088
10223TIP3    H152160   5.389   4.626   2.432 -1.1306  0.6617 -0.0398
10223TIP3    H252161   5.373   4.476   2.436  0.6835  0.4233 -0.6634
10224TIP3   OH252162   2.232   0.492   4.307  0.8872  0.3088 -0.2235
10224TIP3    H152163   2.198   0.519   4.221  1.4477  0.2654 -0.4620
10224TIP3    H252164   2.270   0.405   4.292  1.5790  0.5821 -0.0834
10225TIP3   OH252165   5.375   3.939   3.711 -0.7370  0.3362 -0.2472
10225TIP3    H152166   5.353   4.018   3.661 -1.8755  1.1320  1.4412
10225TIP3    H252167   5.342   3.956   3.799 -1.6720 -2.3147  0.0095
10226TIP3   OH252168   0.724   0.015  10.753 -0.0498 -0.3213  0.0644
10226TIP3    H152169   0.678  -0.035  10.686 -0.6582 -0.7695  0.7995
10226TIP3    H252170   0.656   0.041  10.815  0.2837  1.2335 -0.1628
10227TIP3   OH252171   0.253   4.665  11.495  0.2112  0.0163  0.2546
10227TIP3    H152172   0.278   4.683  11.404  3.7636  1.1900  1.2894
10227TIP3    H252173   0.248   4.752  11.536  0.3067 -0.5691  1.5368
10228TIP3   OH252174   0.212   2.846   2.859 -0.0767 -0.0500  0.2001
10228TIP3    H152175   0.231   2.756   2.831 -0.7285  0.2758 -1.3898
10228TIP3    H252176   0.291   2.872   2.907  1.6187 -0.3468 -2.2061
10229TIP3   OH252177   2.515   3.309   4.489  0.2567  0.4958 -0.9636
10229TIP3    H152178   2.611   3.309   4.491  0.2763  2.1200  1.5620
10229TIP3    H252179   2.492   3.389   4.441  0.0816 -0.4756 -2.5976
10230TIP3   OH252180   3.629   4.104  16.216  0.5804 -0.5616  0.5521
10230TIP3    H152181   3.621   4.031  16.278 -0.5549  0.3320  1.5137
10230TIP3    H252182   3.628   4.182  16.271  3.1222  0.1799 -0.3494
10231TIP3   OH252183   1.017   5.233   1.333  0.3630 -0.5500  0.1027
10231TIP3    H152184   1.110   5.222   1.355  0.6396 -0.0802 -0.7532
10231TIP3    H252185   1.008   5.328   1.319 -0.4575 -0.4765  1.0421
10232TIP3   OH252186   5.536   6.542   2.862  0.6597  0.3399  0.2705
10232TIP3    H152187   5.621   6.511   2.833  0.9431  0.3271  1.0998
10232TIP3    H252188   5.543   6.549   2.957  0.7294  3.1736  0.1658
10233TIP3   OH252189   2.769   5.652  16.178  0.3526  0.0566  0.9718
10233TIP3    H152190   2.716   5.694  16.246 -0.6079  0.4516  0.0080
10233TIP3    H252191   2.758   5.558  16.194 -2.1822  0.0486 -0.2623
10234TIP3   OH252192   4.418   4.808   0.401 -0.2030 -0.2013 -0.3027
10234TIP3    H152193   4.415   4.722   0.445  1.7168 -0.1121  0.1077
10234TIP3    H252194   4.378   4.868   0.464  0.3011 -0.4862  0.3114
10235TIP3   OH252195   0.523   3.250  14.700 -0.0869  0.5138 -0.4878
10235TIP3    H152196   0.450   3.256  14.639  0.4011  0.3733 -1.0970
10235TIP3    H252197   0.600   3.274  14.648  0.5249 -0.9227 -0.3075
10236TIP3   OH252198   2.792   2.315   6.030 -0.0172  0.1746  0.5282
10236TIP3    H152199   2.873   2.312   5.980  0.4882 -1.0794  1.3432
10236TIP3    H252200   2.818   2.345   6.117 -0.8102  1.9263  0.1998
10237TIP3   OH252201   3.114   1.450  15.216  0.1032 -0.0935  0.5016
10237TIP3    H152202   3.068   1.422  15.137  0.1758  1.1076  0.0068
10237TIP3    H252203   3.107   1.376  15.276 -0.1724 -0.9244 -0.5395
10238TIP3   OH252204   5.581   2.400   3.446 -0.3569  0.1961  0.4395
10238TIP3    H152205   5.607   2.465   3.381 -2.0425  0.2932 -0.1789
10238TIP3    H252206   5.548   2.451   3.520 -2.6649  0.1090 -0.4580
10239TIP3   OH252207   1.830   0.499   3.199  0.5565 -0.4171 -0.0503
10239TIP3    H152208   1.829   0.594   3.187  0.4200 -0.2064  1.4571
10239TIP3    H252209   1.923   0.478   3.212  0.5020 -0.3877  0.3782
10240TIP3   OH252210   3.565   0.881   6.121  0.2860 -0.1688 -0.3905
10240TIP3    H152211   3.524   0.797   6.141 -1.3929  0.0037 -2.6982
10240TIP3    H252212   3.527   0.942   6.184  1.2997 -1.0162  1.1154
10241TIP3   OH252213   2.433   0.067  14.351  0.0245  0.1447  0.0964
10241TIP3    H152214   2.386   0.147  14.324  0.9097  0.6200 -0.0691
10241TIP3    H252215   2.364   0.003  14.365 -0.6155  0.4312 -1.4959
10242TIP3   OH252216   6.573   1.117  12.901  0.0737  0.9752 -0.2173
10242TIP3    H152217   6.543   1.135  12.990  1.5405  1.7075  0.1535
10242TIP3    H252218   6.607   1.027  12.905 -1.7923  0.1918 -0.6058
10243TIP3   OH252219   0.499   6.023   0.989  0.2612 -0.2883  0.4689
10243TIP3    H152220   0.487   6.090   0.921  0.6422 -1.3868 -0.7053
10243TIP3    H252221   0.476   5.941   0.947  1.9105 -1.1882  1.2219
10244TIP3   OH252222   4.189   2.829  16.860 -0.1945  0.0658 -0.2183
10244TIP3    H152223   4.269   2.822  16.808 -0.0253 -0.5216  0.1159
10244TIP3    H252224   4.210   2.895  16.927  0.2521 -0.5763  0.2883
10245TIP3   OH252225   2.064   6.737   3.564 -0.0326  0.4510 -0.0556
10245TIP3    H152226   2.013   6.796   3.620 -0.2168  1.4511 -1.2368
10245TIP3    H252227   2.153   6.741   3.599 -0.1239  1.1359  0.1051
10246TIP3   OH252228   2.481   0.636   4.543  0.4312  0.8570  0.1095
10246TIP3    H152229   2.415   0.705   4.545  1.2238  1.6229  1.8224
10246TIP3    H252230   2.514   0.637   4.453 -0.5305  1.7619 -0.2572
10247TIP3   OH252231   0.566   5.540  14.070 -0.2130 -0.1330 -0.2304
10247TIP3    H152232   0.516   5.621  14.067 -1.2838 -0.7963 -1.3557
10247TIP3    H252233   0.645   5.562  14.119 -1.7338  0.8656  1.9207
10248TIP3   OH252234   4.237   1.442  13.601  0.2193 -0.5135 -0.1527
10248TIP3    H152235   4.220   1.536  13.614 -0.0995 -0.4717 -0.7872
10248TIP3    H252236   4.308   1.422  13.661  1.4208  0.5209 -1.1705
10249TIP3   OH252237   1.552   2.145  13.405  0.2132 -0.4014  0.1754
10249TIP3    H152238   1.628   2.085  13.404  0.3322 -0.2520  0.2794
10249TIP3    H252239   1.477   2.087  13.394  0.2062 -0.7447  1.7907
10250TIP3   OH252240   2.770   1.319  13.498  0.2951  0.1786 -0.2807
10250TIP3    H152241   2.778   1.329  13.403  1.8547 -0.5303 -0.2673
10250TIP3    H252242   2.780   1.408  13.532 -3.1071  0.9005 -0.8388
10251TIP3   OH252243   3.361   2.579  12.136  0.1472 -0.7029  0.0403
10251TIP3    H152244   3.427   2.529  12.087  0.9518 -0.8443  1.2260
10251TIP3    H252245   3.383   2.670  12.120 -2.1368 -0.5579 -3.2470
10252TIP3   OH252246   0.920   2.789  13.828 -0.4593  0.4072  0.4407
10252TIP3    H152247   0.894   2.734  13.753 -0.5516 -0.4594  1.0888
10252TIP3    H252248   0.865   2.867  13.821 -0.3124  0.4424 -0.5154
10253TIP3   OH252249   2.151   3.732  15.093 -0.1688  0.3390 -0.0664
10253TIP3    H152250   2.183   3.819  15.069 -0.4737  0.5591  0.3199
10253TIP3    H252251   2.115   3.696  15.011  1.0188  0.0972 -0.5055
10254TIP3   OH252252   4.971   2.887  12.953 -0.2141  0.5353  0.1597
10254TIP3    H152253   5.034   2.874  13.024 -0.5523  0.4765  0.4533
10254TIP3    H252254   5.015   2.947  12.893  0.3517  0.0397  0.0647
10255TIP3   OH252255   2.907   4.582  13.491 -0.4608 -0.8319 -0.1701
10255TIP3    H152256   2.949   4.612  13.410  0.8216  1.2791  1.1752
10255TIP3    H252257   2.869   4.662  13.529 -2.1610 -2.0036  0.7180
10256TIP3   OH252258   5.116   4.047  11.034  0.3952 -0.1155 -0.4037
10256TIP3    H152259   5.065   4.114  10.988 -0.0620 -0.3790 -0.2867
10256TIP3    H252260   5.142   4.089  11.116  0.0283 -0.1113 -0.2891
10257TIP3   OH252261   4.198   5.156  13.216  0.2204  0.0971 -0.2339
10257TIP3    H152262   4.110   5.133  13.246 -0.1597  2.0666  0.3266
10257TIP3    H252263   4.252   5.152  13.295  0.5686 -0.7025 -0.4998
10258TIP3   OH252264   2.082   4.976   6.926 -0.1704 -0.0944  0.4342
10258TIP3    H152265   2.164   4.926   6.922 -0.2000 -0.0543 -1.0802
10258TIP3    H252266   2.041   4.962   6.841 -1.0009  1.1424  0.6050
10259TIP3   OH252267   2.327   6.418  12.263 -0.4089  0.1566 -0.2007
10259TIP3    H152268   2.260   6.429  12.331 -0.2631  0.5822 -0.1254
10259TIP3    H252269   2.384   6.494  12.272 -1.1745  0.9697 -1.6961
10260TIP3   OH252270   0.703   4.700   0.905  0.4114 -0.0640  0.4351
10260TIP3    H152271   0.612   4.728   0.896  0.3780 -0.5143 -0.7797
10260TIP3    H252272   0.754   4.780   0.892  0.3334 -0.4192 -3.3275
10261TIP3   OH252273   5.560   5.889  14.126  0.1736  0.0501  0.3220
10261TIP3    H152274   5.538   5.797  14.117  0.1739  0.0834 -0.0289
10261TIP3    H252275   5.644   5.898  14.080  0.4849  0.0983  0.8926
10262TIP3   OH252276   0.177   2.930  16.886 -0.5831 -0.1356 -0.1546
10262TIP3    H152277   0.149   2.896  16.802  0.6110 -0.5244 -0.4192
10262TIP3    H252278   0.131   2.877  16.951 -0.3294 -0.8701 -0.5709
10263TIP3   OH252279   4.548   6.632   2.850  0.4271 -0.2509  0.6509
10263TIP3    H152280   4.602   6.684   2.910  0.4262  0.2978  0.1797
10263TIP3    H252281   4.611   6.581   2.799  0.5263  0.6522 -0.1426
10264TIP3   OH252282   4.653   3.740   3.156 -0.3967 -0.5293  0.0069
10264TIP3    H152283   4.707   3.722   3.233  1.0664  2.2890 -0.2086
10264TIP3    H252284   4.711   3.724   3.081 -0.1796  1.3313 -0.2763
10265TIP3   OH252285   6.426   0.971  12.112 -0.0561  0.1528 -0.8581
10265TIP3    H152286   6.494   0.957  12.178 -0.9357 -0.0026  0.0447
10265TIP3    H252287   6.439   0.901  12.048 -0.9700 -1.5321  0.6969
10266TIP3   OH252288   3.498   5.104  13.415 -0.4082 -0.1559 -0.7565
10266TIP3    H152289   3.566   5.165  13.385 -0.2559 -0.3958 -0.9077
10266TIP3    H252290   3.417   5.153  13.409 -0.0418  0.7794  1.2128
10267TIP3   OH252291   4.918   0.202   3.426  0.0339  0.1230 -0.2393
10267TIP3    H152292   4.950   0.212   3.336  0.2809  1.4756 -0.0265
10267TIP3    H252293   4.824   0.220   3.420 -0.0858 -0.5456 -0.3474
10268TIP3   OH252294   4.298   3.206  14.360  0.0733  0.2207  0.0478
10268TIP3    H152295   4.319   3.263  14.434  0.4822 -0.1854  0.2529
10268TIP3    H252296   4.203   3.194  14.365  0.1903 -0.4368  0.9926
10269TIP3   OH252297   5.775   6.190   2.905 -0.1541  0.0795 -0.2277
10269TIP3    H152298   5.842   6.239   2.857 -0.2437  0.0817 -0.3527
10269TIP3    H252299   5.695   6.202   2.853  0.5200 -3.1599 -2.3406
10270TIP3   OH252300   1.956   0.767   0.884 -0.3217  0.2859  0.2622
10270TIP3    H152301   2.000   0.746   0.802  0.0824 -1.2444  0.8285
10270TIP3    H252302   1.862   0.761   0.863 -0.3188 -3.3927  0.5467
10271TIP3   OH252303   6.287   4.789  15.005  0.1062 -0.3561  0.1552
10271TIP3    H152304   6.326   4.704  14.987  0.3618 -0.1095 -0.5143
10271TIP3    H252305   6.361   4.850  15.004 -0.0059 -0.1807  1.0978
10272TIP3   OH252306   4.625   4.518   5.497  0.2418  0.0088 -0.0318
10272TIP3    H152307   4.537   4.529   5.534  1.1194 -1.0517  2.5959
10272TIP3    H252308   4.617   4.444   5.438 -0.7634  0.3520 -0.3558
10273TIP3   OH252309   2.039   3.216  13.851  0.3469  0.4017 -0.2043
10273TIP3    H152310   2.084   3.152  13.795  0.0783 -2.4821  2.5664
10273TIP3    H252311   1.948   3.212  13.823  0.4472  0.0751 -0.5024
10274TIP3   OH252312   5.222   0.002  14.148  0.2416  0.1637  0.1394
10274TIP3    H152313   5.268  -0.082  14.149 -1.6747 -0.9929 -1.2852
10274TIP3    H252314   5.148  -0.011  14.208  0.2790  1.0697  0.3874
10275TIP3   OH252315   6.207   4.788  15.263 -0.0615  0.8187  0.1203
10275TIP3    H152316   6.243   4.869  15.299  0.7552  0.1226  0.9325
10275TIP3    H252317   6.222   4.794  15.169 -4.1937  3.6857 -0.6558
10276TIP3   OH252318   6.529   6.185   2.521  0.2054  0.6046  0.5433
10276TIP3    H152319   6.468   6.239   2.470  0.7362 -0.3423 -1.1935
10276TIP3    H252320   6.554   6.240   2.595 -3.9545  0.5032  2.3256
10277TIP3   OH252321   2.190   5.998  15.764 -0.5351  0.0939  0.5506
10277TIP3    H152322   2.237   5.992  15.847 -0.2595 -0.0373  0.3824
10277TIP3    H252323   2.191   5.909  15.729  1.4447  0.5686 -0.7520
10278TIP3   OH252324   2.054   6.437   1.121 -0.2548  0.1119  0.1436
10278TIP3    H152325   2.006   6.357   1.100  0.4429 -0.3280  0.1977
10278TIP3    H252326   2.071   6.431   1.215  0.3834 -0.0090  0.0274
10279TIP3   OH252327   5.299   1.765   5.534  0.0481  1.0478  0.4558
10279TIP3    H152328   5.315   1.859   5.546  3.4401  0.5770  0.5644
10279TIP3    H252329   5.283   1.732   5.622 -0.7384  1.4339  0.4653
10280TIP3   OH252330   6.691   5.073   3.098  0.8888 -0.2175  0.8113
10280TIP3    H152331   6.694   5.160   3.138  1.9325  0.5166 -0.7558
10280TIP3    H252332   6.723   5.086   3.009 -1.4115 -1.7572 -0.3395
10281TIP3   OH252333   5.151   3.013  15.233 -0.3469  0.5334  0.5837
10281TIP3    H152334   5.172   2.927  15.269  0.8155  0.7459  0.4643
10281TIP3    H252335   5.228   3.036  15.180 -1.1748  1.0955 -0.4170
10282TIP3   OH252336   1.712   2.500   2.422  0.0218 -0.2849 -0.3233
10282TIP3    H152337   1.693   2.572   2.483 -1.1476 -1.1751  0.3837
10282TIP3    H252338   1.700   2.539   2.336  0.6738  0.7141  0.0109
10283TIP3   OH252339   5.126   2.378   4.367  0.8895  0.0800  0.0519
10283TIP3    H152340   5.214   2.384   4.404  0.8678 -1.1786  0.3540
10283TIP3    H252341   5.068   2.373   4.443  0.7884 -1.7484 -0.0876
10284TIP3   OH252342   4.227   2.498  11.649  0.3092 -0.5811  0.1432
10284TIP3    H152343   4.269   2.576  11.687 -0.2987  0.0186 -0.3809
10284TIP3    H252344   4.282   2.425  11.678 -0.6130 -0.2823  2.9304
10285TIP3   OH252345   5.639   4.397   1.389 -0.2745 -0.3034  0.0491
10285TIP3    H152346   5.570   4.406   1.323 -0.6446  1.3564  0.6074
10285TIP3    H252347   5.600   4.433   1.469  0.6500 -0.9735  0.8191
10286TIP3   OH252348   2.757   0.893   0.554 -0.2389  0.0698  0.1736
10286TIP3    H152349   2.735   0.976   0.597 -0.7424  0.8924 -1.5987
10286TIP3    H252350   2.804   0.918   0.475 -3.9383 -0.9795 -2.6254
10287TIP3   OH252351   3.879   5.607  15.394  0.0298  0.2282  0.4114
10287TIP3    H152352   3.964   5.639  15.423  0.8227 -1.4974  0.0802
10287TIP3    H252353   3.824   5.686  15.390  2.3934  1.9169 -2.3506
10288TIP3   OH252354   0.521   6.799   3.536  0.1039  1.0590  0.3639
10288TIP3    H152355   0.599   6.745   3.522 -0.6694 -0.6766  2.2379
10288TIP3    H252356   0.545   6.858   3.608 -0.7638 -0.6910  2.1971
10289TIP3   OH252357   6.446   4.999   1.853  0.7314 -0.5193 -0.5797
10289TIP3    H152358   6.442   5.031   1.763 -2.2929  1.7377  0.1872
10289TIP3    H252359   6.464   4.905   1.845 -2.8052 -1.1423 -3.7778
10290TIP3   OH252360   2.335   0.341  14.309 -0.1462 -0.0609  0.6393
10290TIP3    H152361   2.344   0.387  14.225  0.1876 -0.5497  0.4007
10290TIP3    H252362   2.249   0.367  14.342 -0.2141  0.2552  0.2166
10291TIP3   OH252363   4.221   4.524  12.750  0.0453 -0.2046  0.1960
10291TIP3    H152364   4.303   4.490  12.786  0.9008  1.1875 -0.3668
10291TIP3    H252365   4.163   4.448  12.747  1.8872 -1.6506 -1.0969
10292TIP3   OH252366   0.496   6.516   4.258  0.3223  0.0793  0.5848
10292TIP3    H152367   0.452   6.480   4.335 -0.8790  0.1550 -0.0488
10292TIP3    H252368   0.470   6.608   4.256 -1.3437 -0.3638 -1.0207
10293TIP3   OH252369   6.173   6.124  16.452 -0.5462  0.0824  0.6208
10293TIP3    H152370   6.251   6.091  16.497 -1.0427  0.9164  2.1688
10293TIP3    H252371   6.178   6.086  16.364  1.0624 -0.6921  1.0084
10294TIP3   OH252372   2.882   3.926   0.393 -0.2950 -0.1726 -0.1268
10294TIP3    H152373   2.877   3.961   0.481 -1.2883  0.4610 -0.4262
10294TIP3    H252374   2.801   3.876   0.382 -0.9273  1.0442 -1.2108
10295TIP3   OH252375   5.711   4.411   2.883 -0.2795  0.2993 -0.2886
10295TIP3    H152376   5.679   4.471   2.815  1.3898 -0.1541 -1.5366
10295TIP3    H252377   5.803   4.399   2.863 -0.1324 -1.1832  1.0953
10296TIP3   OH252378   2.461   2.413   0.877  0.0980 -0.3300  0.2109
10296TIP3    H152379   2.512   2.451   0.806  0.4677 -1.5694 -0.2133
10296TIP3    H252380   2.499   2.450   0.957 -0.1931  0.9121 -0.2058
10297TIP3   OH252381   5.619   4.255   4.024  0.0277 -0.1376 -1.1649
10297TIP3    H152382   5.527   4.243   3.999  0.3713 -0.9933 -2.0448
10297TIP3    H252383   5.616   4.325   4.090 -1.4343 -1.2411  0.0259
10298TIP3   OH252384   3.184   1.534  12.166 -0.0305 -0.3417 -0.0056
10298TIP3    H152385   3.183   1.566  12.076  1.4390 -0.2379  0.0028
10298TIP3    H252386   3.232   1.600  12.215  0.4012 -1.0761  0.5884
10299TIP3   OH252387   3.017   0.096   4.164  0.7609  0.0016  0.5474
10299TIP3    H152388   2.985   0.119   4.076 -0.1035 -0.7641  0.6459
10299TIP3    H252389   3.080   0.025   4.148 -0.7790 -1.4409  0.6603
10300TIP3   OH252390   0.860   1.227  15.802  0.1689 -0.4025  0.2651
10300TIP3    H152391   0.876   1.321  15.813  1.7653 -0.6790  0.5027
10300TIP3    H252392   0.808   1.203  15.878 -2.9222  0.8065 -1.2554
10301TIP3   OH252393   3.215   5.960  14.703  0.4433 -0.3848 -0.1778
10301TIP3    H152394   3.131   5.923  14.730 -0.1385  1.7092  1.0720
10301TIP3    H252395   3.194   6.014  14.627  1.5085 -3.4459 -2.8869
10302TIP3   OH252396   1.394   4.455  13.614  0.2591 -0.3322  0.0586
10302TIP3    H152397   1.424   4.407  13.536 -0.9277 -0.2754 -0.4391
10302TIP3    H252398   1.452   4.423  13.684  1.8813  0.2068 -0.9745
10303TIP3   OH252399   5.505   4.900   0.040 -0.4522 -0.2841 -0.0139
10303TIP3    H152400   5.509   4.990   0.073  0.0927 -0.4550  0.4050
10303TIP3    H252401   5.452   4.905  -0.040  0.1527  0.5210 -0.3726
10304TIP3   OH252402   1.074   4.235  13.631  0.3498  0.1904 -0.0946
10304TIP3    H152403   0.985   4.198  13.633  0.4474 -0.0077  0.9675
10304TIP3    H252404   1.064   4.324  13.664  0.4601  0.3864 -0.5762
10305TIP3   OH252405   0.488   6.762  16.702  0.3914  0.3525 -0.3433
10305TIP3    H152406   0.551   6.696  16.673 -2.3218 -1.9765 -1.4696
10305TIP3    H252407   0.531   6.846  16.686  3.5093 -1.0865 -0.1309
10306TIP3   OH252408   1.731   6.152   1.443 -0.0041 -0.3639 -0.1521
10306TIP3    H152409   1.820   6.142   1.478 -0.2349  0.4555  0.7007
10306TIP3    H252410   1.681   6.083   1.486 -0.2314  0.4853  0.9963
10307TIP3   OH252411   2.340   3.299  15.782  0.1627  0.3800  0.2593
10307TIP3    H152412   2.390   3.358  15.725 -0.8929 -0.2315 -1.3614
10307TIP3    H252413   2.295   3.240  15.722  1.2937 -2.2234  1.8098
10308TIP3   OH252414   2.954   4.766  12.005 -0.1738 -0.1358  0.5886
10308TIP3    H152415   2.964   4.858  11.981  2.1662 -0.8199 -1.4862
10308TIP3    H252416   3.021   4.751  12.072  2.9540 -1.2698 -2.4886
10309TIP3   OH252417   4.371   2.764   3.701  0.0763 -0.3158 -0.4377
10309TIP3    H152418   4.443   2.732   3.754 -1.1283  0.1880  1.6266
10309TIP3    H252419   4.357   2.854   3.731 -2.4568 -0.9276  0.5373
10310TIP3   OH252420   5.049   0.107  12.170 -0.2923 -0.6865  0.7489
10310TIP3    H152421   5.049   0.202  12.161 -2.7420 -0.6354  0.7446
10310TIP3    H252422   5.094   0.076  12.091  1.2966  0.4249  1.1439
10311TIP3   OH252423   0.002   6.267   5.108 -0.4347 -0.1807  0.1884
10311TIP3    H152424   0.093   6.253   5.134 -0.2018 -1.2605 -1.0826
10311TIP3    H252425  -0.046   6.196   5.149 -0.1666 -1.5066 -1.6894
10312TIP3   OH252426   3.181   1.093   4.697 -0.5067  0.7743  0.3201
10312TIP3    H152427   3.092   1.071   4.724 -0.6851  1.4663  0.3040
10312TIP3    H252428   3.231   1.094   4.779 -0.8402  1.8895  0.5301
10313TIP3   OH252429   4.105   4.180   5.790 -0.1121  0.4254 -0.1255
10313TIP3    H152430   4.151   4.162   5.872  1.4005 -0.3391 -1.1127
10313TIP3    H252431   4.155   4.250   5.748  0.9264 -1.2231 -1.7704
10314TIP3   OH252432   6.103   5.675   1.453 -0.7248 -0.5610 -0.1449
10314TIP3    H152433   6.103   5.770   1.456 -0.7459 -0.5247 -1.1000
10314TIP3    H252434   6.085   5.648   1.543 -1.7925  0.3383 -0.0818
10315TIP3   OH252435   0.935   5.133   1.664  0.2514  0.0273 -0.1714
10315TIP3    H152436   0.999   5.192   1.705 -0.7855  1.2575 -0.2440
10315TIP3    H252437   0.858   5.140   1.720 -0.4561  0.0529 -1.1208
10316TIP3   OH252438   6.548   1.517   3.906 -0.3214  0.2967 -0.0844
10316TIP3    H152439   6.522   1.429   3.937  0.7052  0.0699  0.1572
10316TIP3    H252440   6.465   1.557   3.879 -0.8905 -0.5232  0.3683
10317TIP3   OH252441   4.397   1.608   1.708 -0.4235  0.2677 -0.1160
10317TIP3    H152442   4.315   1.566   1.734 -0.4352  0.6257  0.4584
10317TIP3    H252443   4.464   1.565   1.762 -0.3957  0.7554  0.2531
10318TIP3   OH252444   4.779   4.253  11.561  0.0523 -0.1240 -0.6036
10318TIP3    H152445   4.850   4.233  11.500  0.3482  0.5057 -0.4773
10318TIP3    H252446   4.822   4.257  11.647 -0.0145  0.8522 -0.6007
10319TIP3   OH252447   5.486   4.407   1.165 -0.0628  0.0167 -0.4774
10319TIP3    H152448   5.427   4.334   1.145 -0.5480  0.0904  0.6146
10319TIP3    H252449   5.440   4.484   1.132 -0.9765  0.1687  1.0741
10320TIP3   OH252450   6.627   3.260  14.343  0.2809 -0.3985 -0.6133
10320TIP3    H152451   6.539   3.267  14.307  0.4476 -0.5862 -1.0749
10320TIP3    H252452   6.648   3.166  14.335  2.2832  0.1759 -4.8765
10321TIP3   OH252453   2.959   1.986  10.854 -0.3794  0.0939 -0.0870
10321TIP3    H152454   3.048   2.019  10.869 -0.4008  0.0921  0.0481
10321TIP3    H252455   2.947   1.918  10.920 -0.1581 -0.5308 -0.6820
10322TIP3   OH252456   5.899   1.171   6.115 -0.2118  0.7657  0.0397
10322TIP3    H152457   5.902   1.083   6.078 -2.5755  1.1266 -1.2392
10322TIP3    H252458   5.984   1.209   6.092  0.7727 -1.0703  0.4350
10323TIP3   OH252459   5.752   0.268   2.885  0.3198 -0.0620 -0.4997
10323TIP3    H152460   5.676   0.315   2.919  0.5783  0.4416 -0.6108
10323TIP3    H252461   5.735   0.176   2.906  1.2761  0.3408  2.6388
10324TIP3   OH252462   2.006   3.315  12.258 -0.6523 -0.1907 -0.0080
10324TIP3    H152463   1.967   3.230  12.239 -2.2057  0.6607 -0.8218
10324TIP3    H252464   2.096   3.308  12.226 -0.0670 -2.1904  1.8568
10325TIP3   OH252465   1.923   2.717  11.169  0.2422 -0.2224 -0.5715
10325TIP3    H152466   2.008   2.733  11.211 -0.1568  1.9690 -0.5308
10325TIP3    H252467   1.877   2.800  11.175 -1.0732 -0.7580 -2.5466
10326TIP3   OH252468   0.962   4.963   3.108 -0.4531  0.2762  0.5404
10326TIP3    H152469   1.033   4.906   3.078 -1.1753  0.1335 -1.0058
10326TIP3    H252470   0.982   5.048   3.069 -1.0731  0.2543  0.1559
10327TIP3   OH252471   3.054   5.503  13.179 -0.1732 -0.2755 -0.2880
10327TIP3    H152472   3.068   5.427  13.123 -0.0301 -0.2706 -0.2578
10327TIP3    H252473   3.125   5.500  13.242 -2.5696 -2.6926  2.5841
10328TIP3   OH252474   3.334   4.449   3.648  0.2058 -0.1813  0.1840
10328TIP3    H152475   3.362   4.483   3.563  0.6009  0.7823  0.6796
10328TIP3    H252476   3.347   4.354   3.642 -0.1256 -0.1667 -0.9463
10329TIP3   OH252477   6.640   0.495  12.365  0.0139  0.4179  0.8756
10329TIP3    H152478   6.649   0.401  12.350 -2.5745  0.4322 -1.6496
10329TIP3    H252479   6.632   0.533  12.278 -0.3181  2.8216  1.8673
10330TIP3   OH252480   3.145   5.198   1.399 -0.0391  0.1613  0.1521
10330TIP3    H152481   3.153   5.203   1.303 -1.7395  0.2643 -0.0223
10330TIP3    H252482   3.230   5.225   1.432 -0.1806  2.7021 -1.2892
10331TIP3   OH252483   3.747   6.069  15.337 -0.2104 -0.4226  0.3445
10331TIP3    H152484   3.840   6.090  15.346 -0.1878 -0.6673  0.7002
10331TIP3    H252485   3.740   6.033  15.248 -0.3372  1.4843 -0.4510
10332TIP3   OH252486   5.409   1.560   0.310 -0.3558 -0.3656 -0.2613
10332TIP3    H152487   5.337   1.594   0.257 -0.1212 -0.3042 -0.5453
10332TIP3    H252488   5.388   1.467   0.322 -0.5452 -0.3208 -0.2351
10333TIP3   OH252489   2.929   6.454  13.081  0.9299  0.0977  0.1049
10333TIP3    H152490   2.867   6.380  13.088 -0.7892  1.2595 -1.6947
10333TIP3    H252491   2.896   6.519  13.143  2.7801 -0.7709  2.1190
10334TIP3   OH252492   6.683   2.404  15.412 -0.1994  0.3000  0.3273
10334TIP3    H152493   6.591   2.380  15.423  0.1563 -0.8471  1.0677
10334TIP3    H252494   6.703   2.379  15.322 -0.2417 -0.8923  0.6223
10335TIP3   OH252495   2.110   6.128   5.344 -0.0973 -0.1565  0.1895
10335TIP3    H152496   2.029   6.086   5.314  0.1592 -0.6193  0.1391
10335TIP3    H252497   2.099   6.220   5.322 -0.2158 -0.3706 -0.6774
10336TIP3   OH252498   3.092   4.135   0.917  0.2357  0.4398 -0.1537
10336TIP3    H152499   3.168   4.142   0.974  0.3343 -0.5959 -0.1308
10336TIP3    H252500   3.057   4.048   0.936  0.2250  0.1061 -1.6113
10337TIP3   OH252501   1.088   0.687  15.837  0.0272  0.2231 -0.1124
10337TIP3    H152502   1.059   0.767  15.880 -0.1779  0.8993 -1.4407
10337TIP3    H252503   1.130   0.636  15.906 -0.7582  1.0108  0.9771
10338TIP3   OH252504   3.488   0.778  15.284 -0.6991 -0.4854  0.2169
10338TIP3    H152505   3.524   0.841  15.346  0.7422 -0.4371 -0.6135
10338TIP3    H252506   3.450   0.832  15.214 -1.0398 -0.5354  0.3644
10339TIP3   OH252507   5.212   6.109  14.696 -0.4137  0.4875 -0.0263
10339TIP3    H152508   5.197   6.088  14.789 -0.7651  0.7846 -0.0118
10339TIP3    H252509   5.129   6.146  14.667 -0.1716  0.7772 -0.3542
10340TIP3   OH252510   0.829   5.719  12.251  0.2785  0.4911  0.4411
10340TIP3    H152511   0.818   5.796  12.196 -0.1877  0.6124  0.7050
10340TIP3    H252512   0.874   5.751  12.329 -1.2855  0.8065  1.2476
10341TIP3   OH252513   1.526   5.895   4.803 -0.4376 -0.4855  0.3542
10341TIP3    H152514   1.483   5.980   4.790  0.3667 -0.0807  0.3047
10341TIP3    H252515   1.607   5.901   4.753  0.2953 -0.7596  1.4835
10342TIP3   OH252516   6.396   6.354  11.399  0.1598 -0.2787  0.2111
10342TIP3    H152517   6.364   6.271  11.436 -2.1383  1.5145  2.6296
10342TIP3    H252518   6.336   6.371  11.326  1.5212 -1.3387 -1.2229
10343TIP3   OH252519   3.187   4.531  15.780  0.2195 -0.1498 -0.5304
10343TIP3    H152520   3.159   4.620  15.801  0.0386  0.1176 -1.8502
10343TIP3    H252521   3.166   4.520  15.687 -1.7058 -2.2926  0.0584
10344TIP3   OH252522   4.224   4.887  13.884 -0.5947 -0.6278 -0.1533
10344TIP3    H152523   4.248   4.976  13.912 -1.7762 -0.8289  1.6855
10344TIP3    H252524   4.228   4.890  13.789  0.1083  1.1847 -0.1186
10345TIP3   OH252525   6.264   3.089  16.394  0.4299 -0.1290 -0.3398
10345TIP3    H152526   6.344   3.142  16.399  0.2978  0.0007  0.7582
10345TIP3    H252527   6.247   3.078  16.301 -0.4174  3.0827 -0.6578
10346TIP3   OH252528   5.346   3.163  15.080  0.0525  0.4110 -0.6418
10346TIP3    H152529   5.413   3.125  15.024  0.5298  0.4147 -0.0818
10346TIP3    H252530   5.269   3.172  15.023  0.7289  1.0636 -1.4812
10347TIP3   OH252531   0.483   1.375  15.762 -0.0965 -0.2688 -0.4637
10347TIP3    H152532   0.430   1.341  15.834 -0.6726 -0.3338 -0.9070
10347TIP3    H252533   0.466   1.469  15.764  0.3191 -0.1986 -0.1742
10348TIP3   OH252534   3.591   5.209   5.134 -0.2165  0.0538  0.0509
10348TIP3    H152535   3.565   5.122   5.164 -0.5684  0.6501  1.5730
10348TIP3    H252536   3.636   5.248   5.209  1.3819  0.6176 -1.1268
10349TIP3   OH252537   6.664   6.114   1.839 -0.1899 -0.2867  0.0252
10349TIP3    H152538   6.703   6.145   1.921 -1.5844  1.0433  0.2287
10349TIP3    H252539   6.570   6.122   1.853 -0.4580  0.6312 -1.9280
10350TIP3   OH252540   1.394   0.198   2.305  0.1416  0.0668  0.5527
10350TIP3    H152541   1.457   0.169   2.240  1.6737  0.4418  1.8212
10350TIP3    H252542   1.385   0.292   2.289  0.6842  0.1976  1.0296
10351TIP3   OH252543   3.950   6.755   5.279  0.1577  0.1583 -0.0279
10351TIP3    H152544   4.006   6.826   5.309  0.2825  0.3366 -0.6617
10351TIP3    H252545   3.958   6.757   5.184  1.4723 -1.7489 -0.0128
10352TIP3   OH252546   5.404   0.581  16.609  0.4065 -0.2285  0.1364
10352TIP3    H152547   5.457   0.607  16.534 -1.7469 -0.7426 -1.6747
10352TIP3    H252548   5.384   0.664  16.654  0.7030  0.2415 -0.5759
10353TIP3   OH252549   4.112   0.136   0.313 -0.2392  0.5879  0.1232
10353TIP3    H152550   4.099   0.180   0.229  0.1429  0.9714  0.2619
10353TIP3    H252551   4.198   0.095   0.306  1.1476  3.1111  1.3925
10354TIP3   OH252552   5.998   2.309  16.764  0.1512  0.1859  0.0503
10354TIP3    H152553   5.956   2.230  16.799 -1.3660  0.1378 -1.6940
10354TIP3    H252554   6.091   2.286  16.759 -0.3289 -1.7976 -1.0565
10355TIP3   OH252555   6.019   2.079   5.074 -0.0055  0.1796  0.8582
10355TIP3    H152556   5.987   2.086   5.164  0.1434 -4.7171  1.5580
10355TIP3    H252557   6.113   2.067   5.083  0.8091  3.9539 -0.4866
10356TIP3   OH252558   1.198   5.691  12.951 -0.4354 -0.3749  0.2609
10356TIP3    H152559   1.271   5.651  12.904  0.5699  2.0187 -0.4129
10356TIP3    H252560   1.125   5.689  12.889 -0.7056 -1.9326  0.5916
10357TIP3   OH252561   3.874   6.098  11.488  0.7841  0.0932 -0.7320
10357TIP3    H152562   3.794   6.094  11.540 -0.8697  0.5651 -3.0608
10357TIP3    H252563   3.908   6.008  11.490  0.5012 -0.0081  0.6884
10358TIP3   OH252564   1.368   3.782  14.760  0.2408  0.7549  0.4685
10358TIP3    H152565   1.355   3.844  14.833 -0.0463  0.4305  0.6979
10358TIP3    H252566   1.456   3.748  14.773  0.1430  0.6002  0.7442
10359TIP3   OH252567   2.086   6.504   4.749  0.1467 -0.2810  0.3113
10359TIP3    H152568   2.087   6.434   4.683  1.1914 -0.1204  0.1315
10359TIP3    H252569   2.153   6.478   4.812 -1.5104 -0.9374  1.8852
10360TIP3   OH252570   4.934   1.930  12.942  0.2593  0.3509  0.9399
10360TIP3    H152571   4.930   1.956  12.850  0.7663 -2.0738  0.1646
10360TIP3    H252572   4.848   1.891  12.960  0.7056 -0.6586  0.9710
10361TIP3   OH252573   0.041   6.193  14.947  0.9451 -0.0458  0.6695
10361TIP3    H152574   0.081   6.196  15.034  0.1805  0.0931  1.0245
10361TIP3    H252575  -0.037   6.247  14.955 -0.4686 -1.9859  0.6043
10362TIP3   OH252576   1.557   1.430  16.541  0.1388 -1.0743 -0.2949
10362TIP3    H152577   1.585   1.427  16.632 -1.3297  2.4337  0.4203
10362TIP3    H252578   1.465   1.406  16.543 -1.1895  3.1947  0.0415
10363TIP3   OH252579   3.801   0.228   5.838  0.5355 -0.3309  0.2186
10363TIP3    H152580   3.840   0.221   5.750  0.8254 -0.6050  0.3674
10363TIP3    H252581   3.770   0.140   5.857 -2.3882  0.3589 -0.9021
10364TIP3   OH252582   2.103   1.975  16.806  1.1683 -0.0045 -0.1381
10364TIP3    H152583   2.066   1.975  16.895 -1.1301 -0.8972 -1.0026
10364TIP3    H252584   2.179   1.917  16.812 -1.2893 -3.5070  0.4825
10365TIP3   OH252585   0.422   0.327  12.330 -0.1441 -0.0495  0.0377
10365TIP3    H152586   0.330   0.327  12.358 -0.1003 -0.7500  0.1945
10365TIP3    H252587   0.454   0.240  12.353  0.1867 -0.2819 -1.2438
10366TIP3   OH252588   2.515   4.103  16.449 -0.3531 -0.1445  0.2969
10366TIP3    H152589   2.559   4.087  16.366  1.2172  0.4976  0.9654
10366TIP3    H252590   2.586   4.117  16.512 -1.5008 -0.4064  1.7145
10367TIP3   OH252591   2.748   0.257   0.341 -0.3087 -0.0817 -0.0078
10367TIP3    H152592   2.738   0.350   0.365 -2.0333 -0.4144  0.7104
10367TIP3    H252593   2.813   0.224   0.403 -0.6535  0.3659  0.6100
10368TIP3   OH252594   6.533   6.292   3.902  0.8067 -0.6274 -0.3997
10368TIP3    H152595   6.575   6.378   3.896 -0.1087 -0.1724 -0.5608
10368TIP3    H252596   6.603   6.230   3.881  1.1597  0.1592 -1.7415
10369TIP3   OH252597   5.143   4.026   2.418  0.2392  0.2848  0.6359
10369TIP3    H152598   5.116   4.089   2.351  2.4042  2.0267  1.2892
10369TIP3    H252599   5.207   3.970   2.374  0.2911  0.2530  0.7512
10370TIP3   OH252600   4.907   5.558  13.612  0.3330 -0.3658 -0.9538
10370TIP3    H152601   4.835   5.538  13.552 -0.8769  0.2276  0.2386
10370TIP3    H252602   4.936   5.646  13.587  1.6625 -1.1784 -2.3799
10371TIP3   OH252603   0.412   0.471  17.019 -0.1541 -0.8933 -0.1382
10371TIP3    H152604   0.400   0.559  16.983 -0.0203 -0.9228 -0.2560
10371TIP3    H252605   0.329   0.427  17.000 -0.4121 -0.6366  0.3787
10372TIP3   OH252606   6.706   6.682   0.827  0.3944  0.0585  0.1068
10372TIP3    H152607   6.613   6.707   0.823  0.6115  1.0798  1.0818
10372TIP3    H252608   6.739   6.701   0.740 -0.0483  0.8049  0.0906
10373TIP3   OH252609   3.939   0.595   1.382  0.0269  0.0229  0.0490
10373TIP3    H152610   3.994   0.545   1.322 -0.1188 -0.3848  0.2493
10373TIP3    H252611   3.945   0.686   1.351 -0.5393 -0.2684 -0.9470
10374TIP3   OH252612   5.353   3.801  12.333  0.3326  0.8602  0.1616
10374TIP3    H152613   5.420   3.734  12.319 -0.0835  0.4975 -0.1132
10374TIP3    H252614   5.385   3.852  12.408  2.0809  2.1750 -1.3910
10375TIP3   OH252615   4.172   3.514   4.700 -0.2569  0.4382  0.3899
10375TIP3    H152616   4.135   3.426   4.699 -2.4201  1.2404  2.2373
10375TIP3    H252617   4.096   3.572   4.702  1.0361  2.5123 -2.7355
10376TIP3   OH252618   5.481   4.708   6.561 -0.6086 -0.2282 -0.0891
10376TIP3    H152619   5.569   4.733   6.534 -0.8277  0.0263 -0.5832
10376TIP3    H252620   5.482   4.612   6.560 -0.0626 -0.2357  0.8261
10377TIP3   OH252621   6.291   3.038   2.329 -0.0391  0.0142  0.4706
10377TIP3    H152622   6.377   2.995   2.328 -0.8366 -1.7334  1.7720
10377TIP3    H252623   6.258   3.025   2.240 -0.3079 -2.3341  0.8348
10378TIP3   OH252624   6.522   3.374  12.606  0.7820  0.2508  0.0464
10378TIP3    H152625   6.553   3.389  12.696  0.4698  1.2633  0.0043
10378TIP3    H252626   6.439   3.422  12.602  0.0710 -0.9660 -0.3626
10379TIP3   OH252627   4.043   5.899   0.695  0.6086 -0.0173  0.3716
10379TIP3    H152628   3.948   5.902   0.695  0.5669  2.1643 -2.1931
10379TIP3    H252629   4.064   5.809   0.721 -2.2554 -1.4433 -1.6648
10380TIP3   OH252630   3.777   3.906   0.008 -0.0957 -0.5267 -0.0170
10380TIP3    H152631   3.809   3.815   0.013  0.1760 -0.3711  2.7531
10380TIP3    H252632   3.806   3.945   0.090 -4.9059  0.4835  1.4918
10381TIP3   OH252633   6.721   2.577   2.781 -0.1560 -0.7518  0.1840
10381TIP3    H152634   6.667   2.568   2.702  0.6926 -1.3199 -0.3418
10381TIP3    H252635   6.712   2.669   2.805 -0.4206 -0.5723 -0.5735
10382TIP3   OH252636   5.412   2.417   4.428 -0.6465 -0.2207  0.0236
10382TIP3    H152637   5.444   2.496   4.384 -1.8592  0.6138  0.5811
10382TIP3    H252638   5.421   2.437   4.522 -0.3759 -1.0012  0.1670
10383TIP3   OH252639   6.030   4.480   3.926 -1.0868  0.7315 -0.1132
10383TIP3    H152640   5.990   4.400   3.961 -2.5728  0.7355 -1.6750
10383TIP3    H252641   6.027   4.542   3.999  1.6243 -1.0436  1.6975
10384TIP3   OH252642   6.152   4.833   4.893  0.0952  0.3413  0.8938
10384TIP3    H152643   6.134   4.801   4.805 -2.7273 -1.7718  2.0729
10384TIP3    H252644   6.082   4.896   4.910  1.2319  1.5407  1.3025
10385TIP3   OH252645   4.179   6.325   6.134 -0.4238  0.9199 -0.7184
10385TIP3    H152646   4.185   6.240   6.178  0.3550  0.3740 -1.8419
10385TIP3    H252647   4.136   6.382   6.198 -0.3060 -0.1284  0.3249
10386TIP3   OH252648   1.304   2.417   1.979 -0.4869 -0.1830 -0.3130
10386TIP3    H152649   1.251   2.345   2.014 -0.2214 -0.5807 -0.7197
10386TIP3    H252650   1.324   2.390   1.889 -0.6201  0.5268 -0.5639
10387TIP3   OH252651   5.222   1.524   4.277 -0.1727 -0.1754 -0.3111
10387TIP3    H152652   5.296   1.519   4.339 -0.6222  1.4454  0.4336
10387TIP3    H252653   5.257   1.574   4.203 -1.2253  3.5439  1.4109
10388TIP3   OH252654   0.057   1.265  13.795 -0.0766  0.1048 -0.5248
10388TIP3    H152655   0.067   1.254  13.889 -1.3554  1.2929 -0.2148
10388TIP3    H252656   0.037   1.177  13.763 -2.2082  0.0703  0.7087
10389TIP3   OH252657   4.803   6.464   0.044 -0.2275 -0.2485 -0.2549
10389TIP3    H152658   4.853   6.472   0.125 -1.7800 -0.0325  0.7337
10389TIP3    H252659   4.812   6.371   0.020  0.9439 -0.1303 -0.3319
10390TIP3   OH252660   2.715   3.846   0.070 -0.0003 -0.6018  0.0941
10390TIP3    H152661   2.712   3.868   0.163 -1.3091 -0.3175  0.0075
10390TIP3    H252662   2.760   3.920   0.029 -1.9616  0.6980  0.1597
10391TIP3   OH252663   4.509   4.907   3.459 -0.3743 -0.3105 -0.4458
10391TIP3    H152664   4.545   4.868   3.379 -2.1704 -0.3949 -1.2465
10391TIP3    H252665   4.564   4.985   3.473  0.1737 -0.4655 -1.5827
10392TIP3   OH252666   0.812   5.040   2.425 -0.1417 -0.0441  0.3882
10392TIP3    H152667   0.906   5.038   2.407  0.2191  0.7659  2.0113
10392TIP3    H252668   0.782   5.122   2.386 -0.2090 -0.3556 -0.2274
10393TIP3   OH252669   0.554   2.650  11.680 -0.1170 -0.7580 -0.0939
10393TIP3    H152670   0.494   2.723  11.662  0.0869 -0.8479 -1.2532
10393TIP3    H252671   0.503   2.588  11.730  0.3290  1.1110  2.8924
10394TIP3   OH252672   3.611   6.544  15.506  0.1349 -0.4797 -0.0214
10394TIP3    H152673   3.605   6.621  15.563 -1.8596  0.3229 -1.1923
10394TIP3    H252674   3.621   6.470  15.566  1.4411  0.6060  1.1720
10395TIP3   OH252675   2.714   3.543  13.893 -0.1950  0.1513 -0.4121
10395TIP3    H152676   2.662   3.565  13.816 -1.0171 -1.9587 -0.4997
10395TIP3    H252677   2.680   3.459  13.923  1.9978 -0.4588  0.5879
10396TIP3   OH252678   3.910   6.782  11.446 -0.6033 -0.4606 -0.3350
10396TIP3    H152679   3.823   6.768  11.485 -0.8065 -0.6734 -0.8490
10396TIP3    H252680   3.917   6.713  11.380 -0.2171 -0.1773 -0.5913
10397TIP3   OH252681   5.735   2.947   4.850 -0.1143  0.7204 -0.4136
10397TIP3    H152682   5.820   2.910   4.875  1.0505  4.4759  1.9846
10397TIP3    H252683   5.752   2.991   4.767  0.4260  1.7964  0.2559
10398TIP3   OH252684   4.983   2.004  14.116  0.3596  0.4395  0.8914
10398TIP3    H152685   5.006   2.081  14.167  1.8875  1.2744 -0.9315
10398TIP3    H252686   4.927   2.037  14.045  0.5691 -0.1941  0.4145
10399TIP3   OH252687   2.271   3.426   4.991  0.1493 -0.6038  1.2024
10399TIP3    H152688   2.331   3.464   4.927  0.0937 -2.9690 -0.3856
10399TIP3    H252689   2.315   3.439   5.075  1.3190  0.5889  0.4454
10400TIP3   OH252690   1.053   4.655  15.294 -0.6906 -0.4589  0.1304
10400TIP3    H152691   1.007   4.716  15.352 -1.9483 -1.8255  0.6148
10400TIP3    H252692   0.991   4.635  15.224  1.1890  2.0513 -2.4828
10401TIP3   OH252693   0.009   3.326  15.008  0.0459 -0.3263 -0.1002
10401TIP3    H152694   0.057   3.409  15.018 -1.4721  0.3484  2.9395
10401TIP3    H252695  -0.082   3.353  15.000 -0.4253 -1.6643  0.5258
10402TIP3   OH252696   5.291   1.456  16.871  0.5360 -0.2958 -0.0614
10402TIP3    H152697   5.207   1.502  16.864  1.3245  1.2848  0.3483
10402TIP3    H252698   5.267   1.364  16.880 -1.1278  0.0460 -0.5883
10403TIP3   OH252699   1.754   1.147   1.295  0.1030  0.0555  0.0722
10403TIP3    H152700   1.669   1.142   1.251  0.1315  2.1418 -0.3197
10403TIP3    H252701   1.745   1.219   1.357  0.8321 -1.3002  1.8350
10404TIP3   OH252702   5.413   6.637  15.968 -0.1753  0.1590 -0.0655
10404TIP3    H152703   5.494   6.686  15.962 -0.1265  0.1831  0.7094
10404TIP3    H252704   5.439   6.546  15.954  0.2439 -0.0262  1.6442
10405TIP3   OH252705   0.771   5.572  14.262 -0.3722  0.4117  0.2529
10405TIP3    H152706   0.759   5.488  14.306  0.5293  0.3646  0.4240
10405TIP3    H252707   0.786   5.635  14.332  0.3527  0.4604  0.0656
10406TIP3   OH252708   2.144   4.112  15.123  0.3023 -0.1588 -0.2889
10406TIP3    H152709   2.059   4.098  15.165  0.4029 -0.2576 -0.1153
10406TIP3    H252710   2.123   4.150  15.038  0.0370 -1.2054 -0.6987
10407TIP3   OH252711   4.104   1.653  12.773  0.1018  0.7554 -0.3949
10407TIP3    H152712   4.040   1.724  12.764 -3.1942 -2.0604 -0.9126
10407TIP3    H252713   4.108   1.612  12.687 -0.8729 -1.8234  0.6956
10408TIP3   OH252714   5.171   5.758   1.768 -0.2144 -0.3072  0.3823
10408TIP3    H152715   5.199   5.739   1.857  0.9513 -1.9357 -0.2852
10408TIP3    H252716   5.232   5.825   1.737 -1.0834  0.8140  1.0178
10409TIP3   OH252717   4.850   6.382   6.629 -0.1016 -0.4148 -0.3929
10409TIP3    H152718   4.923   6.438   6.599 -0.9403  1.2887  0.6195
10409TIP3    H252719   4.825   6.419   6.713 -1.3695 -1.7320 -0.1711
10410TIP3   OH252720   5.253   6.178   2.381  0.0564  0.6588  0.2978
10410TIP3    H152721   5.303   6.121   2.440 -0.0859  0.3352  0.1063
10410TIP3    H252722   5.292   6.265   2.395  1.1872  0.2875 -0.3881
10411TIP3   OH252723   5.272   5.468   4.015  0.3129  0.0953 -0.3630
10411TIP3    H152724   5.195   5.421   4.047  0.1261  0.6901  0.0761
10411TIP3    H252725   5.317   5.497   4.094  0.5561  0.4460 -0.6264
10412TIP3   OH252726   2.472   1.200  14.290 -0.2967  0.0314 -0.4363
10412TIP3    H152727   2.387   1.229  14.258 -0.5894  0.6120  0.8081
10412TIP3    H252728   2.462   1.195  14.385  1.6121  2.0521 -0.0430
10413TIP3   OH252729   1.371   6.226   3.007  0.3496  0.7753 -0.3936
10413TIP3    H152730   1.329   6.307   3.036  0.3441  0.8302 -0.5553
10413TIP3    H252731   1.461   6.234   3.038  0.0841  0.3644  0.5346
10414TIP3   OH252732   1.927   3.494   4.752  0.0745 -0.4308 -0.5719
10414TIP3    H152733   1.936   3.475   4.845 -0.0390  1.1649 -0.2091
10414TIP3    H252734   2.014   3.478   4.716  0.1576 -0.9094 -0.1667
10415TIP3   OH252735   5.072   5.729  16.484  0.4631 -0.1716  0.0680
10415TIP3    H152736   5.097   5.758  16.572 -1.2452  1.3341  0.1235
10415TIP3    H252737   4.993   5.678  16.497  0.7409 -0.7684 -0.5188
10416TIP3   OH252738   5.441   5.105   1.936  0.3359 -0.0620 -0.0004
10416TIP3    H152739   5.519   5.133   1.888  0.1541 -0.6703 -0.6583
10416TIP3    H252740   5.427   5.015   1.908  0.5056 -0.6004  1.5713
10417TIP3   OH252741   1.469   2.020  16.198  0.6514 -1.0472  0.0684
10417TIP3    H152742   1.401   1.981  16.143  1.1160  0.8922 -2.0044
10417TIP3    H252743   1.423   2.082  16.254  0.6561  0.3703 -1.4336
10418TIP3   OH252744   0.953   0.373   5.399  0.8518 -0.6206  0.0352
10418TIP3    H152745   1.004   0.301   5.362 -1.5898 -1.4745 -1.9408
10418TIP3    H252746   0.912   0.336   5.477  1.2703 -0.7183  0.2089
10419TIP3   OH252747   5.634   6.541  15.080  0.0260 -0.1402  0.3342
10419TIP3    H152748   5.540   6.547  15.060  0.2963  1.3512 -0.6490
10419TIP3    H252749   5.640   6.473  15.147 -2.0144  1.3126  2.1166
10420TIP3   OH252750   6.826   2.070   2.326  0.0045  0.1743 -0.0835
10420TIP3    H152751   6.775   2.021   2.261  0.6081  0.2127 -0.5966
10420TIP3    H252752   6.904   2.018   2.340  1.4926  1.7358 -1.9197
10421TIP3   OH252753   5.210   4.758   0.112  0.0538 -0.1512 -0.1164
10421TIP3    H152754   5.218   4.804   0.196 -0.1239 -0.0891 -0.1338
10421TIP3    H252755   5.255   4.675   0.126  2.1851  0.8246 -0.6909
10422TIP3   OH252756   2.877   4.824   2.656 -0.6887 -0.6553 -0.5560
10422TIP3    H152757   2.950   4.795   2.602 -1.0325 -1.0518 -0.8163
10422TIP3    H252758   2.847   4.745   2.701  0.1170 -0.1808  0.8633
10423TIP3   OH252759   4.253   5.157  13.553  0.1596  0.5228 -0.6484
10423TIP3    H152760   4.304   5.164  13.634 -0.9101  0.6217  0.0308
10423TIP3    H252761   4.170   5.200  13.573  0.2652  1.4992 -2.1484
10424TIP3   OH252762   5.083   1.695  15.811  0.0476 -0.1650  0.2106
10424TIP3    H152763   4.995   1.659  15.825  0.8933 -1.6002  2.2994
10424TIP3    H252764   5.138   1.649  15.874  1.6605  3.2791  1.5528
10425TIP3   OH252765   5.753   4.951   2.578  0.1179 -0.1388 -0.5823
10425TIP3    H152766   5.818   4.918   2.516  0.8144 -0.6624  0.3910
10425TIP3    H252767   5.724   5.034   2.541  0.1566 -0.6616 -1.8412
10426TIP3   OH252768   0.103   6.007  16.046 -0.7282  0.0398  0.1421
10426TIP3    H152769   0.151   6.015  15.963 -0.2429  0.8683  0.4884
10426TIP3    H252770   0.099   6.097  16.080 -1.7734 -0.1474  0.5471
10427TIP3   OH252771   3.863   5.492   3.297  0.6351 -0.3226 -0.0518
10427TIP3    H152772   3.911   5.575   3.297  0.8111 -0.4003 -1.6510
10427TIP3    H252773   3.865   5.463   3.388 -2.2548  3.0366  1.2919
10428TIP3   OH252774   6.724   4.610   2.752  0.3716 -0.2653  0.5258
10428TIP3    H152775   6.677   4.623   2.670 -0.8370 -0.6854  1.1298
10428TIP3    H252776   6.805   4.659   2.742  0.4833 -0.7411 -1.1238
10429TIP3   OH252777   1.183   5.021  16.528 -0.4663  0.5263  0.1484
10429TIP3    H152778   1.274   5.006  16.554 -0.7280 -0.6152  0.4579
10429TIP3    H252779   1.188   5.091  16.462  0.3881  2.2804  1.9515
10430TIP3   OH252780   4.771   1.575   1.321  0.3494  0.1072  0.1841
10430TIP3    H152781   4.731   1.561   1.235  1.2705  0.2592 -0.2761
10430TIP3    H252782   4.702   1.551   1.383 -0.0138 -0.9216 -0.5861
10431TIP3   OH252783   1.553   5.278  15.383  0.3424 -0.7306  0.2638
10431TIP3    H152784   1.491   5.303  15.451  0.5281  1.6196 -0.3471
10431TIP3    H252785   1.500   5.237  15.315 -0.4591  0.5256  0.1020
10432TIP3   OH252786   4.012   2.309  15.175  0.5295 -0.1194  0.4632
10432TIP3    H152787   3.996   2.323  15.268 -0.9786 -0.8431  0.3481
10432TIP3    H252788   4.103   2.281  15.170  0.4620 -0.6355  1.8048
10433TIP3   OH252789   1.210   4.231  14.144 -0.3980 -0.1869  0.0368
10433TIP3    H152790   1.174   4.275  14.221 -0.0579 -1.0549  0.7093
10433TIP3    H252791   1.260   4.157  14.180 -0.4763 -0.7771 -1.0308
10434TIP3   OH252792   0.292   1.515   6.200 -0.8790 -0.0166  0.5646
10434TIP3    H152793   0.364   1.472   6.153 -0.8823 -1.3519  1.6979
10434TIP3    H252794   0.237   1.551   6.131 -0.3449 -1.0168 -0.4220
10435TIP3   OH252795   2.537   4.359  16.994 -0.8704  0.1587 -0.1646
10435TIP3    H152796   2.615   4.304  16.993 -0.1889  1.1044  0.2896
10435TIP3    H252797   2.516   4.369  17.087 -0.8325  0.8998 -0.2370
10436TIP3   OH252798   5.315   5.031   1.519 -0.1974 -0.1762  0.3988
10436TIP3    H152799   5.321   5.090   1.594 -0.0826  0.0817  0.1863
10436TIP3    H252800   5.239   5.062   1.470 -0.4946 -0.5722  0.6013
10437TIP3   OH252801   2.087   6.688  15.561  1.0001 -0.3500  0.0257
10437TIP3    H152802   2.120   6.703  15.649  0.8424 -0.7333  0.1527
10437TIP3    H252803   2.046   6.771  15.535  0.9338 -0.2787  0.3633
10438TIP3   OH252804   0.448   3.423  15.936 -0.4599  0.1371 -0.4203
10438TIP3    H152805   0.466   3.338  15.897 -0.6013 -0.8473  1.5524
10438TIP3    H252806   0.380   3.407  16.001 -1.9162  2.1380 -1.3366
10439TIP3   OH252807   5.054   4.571  12.710 -0.4775  0.1079 -0.1214
10439TIP3    H152808   5.085   4.653  12.673  1.3301 -0.9377 -1.0899
10439TIP3    H252809   5.088   4.504  12.651  1.8053 -1.6182  2.8496
10440TIP3   OH252810   0.520   6.688   1.350 -0.5562 -0.1275 -0.2187
10440TIP3    H152811   0.599   6.652   1.309  0.0109  1.4297 -0.5771
10440TIP3    H252812   0.454   6.685   1.281  0.0763  1.4049 -0.9433
10441TIP3   OH252813   1.930   3.561  13.054 -0.1278 -0.2030  0.4744
10441TIP3    H152814   1.910   3.539  12.963 -2.2855  1.6461  0.3990
10441TIP3    H252815   1.873   3.503  13.105 -0.9495  0.6092  0.5071
10442TIP3   OH252816   2.138   3.976   5.600 -0.0112  0.2657 -0.0550
10442TIP3    H152817   2.128   4.055   5.546 -1.0370  0.7721  0.8331
10442TIP3    H252818   2.068   3.984   5.666  0.5701 -0.8431  0.7101
10443TIP3   OH252819   3.095   5.044   2.470  0.0420  0.5417  0.2003
10443TIP3    H152820   3.117   5.123   2.420  0.6194  0.1054 -0.2535
10443TIP3    H252821   3.053   4.986   2.406  2.9470 -1.0075 -0.5000
10444TIP3   OH252822   0.091   4.723  14.054  0.5831  0.3157 -0.1957
10444TIP3    H152823   0.044   4.749  14.133 -0.4852 -1.4844 -0.1758
10444TIP3    H252824   0.132   4.803  14.022  0.0393  1.3165  1.5100
10445TIP3   OH252825   2.329   2.729  10.576 -0.0972 -0.5163  0.1112
10445TIP3    H152826   2.310   2.747  10.484  1.9884  0.6368 -0.1561
10445TIP3    H252827   2.324   2.815  10.619  0.7170 -0.7537  0.7131
10446TIP3   OH252828   3.147   1.227  11.821 -0.3159  0.0799 -0.0328
10446TIP3    H152829   3.087   1.154  11.836 -0.4130  0.5149  2.1361
10446TIP3    H252830   3.091   1.297  11.788 -0.9329  0.2679  1.3233
10447TIP3   OH252831   1.904   3.376  15.592  0.0308  0.4364 -0.3755
10447TIP3    H152832   1.942   3.423  15.518  1.3534  1.1334  0.7048
10447TIP3    H252833   1.877   3.292  15.555  0.7544  0.7269 -1.6312
10448TIP3   OH252834   6.789   4.031   5.834 -0.8621 -0.5696  0.3168
10448TIP3    H152835   6.800   3.936   5.845 -3.3322 -0.7439  1.8375
10448TIP3    H252836   6.709   4.040   5.783 -1.4457  0.7197  1.4086
10449TIP3   OH252837   1.272   2.509  11.127 -0.3552 -0.6051 -0.3760
10449TIP3    H152838   1.279   2.532  11.034 -1.8959  1.1060 -0.1202
10449TIP3    H252839   1.187   2.467  11.135  0.4533 -2.2666  0.0249
10450TIP3   OH252840   0.732   0.131   4.843 -0.0475 -0.5842 -0.6597
10450TIP3    H152841   0.705   0.217   4.873 -0.3071 -0.8805 -0.0163
10450TIP3    H252842   0.653   0.092   4.805  0.0036 -0.6427 -0.7075
10451TIP3   OH252843   4.372   4.783   2.164 -0.2597  0.4928 -0.2214
10451TIP3    H152844   4.385   4.741   2.079 -0.2550  0.1223 -0.0406
10451TIP3    H252845   4.419   4.866   2.158  1.3733 -0.3652  0.0696
10452TIP3   OH252846   5.634   5.547   3.512 -0.4118 -0.0103  0.0093
10452TIP3    H152847   5.608   5.460   3.542 -1.4083 -0.1735 -1.2539
10452TIP3    H252848   5.593   5.607   3.573 -1.4034 -0.3672 -0.2948
10453TIP3   OH252849   2.246   4.374   0.395 -0.4791  0.0472  0.1645
10453TIP3    H152850   2.265   4.290   0.355  0.0294  0.0073  0.4725
10453TIP3    H252851   2.200   4.424   0.328  1.1239  0.3069 -0.7982
10454TIP3   OH252852   6.264   2.365   2.352 -0.1749  0.5475 -0.1834
10454TIP3    H152853   6.210   2.344   2.428 -1.2679 -0.5963 -1.2345
10454TIP3    H252854   6.337   2.304   2.355 -0.8699 -0.3317 -0.6905
10455TIP3   OH252855   4.733   6.565  10.987  0.0044 -0.0170 -0.1802
10455TIP3    H152856   4.770   6.502  10.925  0.2003  1.9400 -2.2004
10455TIP3    H252857   4.694   6.633  10.932 -0.8364  1.2838  1.8748
10456TIP3   OH252858   1.451   1.442   1.389 -0.0866 -0.2917 -0.5319
10456TIP3    H152859   1.382   1.396   1.438 -0.3515  0.5134 -0.1360
10456TIP3    H252860   1.435   1.418   1.297 -0.8338 -0.1929 -0.4321
10457TIP3   OH252861   4.050   3.074  13.256  0.2435  0.5342  0.1014
10457TIP3    H152862   4.092   3.071  13.342 -0.3874 -0.8383  0.3934
10457TIP3    H252863   4.122   3.062  13.194  0.3314 -2.1854  0.6061
10458TIP3   OH252864   0.111   1.841  15.230 -0.3620 -0.2059  0.5091
10458TIP3    H152865   0.058   1.891  15.168 -1.2405  0.1384  1.5230
10458TIP3    H252866   0.199   1.878  15.221 -0.0967 -1.1908 -1.6313
10459TIP3   OH252867   3.378   6.539  16.955 -0.4783 -0.0449  0.6016
10459TIP3    H152868   3.434   6.466  16.929 -0.1406  0.3270  0.2834
10459TIP3    H252869   3.431   6.588  17.017 -0.3222  0.4941  0.0460
10460TIP3   OH252870   2.755   3.617   1.269 -0.5548  0.7430 -0.3922
10460TIP3    H152871   2.736   3.682   1.338  0.5374  0.9863 -0.3012
10460TIP3    H252872   2.821   3.560   1.308 -0.3681  0.5203 -1.0269
10461TIP3   OH252873   0.525   3.844  13.847 -0.4509  0.0901  0.3798
10461TIP3    H152874   0.442   3.844  13.895 -0.8432  2.5673 -0.1642
10461TIP3    H252875   0.510   3.905  13.774  1.1117 -1.2429 -1.1135
10462TIP3   OH252876   6.473   0.947   0.559 -0.1002  0.4297  0.0470
10462TIP3    H152877   6.559   0.990   0.560 -0.3665  1.0037 -0.6696
10462TIP3    H252878   6.445   0.950   0.468 -0.5804 -0.3791  0.1583
10463TIP3   OH252879   0.197   5.622  16.551  0.2722 -0.3260  0.3521
10463TIP3    H152880   0.267   5.686  16.565  1.4263 -1.6754  0.9147
10463TIP3    H252881   0.143   5.628  16.630  0.0906  0.2549  0.1957
10464TIP3   OH252882   4.492   3.093  16.836  0.1680  0.4572  0.3273
10464TIP3    H152883   4.479   3.038  16.758 -1.3796  1.0757  0.1137
10464TIP3    H252884   4.583   3.077  16.861  0.0145 -1.6070 -0.1865
10465TIP3   OH252885   4.162   4.416  16.743  0.1240  0.4068  0.1937
10465TIP3    H152886   4.250   4.406  16.777  0.2683 -1.3717 -0.6149
10465TIP3    H252887   4.169   4.486  16.678  0.8669  0.4988  0.3645
10466TIP3   OH252888   4.030   3.835   4.925  0.2615 -0.3370 -0.0785
10466TIP3    H152889   4.006   3.752   4.884 -0.4068  1.1414 -3.0171
10466TIP3    H252890   3.948   3.868   4.962  0.2631 -0.4728  0.0440
10467TIP3   OH252891   5.685   0.675  14.292  0.0973  0.5223  0.0222
10467TIP3    H152892   5.610   0.732  14.272 -0.5686  0.0449  1.1034
10467TIP3    H252893   5.738   0.727  14.353 -1.4575 -0.6344  2.5158
10468TIP3   OH252894   6.785   6.306   0.496  0.0927 -0.5866 -0.3142
10468TIP3    H152895   6.691   6.323   0.487  0.4050  0.5183 -1.7133
10468TIP3    H252896   6.814   6.366   0.564  0.0197  0.0264 -0.8178
10469TIP3   OH252897   1.442   2.072   4.292  0.7110 -0.3847  0.2764
10469TIP3    H152898   1.475   2.040   4.208  2.0920 -0.4250  0.8103
10469TIP3    H252899   1.514   2.124   4.328 -0.5336  1.1885  0.6074
10470TIP3   OH252900   4.209   0.492   3.744 -0.8497  0.1098  0.2958
10470TIP3    H152901   4.168   0.489   3.831  0.5979 -1.6441  0.9887
10470TIP3    H252902   4.173   0.416   3.698 -1.2738  0.7801 -0.5021
10471TIP3   OH252903   6.834   5.614  12.188  0.4782 -0.5651  0.2911
10471TIP3    H152904   6.840   5.599  12.282  0.7152  1.0070  0.5564
10471TIP3    H252905   6.861   5.705  12.176  1.6582 -1.0961 -1.4443
10472TIP3   OH252906   2.685   5.609   1.053  0.4019 -0.4259 -0.2922
10472TIP3    H152907   2.602   5.587   1.009 -0.8503  1.9627  0.7186
10472TIP3    H252908   2.742   5.534   1.034 -0.1195  0.1032 -5.5453
10473TIP3   OH252909   2.802   1.722  15.308  0.3942 -0.3198  0.2489
10473TIP3    H152910   2.795   1.664  15.232  1.8695 -0.9959  0.5887
10473TIP3    H252911   2.854   1.796  15.276 -0.0584  0.0181  0.2771
10474TIP3   OH252912   1.848   0.286  12.238  0.4314  0.0213 -0.3522
10474TIP3    H152913   1.861   0.235  12.157  0.8451 -0.8460  0.2474
10474TIP3    H252914   1.852   0.377  12.209  2.3573 -0.2330 -1.0790
10475TIP3   OH252915   6.429   4.635  14.450 -0.0482 -0.5322 -0.3939
10475TIP3    H152916   6.386   4.707  14.404 -0.2234 -0.4282 -0.0701
10475TIP3    H252917   6.487   4.677  14.514  0.5511 -0.6709 -0.8388
10476TIP3   OH252918   5.318   0.504   0.645 -0.0417  0.2796  0.6921
10476TIP3    H152919   5.392   0.563   0.656  1.1797 -1.2984  1.3033
10476TIP3    H252920   5.319   0.449   0.724  1.4093 -3.2479 -1.5702
10477TIP3   OH252921   1.512   6.371   1.595  0.5532 -0.3896 -0.7063
10477TIP3    H152922   1.537   6.354   1.504  0.7678  0.6905 -0.8648
10477TIP3    H252923   1.476   6.288   1.626  0.6066 -0.8113 -1.7323
10478TIP3   OH252924   0.271   6.754   2.143 -0.6738  0.0500  0.1713
10478TIP3    H152925   0.355   6.766   2.099 -0.4057 -0.5481  0.5015
10478TIP3    H252926   0.253   6.839   2.182  0.2439 -0.0556  0.8753
10479TIP3   OH252927   4.058   1.630  16.894  0.5988 -0.3287 -0.3640
10479TIP3    H152928   4.059   1.539  16.864  1.5794  0.2824 -2.3071
10479TIP3    H252929   3.969   1.642  16.928 -1.0286 -0.8459 -3.9926
10480TIP3   OH252930   0.809   5.065  11.601  0.0109 -0.7358  0.3394
10480TIP3    H152931   0.717   5.045  11.584 -0.2643 -0.2642  1.1963
10480TIP3    H252932   0.812   5.085  11.695  0.6146  1.2106 -0.0521
10481TIP3   OH252933   5.138   3.723  16.244  0.2035 -0.1060  0.5366
10481TIP3    H152934   5.081   3.696  16.172 -0.1855  0.3232  0.6761
10481TIP3    H252935   5.202   3.782  16.203 -1.0390  1.5058  0.7978
10482TIP3   OH252936   2.696   4.229  13.159 -0.0310  0.7084 -0.1805
10482TIP3    H152937   2.627   4.192  13.214  0.3430  0.1799 -0.0576
10482TIP3    H252938   2.678   4.323  13.157 -1.0456  0.5196 -0.5672
10483TIP3   OH252939   3.777   4.010   1.162  0.2695 -0.3885 -0.3141
10483TIP3    H152940   3.701   3.974   1.208 -0.9227  0.1527 -1.7683
10483TIP3    H252941   3.776   3.966   1.076  0.3625  1.1217 -1.1169
10484TIP3   OH252942   1.339   2.167   4.606 -0.6212  0.3447 -0.2698
10484TIP3    H152943   1.309   2.092   4.554  0.9395 -0.7425  0.3447
10484TIP3    H252944   1.434   2.164   4.600 -0.4023  0.5757  2.0790
10485TIP3   OH252945   2.116   0.016   4.312 -0.0857 -0.1922 -0.0060
10485TIP3    H152946   2.194  -0.011   4.361  0.1828  0.7004  0.0790
10485TIP3    H252947   2.093  -0.060   4.260  0.0089 -0.9509  1.0248
10486TIP3   OH252948   6.411   0.646  15.960 -0.0502 -0.3742 -0.1537
10486TIP3    H152949   6.467   0.613  16.030 -1.3097 -0.7315  0.7287
10486TIP3    H252950   6.323   0.617  15.984 -0.6625  0.3891 -1.3542
10487TIP3   OH252951   2.476   4.824   6.399 -0.1065  0.5732 -0.2378
10487TIP3    H152952   2.422   4.879   6.456  0.8257  1.2250  0.0514
10487TIP3    H252953   2.565   4.857   6.412  0.3820 -0.5521 -0.6043
10488TIP3   OH252954   6.461   4.954   4.945  0.1339  0.3311  0.1485
10488TIP3    H152955   6.485   4.863   4.961 -0.6358  0.0372 -0.2972
10488TIP3    H252956   6.367   4.956   4.964  0.0884  0.9621 -0.1543
10489TIP3   OH252957   4.240   2.389   0.741 -0.5724 -1.2484 -0.0292
10489TIP3    H152958   4.264   2.311   0.692  2.4830 -1.0171  0.9050
10489TIP3    H252959   4.266   2.462   0.684  0.2100 -0.9787  0.6438
10490TIP3   OH252960   3.889   4.180   5.060 -0.4401  0.4000  0.2554
10490TIP3    H152961   3.979   4.160   5.088 -0.7187 -3.2394 -0.9632
10490TIP3    H252962   3.897   4.199   4.966 -0.9922 -0.7485 -0.0393
10491TIP3   OH252963   2.941   4.953   4.322 -0.1966 -0.0422  0.7592
10491TIP3    H152964   2.895   5.034   4.302 -0.3505 -0.5859 -1.3234
10491TIP3    H252965   2.939   4.903   4.240  1.9398 -1.1522  1.2989
10492TIP3   OH252966   4.902   5.949   4.660  0.0212  0.0942 -0.7971
10492TIP3    H152967   4.871   5.930   4.571 -0.0086 -1.5209 -0.4637
10492TIP3    H252968   4.839   6.012   4.694  0.2372  1.0274 -2.0288
10493TIP3   OH252969   5.868   4.341   0.886 -0.0245 -0.3319  0.0610
10493TIP3    H152970   5.906   4.425   0.912  1.3294 -0.9344  0.0836
10493TIP3    H252971   5.777   4.346   0.917 -0.1297  1.3069 -0.3675
10494TIP3   OH252972   4.276   5.282   0.699 -0.1640  0.0680 -0.2388
10494TIP3    H152973   4.225   5.347   0.747  1.1208  1.3547 -0.5153
10494TIP3    H252974   4.306   5.220   0.766  0.1075  0.8138  0.3492
10495TIP3   OH252975   1.187   3.920   5.232 -0.1472  0.1044  0.6061
10495TIP3    H152976   1.114   3.951   5.285 -0.3827  1.0656 -0.2463
10495TIP3    H252977   1.216   3.997   5.182  0.2874 -0.6717 -0.3963
10496TIP3   OH252978   1.863   6.580   3.433  0.1107  0.2731  0.0713
10496TIP3    H152979   1.926   6.626   3.489 -0.3172 -0.3059  1.0632
10496TIP3    H252980   1.909   6.568   3.350  1.0298  0.5263  0.5283
10497TIP3   OH252981   2.121   0.895  11.875 -0.3600 -0.1853 -0.0811
10497TIP3    H152982   2.124   0.910  11.970 -0.9460 -2.8122  0.4379
10497TIP3    H252983   2.206   0.857  11.854 -0.4600 -0.1928 -0.4832
10498TIP3   OH252984   3.077   3.526   1.005  0.2838 -0.2849  0.8357
10498TIP3    H152985   3.032   3.530   1.090  3.1357 -0.7898  2.5108
10498TIP3    H252986   3.149   3.588   1.014  0.1507  0.3283 -1.6408
10499TIP3   OH252987   4.668   5.662  14.349  0.1322 -0.5401 -0.2215
10499TIP3    H152988   4.578   5.654  14.381 -0.0778  0.1658 -0.6275
10499TIP3    H252989   4.715   5.707  14.419  0.4729 -1.9436  0.5095
10500TIP3   OH252990   3.105   3.858   6.616  0.3195 -0.0748 -0.8876
10500TIP3    H152991   3.069   3.934   6.570  1.9428  1.4399  0.2196
10500TIP3    H252992   3.176   3.827   6.559  0.4189 -0.0326 -0.7866
10501TIP3   OH252993   4.301   0.728  14.466 -0.2970 -0.4785  0.3367
10501TIP3    H152994   4.284   0.648  14.515 -0.1315 -1.4221 -1.1060
10501TIP3    H252995   4.223   0.741  14.412  0.8355 -1.3401 -1.6202
10502TIP3   OH252996   0.718   1.393  12.032  0.1979 -0.3270  0.1386
10502TIP3    H152997   0.661   1.466  12.006 -0.9244 -0.8171  1.1430
10502TIP3    H252998   0.659   1.318  12.041  1.0416 -0.9169  0.9597
10503TIP3   OH252999   2.880   2.538   5.228  0.7161 -0.0561  0.1420
10503TIP3    H153000   2.912   2.584   5.150  3.1246  0.2681  1.2233
10503TIP3    H253001   2.925   2.581   5.301 -0.9643 -0.7751  1.6757
10504TIP3   OH253002   6.312   0.592   4.516  0.0906 -0.3549 -0.2073
10504TIP3    H153003   6.266   0.667   4.554  2.3846  0.8250  0.4555
10504TIP3    H253004   6.363   0.556   4.589  0.2365 -1.5612 -0.8949
10505TIP3   OH253005   4.436   3.921   5.714  0.0350  0.1592  0.0619
10505TIP3    H153006   4.478   3.837   5.696 -0.4934  0.1562 -1.2370
10505TIP3    H253007   4.424   3.961   5.628  0.4064  1.6363  0.6712
10506TIP3   OH253008   2.658   2.300  13.824 -0.3360 -0.3690  0.0508
10506TIP3    H153009   2.651   2.345  13.908 -0.1077 -0.0763 -0.0869
10506TIP3    H253010   2.641   2.368  13.759 -1.9408 -0.8743 -0.1109
10507TIP3   OH253011   1.983   0.894  13.323  0.4572  0.8680  0.1787
10507TIP3    H153012   2.038   0.941  13.260  1.5400  1.6590  1.6428
10507TIP3    H253013   1.999   0.801  13.303 -0.4172  1.0692 -1.6691
10508TIP3   OH253014   2.423   3.847  14.064 -0.1765 -0.8566  0.3921
10508TIP3    H153015   2.499   3.790  14.059 -0.4079 -1.1316 -0.1164
10508TIP3    H253016   2.453   3.924  14.112  0.2755 -1.1889  0.6420
10509TIP3   OH253017   6.689   4.452  14.611  0.5370 -0.1772 -0.7940
10509TIP3    H153018   6.728   4.366  14.625  0.1732 -0.3130 -0.6133
10509TIP3    H253019   6.630   4.465  14.685 -1.6914 -1.0583 -2.3255
10510TIP3   OH253020   0.350   0.035  11.709  0.3834  0.1774  0.4877
10510TIP3    H153021   0.411   0.069  11.775 -0.1287 -0.6513  1.4316
10510TIP3    H253022   0.298  -0.030  11.757 -0.8290  0.4246 -0.4393
10511TIP3   OH253023   6.202   1.610  13.029 -0.2225  0.4180 -0.0112
10511TIP3    H153024   6.204   1.576  12.939  0.8878 -0.1694  0.2197
10511TIP3    H253025   6.162   1.541  13.081  0.9701 -0.0894  0.2640
10512TIP3   OH253026   2.317   4.338  15.306  0.0451 -0.5041  0.1948
10512TIP3    H153027   2.266   4.328  15.386 -1.8241 -1.3815 -1.0042
10512TIP3    H253028   2.280   4.273  15.246  0.7714  0.6920 -1.6539
10513TIP3   OH253029   1.757   6.711  12.597  0.3009  0.3228 -0.4905
10513TIP3    H153030   1.689   6.775  12.574 -2.5622 -1.6715  1.8173
10513TIP3    H253031   1.812   6.757  12.660 -0.8221  0.9860  0.0273
10514TIP3   OH253032   2.502   1.666  12.227 -0.0755  0.3624 -1.0028
10514TIP3    H153033   2.596   1.672  12.246 -0.7523 -0.3721  3.9672
10514TIP3    H253034   2.489   1.575  12.201  0.5261  0.4177 -1.5266
10515TIP3   OH253035   5.456   0.188  14.117  0.1801 -0.4097 -0.1311
10515TIP3    H153036   5.374   0.139  14.127 -0.0099  0.2424  2.2575
10515TIP3    H253037   5.435   0.275  14.150  1.4342  0.2539 -1.0305
10516TIP3   OH253038   1.174   5.511  16.579 -0.3382 -0.1803  0.6032
10516TIP3    H153039   1.086   5.493  16.611 -0.3210  1.0026  1.3889
10516TIP3    H253040   1.163   5.522  16.484 -1.0828  0.1630  0.7205
10517TIP3   OH253041   4.543   6.617  17.063  0.0820  0.0679  0.1994
10517TIP3    H153042   4.634   6.604  17.039  0.1489 -0.2529  0.6059
10517TIP3    H253043   4.513   6.689  17.008  0.4959 -0.0181 -0.1441
10518TIP3   OH253044   5.802   2.720   5.101 -0.0709 -0.2215  0.3251
10518TIP3    H153045   5.813   2.793   5.040 -0.0867 -0.2285  0.3139
10518TIP3    H253046   5.708   2.702   5.100  0.1447 -1.5803 -1.2295
10519TIP3   OH253047   6.815   5.194  12.041  0.0225 -0.4249  0.4306
10519TIP3    H153048   6.745   5.244  12.082  0.8595 -0.7103  2.2999
10519TIP3    H253049   6.776   5.157  11.962 -1.0077  2.0348 -0.3117
10520TIP3   OH253050   1.569   6.126   0.368  0.0608  0.7730  0.2611
10520TIP3    H153051   1.589   6.149   0.278  2.7777 -0.2795  0.5123
10520TIP3    H253052   1.575   6.031   0.371  1.7397  0.8661  1.8427
10521TIP3   OH253053   6.304   6.279   5.511 -0.2187  0.1244 -0.3676
10521TIP3    H153054   6.267   6.267   5.599  0.1142 -2.7167 -0.5074
10521TIP3    H253055   6.229   6.269   5.452 -0.3272  1.3490 -0.4569
10522TIP3   OH253056   3.702   0.502   3.953 -0.9056 -0.3200  0.1610
10522TIP3    H153057   3.721   0.587   3.913  0.0749  0.6561  2.4990
10522TIP3    H253058   3.607   0.501   3.963 -1.0196  0.0583 -0.7574
10523TIP3   OH253059   1.132   1.902   5.968 -0.3421 -0.4125  0.2877
10523TIP3    H153060   1.157   1.810   5.959 -0.1236 -0.3219 -0.0706
10523TIP3    H253061   1.102   1.910   6.059  2.8971 -0.0632  1.4540
10524TIP3   OH253062   2.792   2.378   3.267 -0.3779 -0.0203  0.2853
10524TIP3    H153063   2.841   2.451   3.305 -1.7379  0.4915  1.1394
10524TIP3    H253064   2.858   2.310   3.253  0.9854  1.4502 -0.8228
10525TIP3   OH253065   4.296   0.727   4.572 -0.5961  0.4867  0.5058
10525TIP3    H153066   4.213   0.702   4.532 -1.2832  0.2818  1.9897
10525TIP3    H253067   4.283   0.817   4.600  0.0495  0.7949 -0.1625
10526TIP3   OH253068   4.000   1.784  11.654 -0.1611  0.1554 -0.2544
10526TIP3    H153069   4.094   1.795  11.672 -0.2894  2.2860 -0.6904
10526TIP3    H253070   3.982   1.693  11.678  1.8116 -0.0322  0.7172
10527TIP3   OH253071   4.897   3.483  14.283 -0.0954  0.2805 -0.5516
10527TIP3    H153072   4.895   3.548  14.213 -0.5800  0.4602 -0.3818
10527TIP3    H253073   4.932   3.404  14.243 -1.6507 -0.0416 -1.3701
10528TIP3   OH253074   5.085   0.283   6.925  0.0602  0.2063 -1.2049
10528TIP3    H153075   5.042   0.327   6.852 -2.7372 -3.1232 -1.8285
10528TIP3    H253076   5.138   0.214   6.884  2.3482  1.2472 -0.1842
10529TIP3   OH253077   4.475   5.697  15.108 -0.0569 -0.3743  0.7519
10529TIP3    H153078   4.399   5.653  15.070  0.7118  0.3028 -1.7152
10529TIP3    H253079   4.447   5.788  15.119 -0.1333 -0.4771  1.4595
10530TIP3   OH253080   3.364   6.021   3.049  0.4954  0.8150 -0.1188
10530TIP3    H153081   3.396   6.085   3.112 -0.4811  1.4525 -0.2478
10530TIP3    H253082   3.372   6.064   2.964 -0.9924  1.1567 -0.1269
10531TIP3   OH253083   0.363   1.272   0.637 -0.5748  0.2320 -0.1440
10531TIP3    H153084   0.332   1.346   0.689 -0.3918 -1.1321  2.0342
10531TIP3    H253085   0.283   1.234   0.600 -0.6542  1.5517 -1.3873
10532TIP3   OH253086   0.285   2.549   4.748 -0.1068  0.0127  0.0982
10532TIP3    H153087   0.358   2.521   4.693 -1.6429 -1.3936 -1.3352
10532TIP3    H253088   0.272   2.476   4.809  1.3314  1.3915  2.1646
10533TIP3   OH253089   6.834   3.058   4.212  0.1774 -0.2522 -0.1417
10533TIP3    H153090   6.785   3.086   4.288  1.3010  1.8175 -0.0970
10533TIP3    H253091   6.784   2.986   4.175 -2.8764  1.6760 -0.0838
10534TIP3   OH253092   1.926   5.674   1.829  0.3948 -0.2009  0.0092
10534TIP3    H153093   1.897   5.712   1.746  1.3845 -0.3123 -0.4041
10534TIP3    H253094   1.862   5.706   1.893  0.2078  0.7398 -0.6140
10535TIP3   OH253095   4.139   4.954   6.279 -0.2525 -0.0752 -0.0131
10535TIP3    H153096   4.125   4.993   6.365 -0.4526  0.9582 -0.4948
10535TIP3    H253097   4.076   4.882   6.275 -1.4620  0.9432  0.0564
10536TIP3   OH253098   1.047   5.037   4.593  0.3164  0.5563 -0.1309
10536TIP3    H153099   1.030   5.101   4.662  1.3631 -0.2876  0.9575
10536TIP3    H253100   1.142   5.029   4.591  0.2021 -1.2511  0.0502
10537TIP3   OH253101   5.317   0.797  11.186 -0.0632  0.0692 -0.4231
10537TIP3    H153102   5.313   0.818  11.279 -2.2164  1.0059 -0.6646
10537TIP3    H253103   5.369   0.717  11.181 -1.0221 -0.7529  1.7311
10538TIP3   OH253104   3.721   4.816  12.634  0.5452  0.3286  0.0414
10538TIP3    H153105   3.810   4.789  12.653  1.5284  2.6795 -0.8709
10538TIP3    H253106   3.718   4.824  12.538 -0.9187 -0.5698 -0.0105
10539TIP3   OH253107   3.921   5.869  13.259 -0.0335  0.1520 -0.1160
10539TIP3    H153108   3.929   5.863  13.163 -0.7717 -0.5708 -0.1401
10539TIP3    H253109   3.844   5.816  13.280 -0.3296  0.9237  0.8101
10540TIP3   OH253110   1.608   5.700   5.731 -0.0733 -0.2715  0.2910
10540TIP3    H153111   1.665   5.628   5.706  0.4482  0.2888 -0.1754
10540TIP3    H253112   1.652   5.778   5.696 -0.6929  0.2535  0.6673
10541TIP3   OH253113   6.471   5.130  15.760 -0.1161  0.7534 -0.3659
10541TIP3    H153114   6.414   5.057  15.783  0.2106  0.3389 -0.8391
10541TIP3    H253115   6.483   5.122  15.666  1.2699  0.4188 -0.1826
10542TIP3   OH253116   3.770   3.248   0.886 -0.1084  0.0232  0.5653
10542TIP3    H153117   3.775   3.305   0.809 -0.7317 -0.5749  0.0700
10542TIP3    H253118   3.801   3.162   0.855  1.7725  0.2844  1.5417
10543TIP3   OH253119   5.352   2.350   0.185 -0.0846 -0.2560  0.8982
10543TIP3    H153120   5.419   2.294   0.223  0.3632  0.6963  1.5737
10543TIP3    H253121   5.399   2.405   0.122 -0.0539  0.9091  1.8861
10544TIP3   OH253122   5.807   6.388  13.885  0.2567  0.0742 -0.0090
10544TIP3    H153123   5.733   6.376  13.826  0.5645 -1.7284 -0.0740
10544TIP3    H253124   5.797   6.478  13.917 -1.8689 -0.0640 -0.1178
10545TIP3   OH253125   1.189   5.966   0.095  0.6000  0.7528  0.1929
10545TIP3    H153126   1.095   5.980   0.086  0.4828 -0.6258 -0.9112
10545TIP3    H253127   1.221   6.047   0.137 -1.0584  1.2236  0.6178
10546TIP3   OH253128   0.224   3.314  17.194 -0.0143 -0.0607  0.0325
10546TIP3    H153129   0.290   3.244  17.187  0.2278 -0.1108  2.0791
10546TIP3    H253130   0.145   3.276  17.155  0.7992 -0.4813 -1.2777
10547TIP3   OH253131   2.389   3.035  14.728  0.2770  0.4423  0.0735
10547TIP3    H153132   2.472   3.013  14.771  0.1202 -1.4656 -0.4897
10547TIP3    H253133   2.376   2.964  14.664 -1.2154  1.3287 -0.6563
10548TIP3   OH253134   0.723   5.875  14.339 -0.2135  0.2974  0.0228
10548TIP3    H153135   0.673   5.953  14.314 -2.1818 -0.6039  0.9088
10548TIP3    H253136   0.784   5.862  14.267  1.3643  3.5587  0.5743
10549TIP3   OH253137   5.689   5.368  15.299  0.5268 -0.1714 -0.7402
10549TIP3    H153138   5.629   5.414  15.239 -1.9918  0.1419  1.7899
10549TIP3    H253139   5.682   5.276  15.274  0.1808  0.0427 -1.4663
10550TIP3   OH253140   3.803   1.429  14.697  0.0296 -0.3457 -0.1962
10550TIP3    H153141   3.770   1.499  14.641 -0.7672  0.6378  1.4533
10550TIP3    H253142   3.884   1.465  14.734 -0.0345 -0.5601  0.1482
10551TIP3   OH253143   3.436   5.654   4.939  0.0763 -0.1490  0.4199
10551TIP3    H153144   3.501   5.690   4.879 -1.5539  1.0460 -0.7439
10551TIP3    H253145   3.417   5.567   4.906 -0.4595  0.3231 -0.5516
10552TIP3   OH253146   0.845   2.668  17.098  0.4009 -0.5495 -0.2583
10552TIP3    H153147   0.881   2.589  17.057  1.0957 -0.4288  0.1010
10552TIP3    H253148   0.800   2.714  17.027  1.0525 -0.6510 -0.7426
10553TIP3   OH253149   0.103   3.229  15.259  0.0921 -0.1648  0.1588
10553TIP3    H153150   0.098   3.280  15.178 -1.0703  1.0414  0.9482
10553TIP3    H253151   0.197   3.225  15.279  0.1602  3.4865  1.1329
10554TIP3   OH253152   6.399   3.269   2.479 -0.1212 -0.2168  0.1227
10554TIP3    H153153   6.416   3.179   2.454  0.3560 -0.1178  0.0749
10554TIP3    H253154   6.312   3.268   2.518 -0.1289 -0.6906  0.0902
10555TIP3   OH253155   1.982   6.309   0.535  0.4812  0.3062 -0.1351
10555TIP3    H153156   1.963   6.237   0.595 -0.8635  0.3561 -0.4707
10555TIP3    H253157   1.896   6.339   0.506  0.9735  2.4242  0.4310
10556TIP3   OH253158   1.617   3.980  16.955  0.0660  0.2636 -0.4799
10556TIP3    H153159   1.648   4.070  16.945  1.1729 -0.1464 -0.9222
10556TIP3    H253160   1.640   3.956  17.045  1.2212 -0.0845 -0.8467
10557TIP3   OH253161   2.672   1.028  11.940 -0.5097 -0.3611  0.4048
10557TIP3    H153162   2.758   1.036  11.981 -0.5644  1.2194  0.2616
10557TIP3    H253163   2.660   1.109  11.891 -1.3165 -1.3306 -1.1010
10558TIP3   OH253164   1.634   3.739  14.828  0.1237  0.4984  0.2624
10558TIP3    H153165   1.685   3.777  14.756  0.1953  1.2382  0.7048
10558TIP3    H253166   1.671   3.651  14.839  0.4453  0.5614 -0.2632
10559TIP3   OH253167   0.139   6.768  14.177 -0.1905  0.4967  0.9910
10559TIP3    H153168   0.231   6.751  14.196 -0.8667 -1.8262  2.7294
10559TIP3    H253169   0.108   6.820  14.250 -0.4981  0.3575  0.9625
10560TIP3   OH253170   4.403   6.447  13.274 -0.3772  0.1790  0.3740
10560TIP3    H153171   4.385   6.363  13.316  1.7389  0.1353  1.3516
10560TIP3    H253172   4.484   6.432  13.225 -0.1476  1.5579  0.2937
10561TIP3   OH253173   0.530   1.210  14.697 -0.0380 -0.0391  0.1365
10561TIP3    H153174   0.513   1.200  14.791 -1.4725 -1.2945 -0.2157
10561TIP3    H253175   0.626   1.207  14.690  0.2414  2.0975  1.7229
10562TIP3   OH253176   3.775   4.722   5.180 -0.0452 -0.8802 -0.0705
10562TIP3    H153177   3.725   4.696   5.103  2.3347 -0.4365 -1.8959
10562TIP3    H253178   3.859   4.753   5.145 -0.4100  3.6461  2.3170
10563TIP3   OH253179   1.474   2.136   6.296  0.1084  0.7081  0.0290
10563TIP3    H153180   1.489   2.219   6.252 -0.2169  0.1726 -1.1350
10563TIP3    H253181   1.388   2.145   6.337  1.5017  2.2013  3.0018
10564TIP3   OH253182   1.658   1.671   4.440  0.6733  0.1679  0.1679
10564TIP3    H153183   1.586   1.732   4.451  1.2623  0.9735 -0.3702
10564TIP3    H253184   1.644   1.605   4.508 -1.0416 -0.1687 -0.4638
10565TIP3   OH253185   3.237   4.560   5.243 -0.0987  0.6500 -0.4422
10565TIP3    H153186   3.194   4.535   5.162 -1.0233  0.2897  0.1467
10565TIP3    H253187   3.329   4.569   5.219 -0.2108 -0.3520 -1.3297
10566TIP3   OH253188   4.080   3.116   2.494 -0.2589 -0.0791 -0.0658
10566TIP3    H153189   4.150   3.055   2.515 -0.8212 -0.6906  0.0908
10566TIP3    H253190   4.029   3.071   2.426 -0.4048  0.4230 -0.2929
10567TIP3   OH253191   3.749   5.045   2.009 -0.3356  0.5002  0.2444
10567TIP3    H153192   3.812   5.114   1.989  1.5961 -1.6034 -1.4646
10567TIP3    H253193   3.694   5.038   1.931 -0.2090 -0.1838  0.2090
10568TIP3   OH253194   3.191   2.916   4.945 -0.2490 -0.8020  0.1346
10568TIP3    H153195   3.172   3.007   4.968  0.5420 -0.8385  0.9615
10568TIP3    H253196   3.110   2.885   4.903  0.0817  0.8052 -1.8506
10569TIP3   OH253197   5.412   1.793   1.520  0.5486  0.1690 -0.0215
10569TIP3    H153198   5.490   1.744   1.494 -0.2799 -1.5951  0.6965
10569TIP3    H253199   5.446   1.864   1.575  1.7406  0.1816 -0.7210
10570TIP3   OH253200   5.682   1.811  14.489 -0.5731 -0.3008  0.1223
10570TIP3    H153201   5.763   1.808  14.539  0.1087 -0.1290 -0.9304
10570TIP3    H253202   5.664   1.904  14.478 -2.5210 -0.2477  2.7888
10571TIP3   OH253203   5.211   0.539   4.680  0.6745 -0.2502 -0.0567
10571TIP3    H153204   5.292   0.582   4.706  0.9029 -1.2358  0.9388
10571TIP3    H253205   5.213   0.539   4.585  2.3682 -1.1837 -0.0514
10572TIP3   OH253206   4.553   3.135   3.478  0.4070 -0.0550 -0.4197
10572TIP3    H153207   4.507   3.197   3.421 -1.2342 -0.4877  0.4031
10572TIP3    H253208   4.513   3.146   3.564 -1.5235 -3.7386 -0.6579
10573TIP3   OH253209   2.062   3.053   0.666  0.1588 -0.1383 -0.0591
10573TIP3    H153210   2.011   2.974   0.648  1.7366 -1.3049  0.4238
10573TIP3    H253211   2.121   3.061   0.591 -1.0834  1.5743 -0.9391
10574TIP3   OH253212   4.948   1.749   0.754 -0.0881  0.2077 -0.2708
10574TIP3    H153213   4.989   1.702   0.681  0.6720  1.8249 -0.9274
10574TIP3    H253214   4.854   1.745   0.734  0.1186  0.7309 -1.4231
10575TIP3   OH253215   4.931   1.877  10.674  0.0572 -0.2756 -0.2093
10575TIP3    H153216   4.841   1.898  10.698  0.5291  2.0939 -0.2306
10575TIP3    H253217   4.982   1.902  10.751  0.7672 -1.0922 -0.3948
10576TIP3   OH253218   2.852   1.849   5.482 -0.5770  0.5919  0.7289
10576TIP3    H153219   2.912   1.888   5.546 -1.4059  1.8907  0.7550
10576TIP3    H253220   2.885   1.878   5.397 -0.2026 -0.0899  0.6392
10577TIP3   OH253221   5.150   2.375   0.891  0.9529  0.0087 -0.4201
10577TIP3    H153222   5.056   2.370   0.910  1.3320 -1.0213  1.4385
10577TIP3    H253223   5.157   2.353   0.798 -0.7451  1.6058 -0.9826
10578TIP3   OH253224   4.001   5.157   3.529 -0.6571 -0.1333 -0.5529
10578TIP3    H153225   4.003   5.070   3.488  0.1839 -0.0370 -0.7404
10578TIP3    H253226   4.002   5.138   3.623  3.5913 -0.4036 -0.4492
10579TIP3   OH253227   2.163   2.297  12.977  0.4117 -0.3100 -0.2962
10579TIP3    H153228   2.105   2.232  12.938 -0.3094 -0.9989  1.8097
10579TIP3    H253229   2.168   2.366  12.911 -0.9105 -1.2854 -1.5020
10580TIP3   OH253230   5.334   0.582  13.707 -0.1502  1.0119  0.0429
10580TIP3    H153231   5.313   0.564  13.799  1.8170  1.4133  0.6237
10580TIP3    H253232   5.361   0.674  13.707 -0.0495  0.9870 -0.9326
10581TIP3   OH253233   2.794   1.026   1.624  0.7972  0.0638 -0.7404
10581TIP3    H153234   2.888   1.041   1.636  0.6700  0.2320  0.1603
10581TIP3    H253235   2.774   0.956   1.687  0.2121  0.4359 -0.5061
10582TIP3   OH253236   2.677   1.869  13.517  0.3268 -0.6882  0.0268
10582TIP3    H153237   2.664   1.926  13.441 -2.6030 -0.8084  0.3103
10582TIP3    H253238   2.767   1.838  13.508  0.1982 -0.5546 -3.3286
10583TIP3   OH253239   3.687   6.544   0.126  0.5160 -0.2867 -0.6384
10583TIP3    H153240   3.616   6.607   0.123 -0.1658 -0.9808  0.2831
10583TIP3    H253241   3.746   6.571   0.055 -0.7430  0.1867 -1.5483
10584TIP3   OH253242   6.592   4.928  12.882  0.4408  0.2644  0.4384
10584TIP3    H153243   6.541   4.872  12.824 -0.3262 -0.0921  1.4169
10584TIP3    H253244   6.637   4.989  12.824  0.6452 -0.8269 -0.5951
10585TIP3   OH253245   1.847   2.270   4.915 -0.4535  0.1321  0.3654
10585TIP3    H153246   1.770   2.277   4.972  0.9317  3.0858  2.0808
10585TIP3    H253247   1.918   2.311   4.965  1.4685  0.5316 -2.4849
10586TIP3   OH253248   2.597   1.969   5.509  0.8603 -0.4168 -0.3528
10586TIP3    H153249   2.680   1.922   5.513  1.7781  1.2413  1.9373
10586TIP3    H253250   2.612   2.041   5.448  0.9538 -0.3892 -0.2968
10587TIP3   OH253251   3.879   5.042  14.407 -0.1345  0.3073  0.1534
10587TIP3    H153252   3.944   5.013  14.343 -2.7504 -0.0409 -2.5994
10587TIP3    H253253   3.867   4.967  14.465 -0.1307 -0.6897 -1.0966
10588TIP3   OH253254   2.686   0.412  11.173 -0.6078  0.2269  0.0120
10588TIP3    H153255   2.595   0.388  11.188 -1.0286  1.1525 -0.9622
10588TIP3    H253256   2.693   0.424  11.078  0.5340  0.1567  0.0698
10589TIP3   OH253257   2.036   1.291  13.715 -0.4347  0.7201 -0.1229
10589TIP3    H153258   2.079   1.216  13.675 -1.0185  0.8666 -1.0346
10589TIP3    H253259   1.948   1.260  13.736  0.1043  0.3888  1.8406
10590TIP3   OH253260   5.808   6.179  16.691  0.3822 -0.5137 -0.5673
10590TIP3    H153261   5.756   6.211  16.617 -2.6205 -2.8321  0.3420
10590TIP3    H253262   5.853   6.257  16.724 -2.1851  1.6112 -1.7262
10591TIP3   OH253263   4.947   5.234   0.518 -0.1509 -0.1569 -0.1030
10591TIP3    H153264   4.874   5.296   0.521  0.0916  0.1074  0.9669
10591TIP3    H253265   4.978   5.237   0.428 -0.4353  0.9463 -0.1845
10592TIP3   OH253266   5.992   3.512   0.522 -0.2788 -0.1954 -0.0563
10592TIP3    H153267   5.939   3.471   0.591 -0.5410  0.2322 -0.0002
10592TIP3    H253268   5.928   3.535   0.453 -0.2061  0.5224  0.1065
10593TIP3   OH253269   3.475   1.811   0.976 -0.2794 -0.0663 -0.0383
10593TIP3    H153270   3.525   1.871   1.031 -0.6915 -1.1595  1.6045
10593TIP3    H253271   3.534   1.791   0.903  1.2859 -0.4340  1.2434
10594TIP3   OH253272   5.947   4.300   3.165  0.0695 -0.1039 -0.7035
10594TIP3    H153273   5.871   4.307   3.223  0.9451  0.4766  0.4089
10594TIP3    H253274   6.010   4.364   3.199  0.7135  0.0675 -2.1486
10595TIP3   OH253275   4.298   2.494  13.882  0.0539 -0.4553  0.3909
10595TIP3    H153276   4.321   2.562  13.946 -0.7226 -0.2758  0.4842
10595TIP3    H253277   4.370   2.431  13.888  1.8905  1.3442 -1.1900
10596TIP3   OH253278   6.180   5.336  15.648 -0.0532 -0.5127 -0.1916
10596TIP3    H153279   6.177   5.421  15.693  0.0805 -0.2960 -0.5842
10596TIP3    H253280   6.199   5.273  15.717 -1.0205 -0.3338  0.2485
10597TIP3   OH253281   6.182   6.253   1.846  0.0946 -0.4532  0.4294
10597TIP3    H153282   6.133   6.324   1.803  0.3956  1.0000  2.3536
10597TIP3    H253283   6.273   6.280   1.841  0.1498 -0.3397  1.7856
10598TIP3   OH253284   4.159   3.184   0.862  0.1055 -0.1339  0.0083
10598TIP3    H153285   4.066   3.164   0.873 -0.0591  0.2291 -0.6607
10598TIP3    H253286   4.191   3.199   0.951 -0.1696 -1.5474  0.3687
10599TIP3   OH253287   1.550   0.031  12.932  0.8404  0.4107  0.1281
10599TIP3    H153288   1.632   0.065  12.968  0.4818  0.6199  0.7764
10599TIP3    H253289   1.545   0.067  12.844  2.3431 -1.0909 -0.6381
10600TIP3   OH253290   1.064   4.246   2.334  0.5642 -0.0857 -0.1241
10600TIP3    H153291   1.113   4.234   2.253 -1.1157 -2.1384 -0.9173
10600TIP3    H253292   1.115   4.310   2.383  1.7959  1.0263 -2.6578
10601TIP3   OH253293   4.656   4.899   5.495  0.1699 -0.0644 -0.3206
10601TIP3    H153294   4.657   4.991   5.469  1.1389  0.2277  0.6415
10601TIP3    H253295   4.592   4.858   5.437 -0.2601  1.2066 -0.7867
10602TIP3   OH253296   4.749   1.329  15.155 -0.9403  0.7341  0.8217
10602TIP3    H153297   4.682   1.265  15.178 -2.0266  1.4554 -0.1999
10602TIP3    H253298   4.829   1.277  15.141 -1.2986 -0.1509  1.9249
10603TIP3   OH253299   1.128   3.398   2.260  0.2844 -0.3532 -0.7568
10603TIP3    H153300   1.115   3.389   2.166  1.7392  0.6674 -1.0870
10603TIP3    H253301   1.187   3.325   2.284  0.8007  0.0292 -0.8493
10604TIP3   OH253302   6.735   0.975   4.844 -0.0712 -0.1717  0.0043
10604TIP3    H153303   6.803   0.933   4.896 -0.4822  0.2337  0.8903
10604TIP3    H253304   6.782   1.020   4.774  0.6346  0.5539  0.9121
10605TIP3   OH253305   3.962   4.905  16.302 -0.1818  0.0861  0.2814
10605TIP3    H153306   4.025   4.974  16.325  0.5382  0.2710 -1.9432
10605TIP3    H253307   3.885   4.952  16.271  0.2036 -0.0830 -0.9747
10606TIP3   OH253308   6.481   2.764  15.331  0.3756 -0.2264 -0.7870
10606TIP3    H153309   6.571   2.733  15.325  0.9358  0.9368  0.7804
10606TIP3    H253310   6.452   2.734  15.417 -0.2676  0.5227 -0.7318
10607TIP3   OH253311   6.301   0.727  13.440 -0.7521  0.3466  0.3590
10607TIP3    H153312   6.218   0.749  13.480 -0.6833  0.7528  0.2811
10607TIP3    H253313   6.279   0.662  13.373 -0.5857 -2.1621  2.5785
10608TIP3   OH253314   6.468   0.168   4.974 -0.3816 -0.5079 -0.5713
10608TIP3    H153315   6.442   0.090   4.925 -0.7475  0.9740 -2.8895
10608TIP3    H253316   6.559   0.183   4.949 -0.2035 -0.3704  0.1351
10609TIP3   OH253317   4.406   2.303  11.565  0.5219  0.1871 -0.0409
10609TIP3    H153318   4.451   2.220  11.575  1.6814  0.9096  1.0983
10609TIP3    H253319   4.329   2.283  11.511  1.4488 -1.3522 -0.8448
10610TIP3   OH253320   1.575   3.419   2.904 -1.5587  0.1581  0.5150
10610TIP3    H153321   1.573   3.464   2.820  0.7488  0.9019  0.7893
10610TIP3    H253322   1.578   3.326   2.881  3.0576  0.3093 -0.5900
10611TIP3   OH253323   1.571   0.180  15.228  0.0358 -0.3084 -0.2542
10611TIP3    H153324   1.592   0.149  15.140 -0.4395 -1.7486  0.1017
10611TIP3    H253325   1.517   0.110  15.265 -1.3865  1.1318  0.5089
10612TIP3   OH253326   6.272   5.635  16.551 -0.3876 -0.2620  0.3008
10612TIP3    H153327   6.246   5.687  16.476  0.9018  1.0020  0.6791
10612TIP3    H253328   6.240   5.684  16.627  0.3757 -0.2634  0.6402
10613TIP3   OH253329   5.171   0.230  10.624  0.4612  0.1360 -0.0014
10613TIP3    H153330   5.082   0.241  10.591  0.4287 -1.3872 -0.4796
10613TIP3    H253331   5.202   0.319  10.640 -0.8341  0.7212 -0.6496
10614TIP3   OH253332   4.862   0.323  16.519  0.0131  0.0350  0.5185
10614TIP3    H153333   4.830   0.236  16.496  0.0326  0.0477  0.4402
10614TIP3    H253334   4.936   0.307  16.578 -0.1661  0.0078  0.7355
10615TIP3   OH253335   2.540   5.809   6.483 -0.0746 -0.6939  0.1052
10615TIP3    H153336   2.570   5.758   6.558  0.4279  0.6300  0.8406
10615TIP3    H253337   2.619   5.850   6.448 -0.5045 -0.1182 -0.2163
10616TIP3   OH253338   5.642   2.574   3.234  0.3712 -0.5956 -0.0990
10616TIP3    H153339   5.593   2.654   3.256  0.8212  0.0267 -1.3103
10616TIP3    H253340   5.733   2.602   3.232  0.4667 -0.9375 -1.3158
10617TIP3   OH253341   2.144   2.090   2.281  0.2696  0.1954 -0.1899
10617TIP3    H153342   2.135   2.016   2.220 -0.1177  0.5840 -0.6079
10617TIP3    H253343   2.060   2.094   2.327 -0.8437  2.1632 -2.2141
10618TIP3   OH253344   6.407   2.353  13.469 -0.1427  0.9600 -0.7029
10618TIP3    H153345   6.408   2.372  13.375 -1.3723  1.5587 -0.6173
10618TIP3    H253346   6.367   2.431  13.508 -1.3970 -0.0614  0.1159
10619TIP3   OH253347   0.203   4.760  16.248 -0.0978 -0.1819  0.3087
10619TIP3    H153348   0.206   4.682  16.193 -4.3968 -1.9224  2.0551
10619TIP3    H253349   0.248   4.734  16.328 -0.2504 -0.3769  0.3329
10620TIP3   OH253350   6.708   5.564  16.582  0.0605  0.2091 -0.0917
10620TIP3    H153351   6.615   5.541  16.584 -0.4973  2.3608  0.1647
10620TIP3    H253352   6.731   5.561  16.489 -0.3592  0.0883 -0.1951
10621TIP3   OH253353   1.567   3.045  16.613  0.1379  0.3883  0.2037
10621TIP3    H153354   1.584   3.036  16.706 -0.3795  1.8887  0.4764
10621TIP3    H253355   1.482   3.004  16.599  0.1161  0.3557  0.4368
10622TIP3   OH253356   0.747   5.709   0.620 -0.2987 -0.5600 -0.5572
10622TIP3    H153357   0.809   5.724   0.549 -1.2560  0.3894 -1.2329
10622TIP3    H253358   0.741   5.614   0.627  0.0119 -0.6668 -1.5650
10623TIP3   OH253359   4.681   0.985  13.893 -0.5559 -0.0236 -0.0158
10623TIP3    H153360   4.699   1.025  13.978 -0.5987 -0.4190  0.1833
10623TIP3    H253361   4.764   0.991  13.845 -0.7160  0.8058 -0.2023
10624TIP3   OH253362   5.401   1.604  14.873  0.1834 -0.1045  0.1136
10624TIP3    H153363   5.407   1.660  14.796  0.1400 -0.5414 -0.2085
10624TIP3    H253364   5.418   1.663  14.947 -2.2036  0.8464 -0.0143
10625TIP3   OH253365   6.270   4.226  15.328  0.1107 -0.2854 -0.4899
10625TIP3    H153366   6.338   4.191  15.386  0.2432  1.4095  0.4228
10625TIP3    H253367   6.288   4.320  15.323 -1.2221 -0.0533 -1.5270
10626TIP3   OH253368   0.350   5.896  11.568  0.0446  0.4547  0.3033
10626TIP3    H153369   0.413   5.953  11.525 -0.3067  1.3272  0.9277
10626TIP3    H253370   0.320   5.837  11.499  1.2504  0.2713 -0.0895
10627TIP3   OH253371   5.111   2.151  14.995  0.1561 -0.5706 -0.3113
10627TIP3    H153372   5.201   2.122  15.008 -0.5789 -1.6701  3.6277
10627TIP3    H253373   5.058   2.073  15.012 -1.6187  1.0021  2.0356
10628TIP3   OH253374   6.211   6.560   1.925 -0.0103 -0.0359  0.6394
10628TIP3    H153375   6.236   6.598   1.841 -0.6887  3.5120  1.8596
10628TIP3    H253376   6.257   6.615   1.990 -2.0694 -0.5183  2.6267
10629TIP3   OH253377   0.983   5.677   3.278 -0.0090 -0.4294 -0.0975
10629TIP3    H153378   1.073   5.650   3.259  0.0281 -0.7280  0.4910
10629TIP3    H253379   0.980   5.686   3.373 -1.0906 -2.2618  0.0890
10630TIP3   OH253380   3.508   0.805  10.786  0.7934 -0.1402 -0.0509
10630TIP3    H153381   3.523   0.843  10.699 -2.6885 -1.6941 -1.4914
10630TIP3    H253382   3.483   0.879  10.841 -0.1103  0.4583 -1.2368
10631TIP3   OH253383   0.832   5.115  14.888  0.2107  0.1456  0.1094
10631TIP3    H153384   0.798   5.136  14.801  1.8435  1.4442 -0.2859
10631TIP3    H253385   0.879   5.194  14.915  0.9819 -0.7413  1.5355
10632TIP3   OH253386   0.251   4.934   5.842  0.3619 -0.2554 -0.0496
10632TIP3    H153387   0.206   5.010   5.881 -0.5308  1.2929 -3.6918
10632TIP3    H253388   0.342   4.943   5.871  0.4341  2.6460 -0.8126
10633TIP3   OH253389   1.243   5.561  15.090  0.1942  0.4945 -0.1883
10633TIP3    H153390   1.167   5.608  15.055 -0.0749 -0.2173 -0.5791
10633TIP3    H253391   1.207   5.506  15.160  0.5137  0.8735  0.2887
10634TIP3   OH253392   5.590   6.593   6.476 -0.3710 -0.1908  0.2976
10634TIP3    H153393   5.679   6.623   6.495  0.0120 -1.5301  0.7027
10634TIP3    H253394   5.596   6.497   6.477 -1.6179 -0.3031 -0.6241
10635TIP3   OH253395   4.579   5.918  16.119 -0.0408 -0.2533 -0.0943
10635TIP3    H153396   4.584   6.007  16.084  1.0452 -0.3635 -0.2667
10635TIP3    H253397   4.508   5.877  16.070 -0.4620  0.4775 -0.1063
10636TIP3   OH253398   2.417   3.813   5.885 -0.2671  0.4127 -0.3464
10636TIP3    H153399   2.404   3.905   5.908  0.4112  0.5966 -0.6699
10636TIP3    H253400   2.478   3.780   5.951  0.6125  0.5828 -1.0527
10637TIP3   OH253401   6.499   3.582   4.019  0.5977 -0.3464  0.1233
10637TIP3    H153402   6.492   3.504   4.073  2.0291 -0.2557  0.4762
10637TIP3    H253403   6.589   3.613   4.032  0.3184  0.8858 -0.6536
10638TIP3   OH253404   3.468   0.393  12.691 -0.1428  0.1837  0.9268
10638TIP3    H153405   3.466   0.433  12.604 -1.2722  0.1581  0.9347
10638TIP3    H253406   3.553   0.418  12.727  0.4383 -0.0001 -0.2744
10639TIP3   OH253407   4.487   3.501  14.278 -0.1365  0.1295  0.4844
10639TIP3    H153408   4.525   3.462  14.356  1.7034  1.7933  0.5057
10639TIP3    H253409   4.533   3.460  14.205  1.5741  1.8669  0.4969
10640TIP3   OH253410   4.588   5.902  17.110 -0.4011 -0.1043 -0.0602
10640TIP3    H153411   4.629   5.819  17.085  2.0070  1.0201 -0.1548
10640TIP3    H253412   4.606   5.961  17.036  0.5472  1.2981  1.2235
10641TIP3   OH253413   2.522   4.756   5.298 -0.5360  0.7642 -0.2505
10641TIP3    H153414   2.506   4.843   5.262  0.4166  0.8715 -0.4337
10641TIP3    H253415   2.614   4.758   5.325 -1.3020  0.8560  2.6493
10642TIP3   OH253416   5.246   1.477  11.918 -0.2529  0.1212  0.1673
10642TIP3    H153417   5.178   1.505  11.980 -2.3202 -1.3559 -1.2670
10642TIP3    H253418   5.243   1.381  11.923  0.6754  0.0150 -1.0304
10643TIP3   OH253419   0.051   0.363   6.735 -0.2347  0.1147  0.2422
10643TIP3    H153420   0.072   0.423   6.663 -1.6809 -1.2737 -1.4173
10643TIP3    H253421  -0.024   0.403   6.778  0.5030  0.8450  0.8737
10644TIP3   OH253422   2.996   0.721   1.183  0.3660  0.2954  0.0547
10644TIP3    H153423   3.027   0.809   1.201 -0.7130  0.7513 -0.2310
10644TIP3    H253424   3.058   0.686   1.119 -0.2624  1.5773 -1.3331
10645TIP3   OH253425   5.181   2.715  10.546 -0.8426  0.1431  0.6870
10645TIP3    H153426   5.162   2.639  10.492 -2.3819  0.6757  0.4428
10645TIP3    H253427   5.131   2.786  10.507 -2.2186  0.5010  2.9032
10646TIP3   OH253428   0.277   4.532  13.986 -0.3721 -0.3039  0.6208
10646TIP3    H153429   0.282   4.516  13.892  0.0133 -1.8690  0.8683
10646TIP3    H253430   0.220   4.608  13.995 -1.3528 -0.8256 -0.8153
10647TIP3   OH253431   3.856   0.806  15.210  0.7782 -0.2167 -0.0039
10647TIP3    H153432   3.855   0.760  15.294  1.5114  0.8193  0.6025
10647TIP3    H253433   3.947   0.799  15.180  0.4278 -0.9593 -0.9483
10648TIP3   OH253434   2.105   2.773  16.940  0.2806  0.0251  0.0152
10648TIP3    H153435   2.022   2.729  16.922 -0.7143  1.8873 -0.1650
10648TIP3    H253436   2.099   2.857  16.895  2.1376  0.3467  0.2768
10649TIP3   OH253437   3.373   2.104  17.013 -0.3930  0.3688  0.4229
10649TIP3    H153438   3.350   2.017  16.979 -0.1150  0.1383  0.8069
10649TIP3    H253439   3.468   2.107  17.008 -0.3538  0.3665  1.0829
10650TIP3   OH253440   5.901   4.075  12.188 -0.0330 -0.2600  0.1461
10650TIP3    H153441   5.974   4.048  12.244 -0.3164  1.7399  1.5962
10650TIP3    H253442   5.922   4.165  12.163 -1.7667  0.2247  0.2654
10651TIP3   OH253443   0.843   1.389   3.318 -0.2305  0.9367 -0.4664
10651TIP3    H153444   0.887   1.338   3.250 -0.4938  0.2252 -0.1086
10651TIP3    H253445   0.773   1.332   3.350  0.1492  1.0946  0.6832
10652TIP3   OH253446   4.285   2.744   2.290 -0.1628 -0.0992  0.5281
10652TIP3    H153447   4.377   2.741   2.314  0.3156  1.7630 -0.8933
10652TIP3    H253448   4.239   2.721   2.371  1.5045  0.3129  1.6449
10653TIP3   OH253449   5.307   0.280   1.420  0.0541  0.7806  0.0766
10653TIP3    H153450   5.383   0.290   1.363  1.0385  0.6812  1.3450
10653TIP3    H253451   5.262   0.364   1.415  0.0282  0.7211 -0.9622
10654TIP3   OH253452   2.773   2.320  16.486  0.4044  0.1458  0.3643
10654TIP3    H153453   2.768   2.317  16.391 -2.2054  1.9928  0.3390
10654TIP3    H253454   2.683   2.335  16.515  1.1725  0.1086  3.1090
10655TIP3   OH253455   4.481   5.762  15.399  0.1166  0.2029 -0.6482
10655TIP3    H153456   4.562   5.813  15.401 -0.1803  0.6749 -0.7031
10655TIP3    H253457   4.492   5.703  15.324  0.9494 -0.6269  0.0980
10656TIP3   OH253458   1.304   4.675  13.195 -0.1344  0.4019  0.1639
10656TIP3    H153459   1.322   4.696  13.287  0.2524  1.6053 -0.1655
10656TIP3    H253460   1.301   4.580  13.193  1.4647  0.2734  1.1470
10657TIP3   OH253461   4.886   4.710  13.383 -0.2786 -0.3852 -0.0303
10657TIP3    H153462   4.816   4.765  13.419  0.6009  0.1681  0.8707
10657TIP3    H253463   4.852   4.681  13.298 -0.8832  1.3305 -0.4181
10658TIP3   OH253464   6.704   6.713   3.413 -0.6925  0.0393 -1.2178
10658TIP3    H153465   6.608   6.708   3.409 -0.8298  1.0570  0.0775
10658TIP3    H253466   6.732   6.622   3.408 -1.7568 -0.3144 -1.1581
10659TIP3   OH253467   5.843   5.366   5.615  0.4096 -0.1928  0.5247
10659TIP3    H153468   5.925   5.318   5.606  1.0382  1.1053 -1.5948
10659TIP3    H253469   5.835   5.414   5.532 -1.6971  0.9441  1.3164
10660TIP3   OH253470   3.054   6.045  15.111 -0.0198  0.4933 -0.0947
10660TIP3    H153471   3.054   6.083  15.199  0.2587  0.9084 -0.2728
10660TIP3    H253472   3.000   6.105  15.059  2.3843  2.0467 -0.9610
10661TIP3   OH253473   4.974   3.721   1.506 -0.2300 -0.7057 -0.0978
10661TIP3    H153474   4.992   3.637   1.465  1.4854 -0.6344  0.4215
10661TIP3    H253475   4.922   3.769   1.442 -1.2846 -2.1675 -0.3759
10662TIP3   OH253476   0.952   0.425  10.679  0.4605 -0.2559 -0.5669
10662TIP3    H153477   1.025   0.371  10.650  0.3915 -0.4602 -0.3641
10662TIP3    H253478   0.953   0.501  10.620  1.0270 -0.1035 -0.3625
10663TIP3   OH253479   1.559   4.872   4.058 -0.3050 -0.4324 -0.4862
10663TIP3    H153480   1.545   4.852   3.965 -1.9316  0.6172 -0.5103
10663TIP3    H253481   1.488   4.933   4.080 -1.8992 -2.9785  2.1935
10664TIP3   OH253482   0.362   4.665  16.826 -0.6107  0.1406 -0.3208
10664TIP3    H153483   0.350   4.755  16.797 -1.2290  0.3215  0.4858
10664TIP3    H253484   0.438   4.668  16.883 -1.0093  0.2682  0.2071
10665TIP3   OH253485   4.917   4.656   1.078 -0.0366 -0.3959  0.0072
10665TIP3    H153486   4.926   4.585   1.015 -0.7844 -0.3796 -0.1356
10665TIP3    H253487   4.981   4.722   1.050  1.6308 -1.5543  0.9482
10666TIP3   OH253488   3.729   2.240   6.045 -0.3059 -0.0804  0.0172
10666TIP3    H153489   3.810   2.235   6.094 -0.1481 -2.3748 -0.3671
10666TIP3    H253490   3.694   2.151   6.046 -1.6192  0.3386 -1.7988
10667TIP3   OH253491   3.762   5.618  11.765 -0.2305  0.6788  0.0175
10667TIP3    H153492   3.678   5.663  11.776  0.1808  1.3835  0.3833
10667TIP3    H253493   3.823   5.669  11.818  0.4049  0.0987 -0.1418
10668TIP3   OH253494   0.135   4.187  11.918  0.3801  0.1460  0.7032
10668TIP3    H153495   0.063   4.207  11.858  0.7195 -1.9382 -0.5225
10668TIP3    H253496   0.214   4.203  11.867  0.7746  1.1959  1.6180
10669TIP3   OH253497   0.287   0.926   2.931  0.2429 -0.3839  0.2668
10669TIP3    H153498   0.211   0.984   2.925 -0.6826 -1.4748  0.9971
10669TIP3    H253499   0.274   0.862   2.862  0.9404 -0.1061 -0.1333
10670TIP3   OH253500   4.083   2.213  17.046 -0.3590 -0.3051  0.0110
10670TIP3    H153501   3.994   2.224  17.079  0.1230 -0.5961  1.4686
10670TIP3    H253502   4.091   2.119  17.031  0.4665 -0.6591  2.2806
10671TIP3   OH253503   5.767   1.586   3.363  0.5287 -0.3247  0.5160
10671TIP3    H153504   5.719   1.658   3.405 -1.4751 -1.1473 -0.2026
10671TIP3    H253505   5.754   1.601   3.269 -0.4968 -1.9126  0.3548
10672TIP3   OH253506   1.904   4.544   1.730  0.2174  0.1952 -0.2620
10672TIP3    H153507   1.845   4.572   1.660 -1.4254  0.8506  1.3007
10672TIP3    H253508   1.940   4.461   1.699 -3.0532 -1.2852 -0.5084
10673TIP3   OH253509   1.868   1.087  13.796 -0.1829 -0.1089  0.0490
10673TIP3    H153510   1.857   1.021  13.728 -1.2895  0.1234 -0.0270
10673TIP3    H253511   1.840   1.043  13.877 -0.7363  0.1954  0.0292
10674TIP3   OH253512   4.257   2.338   4.378 -0.3890 -0.0539 -0.7403
10674TIP3    H153513   4.197   2.368   4.447  0.2450 -0.8072  0.1636
10674TIP3    H253514   4.219   2.373   4.297 -1.5106  0.3061 -0.0889
10675TIP3   OH253515   2.253   0.632  17.034 -0.6619 -0.7991 -0.0858
10675TIP3    H153516   2.235   0.726  17.034 -1.0241 -0.7938 -2.5317
10675TIP3    H253517   2.167   0.592  17.047 -0.4737 -0.8149  1.1945
10676TIP3   OH253518   1.810   5.890  15.304 -0.0900 -0.4922  0.8644
10676TIP3    H153519   1.755   5.943  15.246 -0.7990 -0.6060  1.4270
10676TIP3    H253520   1.749   5.839  15.356  0.5255 -3.8650 -1.3547
10677TIP3   OH253521   6.753   1.292  16.624 -0.0563 -0.4416  0.5706
10677TIP3    H153522   6.672   1.341  16.638  0.3588  0.1422  0.9678
10677TIP3    H253523   6.778   1.311  16.534  0.9651  1.4082  1.1995
10678TIP3   OH253524   0.469   4.844   0.877  0.3469  0.0896  0.4171
10678TIP3    H153525   0.513   4.903   0.816 -0.0715 -0.3525 -0.3412
10678TIP3    H253526   0.398   4.896   0.914 -1.1420 -0.3750 -1.5783
10679TIP3   OH253527   2.642   0.372   4.302 -0.1918  0.3285 -0.1372
10679TIP3    H153528   2.578   0.301   4.300  0.1399  0.0352 -1.0899
10679TIP3    H253529   2.726   0.329   4.290 -0.1394  1.0052 -2.9475
10680TIP3   OH253530   5.753   6.236   1.858 -0.2244 -0.4591  0.1674
10680TIP3    H153531   5.761   6.146   1.890  1.9111 -0.2480  0.3438
10680TIP3    H253532   5.748   6.227   1.763 -1.7472 -0.8279  0.2580
10681TIP3   OH253533   5.862   6.598   1.306  0.1183 -0.0408  0.6672
10681TIP3    H153534   5.851   6.678   1.254  3.4294 -0.4860 -1.0485
10681TIP3    H253535   5.855   6.627   1.397 -2.5626  1.4027  0.1113
10682TIP3   OH253536   6.012   3.579  13.243 -0.0121 -0.1347  0.3692
10682TIP3    H153537   6.035   3.515  13.310  2.5237  0.1427 -0.1364
10682TIP3    H253538   5.939   3.539  13.196 -1.0113 -0.8973  2.4476
10683TIP3   OH253539   0.487   0.407  16.424 -0.5262 -0.4541  0.3925
10683TIP3    H153540   0.502   0.501  16.428 -1.8773 -0.1513 -0.8169
10683TIP3    H253541   0.542   0.371  16.494  0.8302  1.1083  0.1896
10684TIP3   OH253542   4.338   4.884   5.835  0.1461 -0.1507 -0.3902
10684TIP3    H153543   4.369   4.972   5.856 -3.8455  1.1361  1.1278
10684TIP3    H253544   4.317   4.845   5.920 -2.2876 -0.7748 -1.1949
10685TIP3   OH253545   0.676   2.702   0.843 -0.2767 -0.5578  0.1937
10685TIP3    H153546   0.678   2.720   0.937 -2.4561  0.3107  0.1539
10685TIP3    H253547   0.724   2.775   0.803 -0.6430 -0.1012  0.5740
10686TIP3   OH253548   3.712   1.337  16.271  0.6538 -0.5031 -0.6015
10686TIP3    H153549   3.749   1.348  16.184  1.6336 -0.2201 -0.1663
10686TIP3    H253550   3.624   1.372  16.265  1.1203  0.6053 -1.1854
10687TIP3   OH253551   5.793   4.908  12.494 -0.1494 -0.5454  0.4123
10687TIP3    H153552   5.847   4.857  12.434 -1.7354 -1.6437 -0.1334
10687TIP3    H253553   5.823   4.882  12.582 -0.3273 -1.7525  0.1321
10688TIP3   OH253554   1.495   0.602   3.746 -0.1748 -0.3668 -0.7899
10688TIP3    H153555   1.568   0.663   3.753 -0.5639 -0.0102  0.6140
10688TIP3    H253556   1.533   0.517   3.765 -0.3496  0.0142  1.6045
10689TIP3   OH253557   5.887   3.805  14.753  0.0992 -0.1699 -0.2470
10689TIP3    H153558   5.936   3.729  14.782  1.3402  1.0241  0.9324
10689TIP3    H253559   5.847   3.840  14.832  1.2894  1.5766 -0.3529
10690TIP3   OH253560   6.522   4.269  11.319 -0.0588 -0.0937 -0.1626
10690TIP3    H153561   6.603   4.265  11.268 -0.8450  0.7541 -1.5503
10690TIP3    H253562   6.484   4.355  11.297 -0.3706  0.3794  1.9996
10691TIP3   OH253563   5.987   0.241   1.121 -0.3807  0.1303 -0.0829
10691TIP3    H153564   5.947   0.324   1.095 -1.1878 -0.6732 -1.5370
10691TIP3    H253565   6.047   0.220   1.049  0.8074  0.0744  0.8923
10692TIP3   OH253566   4.315   4.772  14.147  0.1291 -0.0201 -0.5913
10692TIP3    H153567   4.297   4.800  14.058 -1.2904 -2.2726 -1.0604
10692TIP3    H253568   4.315   4.677  14.144 -2.4797 -0.2704  2.2271
10693TIP3   OH253569   6.514   4.215  13.059  0.6984 -0.1114  0.4560
10693TIP3    H153570   6.488   4.240  13.147  1.4189 -1.4283  1.0643
10693TIP3    H253571   6.437   4.234  13.005  0.3790  1.0404  1.2920
10694TIP3   OH253572   1.774   3.666   4.601 -0.2911  0.7327 -0.2105
10694TIP3    H153573   1.830   3.618   4.661 -0.9156  0.4537  0.1482
10694TIP3    H253574   1.700   3.609   4.585 -0.8807  1.4331 -0.0373
10695TIP3   OH253575   3.145   2.895  10.755  0.2701  0.6002  0.6347
10695TIP3    H153576   3.222   2.856  10.796 -0.2927 -0.3563  0.8094
10695TIP3    H253577   3.110   2.953  10.823  0.7630  0.9564  0.5935
10696TIP3   OH253578   5.484   5.871   5.264  0.0051 -0.1241  0.5188
10696TIP3    H153579   5.468   5.815   5.340  0.5151  0.3422  0.9764
10696TIP3    H253580   5.528   5.948   5.300 -2.6837  1.6757  0.2809
10697TIP3   OH253581   1.423   3.644   3.637  0.0543 -0.1206  0.3789
10697TIP3    H153582   1.415   3.618   3.729 -1.7891  1.6038  0.7892
10697TIP3    H253583   1.517   3.641   3.619  0.2953 -2.5083  1.6496
10698TIP3   OH253584   5.252   0.383  14.260 -0.3670 -0.3628 -0.9730
10698TIP3    H153585   5.313   0.455  14.243  0.5531 -1.2956 -1.7535
10698TIP3    H253586   5.306   0.316  14.302 -1.3640 -0.3506  0.3816
10699TIP3   OH253587   5.344   2.830  16.111  0.0537 -0.3653  0.0758
10699TIP3    H153588   5.253   2.808  16.134  0.0956 -0.0122  0.5945
10699TIP3    H253589   5.393   2.814  16.192  0.4108 -0.3075 -0.1301
10700TIP3   OH253590   5.482   5.748  13.727  0.2729  0.1424  0.3245
10700TIP3    H153591   5.476   5.670  13.672 -0.6194  0.4828 -0.0735
10700TIP3    H253592   5.395   5.787  13.724  0.4806  0.7104  1.1861
10701TIP3   OH253593   0.384   2.448   3.716 -0.5513 -0.6021 -0.0013
10701TIP3    H153594   0.340   2.532   3.706 -1.2900 -0.9609  0.1533
10701TIP3    H253595   0.414   2.425   3.628 -1.9086 -1.0034 -0.3834
10702TIP3   OH253596   6.342   4.402   2.961 -0.1378 -0.7162  0.0012
10702TIP3    H153597   6.246   4.402   2.961 -0.1694 -0.9701 -1.7499
10702TIP3    H253598   6.366   4.426   2.871  1.4722  1.5999  0.9729
10703TIP3   OH253599   0.044   4.851   0.472  0.0700  0.3061  0.5227
10703TIP3    H153600  -0.002   4.867   0.390 -1.4565 -0.2279  1.2335
10703TIP3    H253601   0.111   4.786   0.449 -1.7315 -1.5005  0.0727
10704TIP3   OH253602   6.555   1.838   3.890 -0.0298 -0.2242  0.2440
10704TIP3    H153603   6.608   1.840   3.970  1.6774 -1.2111 -0.7896
10704TIP3    H253604   6.592   1.766   3.838 -0.8815  0.5614 -1.5650
10705TIP3   OH253605   2.417   5.463  12.453 -0.0316 -0.0625  0.0608
10705TIP3    H153606   2.403   5.552  12.485  0.3404 -0.1066  0.3596
10705TIP3    H253607   2.357   5.454  12.379 -0.3660  0.2955  0.2845
10706TIP3   OH253608   5.139   2.012   0.539  0.4255  0.8105  0.5403
10706TIP3    H153609   5.093   1.928   0.534  2.7363 -0.4531 -2.6947
10706TIP3    H253610   5.154   2.025   0.633 -1.0013 -1.7951  1.2358
10707TIP3   OH253611   2.274   6.695  14.593  0.0032 -0.3257  0.2585
10707TIP3    H153612   2.221   6.638  14.537 -0.0146  0.0661 -0.1224
10707TIP3    H253613   2.244   6.783  14.573 -0.2779 -0.2031  1.1780
10708TIP3   OH253614   4.299   6.548   2.972  0.2960 -0.0404 -0.4534
10708TIP3    H153615   4.323   6.459   2.997 -2.1982 -1.2750 -2.0925
10708TIP3    H253616   4.376   6.582   2.926  2.3218 -0.2335  2.5461
10709TIP3   OH253617   3.551   0.528   3.617  0.1598 -0.3910 -0.6921
10709TIP3    H153618   3.630   0.551   3.665 -0.8231  0.8393  0.4134
10709TIP3    H253619   3.572   0.546   3.525  0.5477  1.9370 -0.2115
10710TIP3   OH253620   5.498   4.397   3.636 -0.1113  0.2759  0.2857
10710TIP3    H153621   5.543   4.313   3.627  0.0214  0.1693  1.7024
10710TIP3    H253622   5.436   4.400   3.563 -1.2319 -1.7702  1.0842
10711TIP3   OH253623   6.769   1.592   5.213  0.4559 -1.1677 -0.3951
10711TIP3    H153624   6.718   1.527   5.164 -0.1612 -0.0933 -1.2201
10711TIP3    H253625   6.800   1.544   5.290  1.0229 -2.7653 -1.5553
10712TIP3   OH253626   1.416   5.988  13.780  1.1819 -0.6082  0.4755
10712TIP3    H153627   1.423   5.955  13.690 -0.7670  1.0642 -0.3784
10712TIP3    H253628   1.506   5.994  13.810  1.8998 -1.0719 -1.4218
10713TIP3   OH253629   3.283   0.256  14.129  0.1413 -0.2025  0.1795
10713TIP3    H153630   3.218   0.261  14.059  0.8487 -1.4004 -0.6014
10713TIP3    H253631   3.366   0.275  14.086  0.7397 -2.1012  0.4367
10714TIP3   OH253632   6.529   3.792  11.353 -0.2785  0.2022  0.0311
10714TIP3    H153633   6.434   3.786  11.350 -0.2797 -1.4017  1.6600
10714TIP3    H253634   6.548   3.828  11.439  0.6050  1.0580 -0.4951
10715TIP3   OH253635   1.731   0.729   4.925  0.1358  0.2826 -0.1902
10715TIP3    H153636   1.736   0.634   4.923 -0.5746  0.2501 -1.5537
10715TIP3    H253637   1.663   0.748   4.991 -0.0305 -0.1729 -0.2306
10716TIP3   OH253638   2.405   2.505  16.114  0.0764 -0.9241  0.3113
10716TIP3    H153639   2.414   2.599  16.125  2.4376 -1.0278 -0.1869
10716TIP3    H253640   2.376   2.494  16.024  0.5320 -0.6893  0.1342
10717TIP3   OH253641   0.424   2.846  16.965  0.1772  0.5370 -0.0410
10717TIP3    H153642   0.382   2.790  17.029  0.2817 -1.7245 -1.8243
10717TIP3    H253643   0.352   2.881  16.913  0.2596 -0.3493 -0.7700
10718TIP3   OH253644   3.443   3.303  13.985 -0.1846  0.8217  0.9110
10718TIP3    H153645   3.354   3.333  13.966 -1.4744 -3.3430 -0.8231
10718TIP3    H253646   3.491   3.315  13.902 -0.3059 -0.3620  0.6475
10719TIP3   OH253647   4.609   0.061   2.356 -0.4433  0.0765 -0.1968
10719TIP3    H153648   4.543   0.110   2.405 -0.1800 -0.8589  1.1662
10719TIP3    H253649   4.583  -0.031   2.367  0.2386 -0.2085 -0.9102
10720TIP3   OH253650   1.579   1.969  12.744  0.4352 -0.0455 -0.1276
10720TIP3    H153651   1.495   1.925  12.755  0.3637 -0.1652 -1.0821
10720TIP3    H253652   1.570   2.050  12.793 -0.1226 -0.2063  0.0433
10721TIP3   OH253653   1.276   1.741  12.182  0.1070 -0.0043 -0.4938
10721TIP3    H153654   1.224   1.666  12.211 -2.7603  1.2247 -2.0734
10721TIP3    H253655   1.362   1.704  12.163 -1.0092 -2.7860 -0.6491
10722TIP3   OH253656   3.836   4.886  15.672  0.2033  0.4206  0.1107
10722TIP3    H153657   3.789   4.829  15.611 -0.1968  1.3801 -0.5025
10722TIP3    H253658   3.774   4.901  15.743 -1.1239  2.9498 -1.4337
10723TIP3   OH253659   3.609   1.982   2.966  0.2610 -0.2295 -0.1675
10723TIP3    H153660   3.603   2.076   2.951  0.9327 -0.1115  0.2433
10723TIP3    H253661   3.530   1.960   3.014 -0.3520 -0.0485 -1.0814
10724TIP3   OH253662   1.741   4.925  12.421  0.1437  0.6028 -0.3439
10724TIP3    H153663   1.675   4.982  12.459  0.2286  0.8642 -0.5823
10724TIP3    H253664   1.724   4.839  12.459  2.2842  1.4618  2.9331
10725TIP3   OH253665   6.692   1.497   1.060 -0.0508  0.2766 -0.1149
10725TIP3    H153666   6.698   1.401   1.053  0.9405  0.4339 -2.7597
10725TIP3    H253667   6.599   1.514   1.073 -0.6467 -1.0224 -2.1240
10726TIP3   OH253668   1.924   4.195   4.919  0.1323 -0.2373  0.7296
10726TIP3    H153669   1.834   4.191   4.951  0.2864  0.9870  1.3535
10726TIP3    H253670   1.916   4.211   4.825 -0.3312  2.0243  1.0983
10727TIP3   OH253671   6.073   4.062  10.861  0.1120  0.2647 -0.4466
10727TIP3    H153672   6.110   3.973  10.857 -0.6101 -0.0382 -0.6141
10727TIP3    H253673   6.098   4.102  10.778  0.4884  0.2368 -0.3475
10728TIP3   OH253674   2.363   5.242   3.400 -0.2652  0.1028 -0.0363
10728TIP3    H153675   2.414   5.209   3.326 -1.0887 -1.1425 -0.0800
10728TIP3    H253676   2.413   5.216   3.477 -0.3783 -0.3330 -0.1064
10729TIP3   OH253677   1.749   4.298   4.596 -0.0010 -0.2910  0.0694
10729TIP3    H153678   1.658   4.270   4.608 -0.3347  0.3917 -0.7820
10729TIP3    H253679   1.800   4.217   4.594 -0.7038 -0.7258 -0.3775
10730TIP3   OH253680   4.833   3.810  14.357  0.0172 -0.9458  0.2118
10730TIP3    H153681   4.803   3.890  14.313 -1.1380 -0.4376  1.8409
10730TIP3    H253682   4.864   3.840  14.442  0.9042 -2.0832  0.3157
10731TIP3   OH253683   0.167   5.527  11.197  0.0297  0.4575 -0.0264
10731TIP3    H153684   0.182   5.445  11.150  0.7055  0.3816  0.3155
10731TIP3    H253685   0.152   5.592  11.128 -0.3252  0.0897 -0.3021
10732TIP3   OH253686   3.663   6.751   5.222 -0.1260 -0.0554  0.0754
10732TIP3    H153687   3.620   6.668   5.242  1.7839 -1.0673  0.2699
10732TIP3    H253688   3.753   6.740   5.254  0.3122  1.9303 -0.2965
10733TIP3   OH253689   1.052   0.893  14.371  0.1366  0.4384 -0.0574
10733TIP3    H153690   1.032   0.850  14.288  0.3077 -0.3444  0.2962
10733TIP3    H253691   1.012   0.837  14.438  1.2028  0.2838  0.4773
10734TIP3   OH253692   6.475   3.566   4.471  0.1865  0.0244  0.0033
10734TIP3    H153693   6.557   3.582   4.517  1.2323  0.3954 -1.8876
10734TIP3    H253694   6.474   3.630   4.400 -0.2152 -1.9513 -1.8696
10735TIP3   OH253695   3.194   2.302  16.085  0.6473  0.4115  0.4042
10735TIP3    H153696   3.238   2.233  16.134  0.2896 -0.3978 -0.3867
10735TIP3    H253697   3.146   2.256  16.016  1.4755  1.5172 -0.9897
10736TIP3   OH253698   4.220   5.257   2.829 -0.1743  0.3580 -0.1030
10736TIP3    H153699   4.193   5.329   2.771 -0.1223  0.3671 -0.1158
10736TIP3    H253700   4.188   5.283   2.915 -2.8014 -0.9577 -0.5655
10737TIP3   OH253701   5.014   3.469  12.134  0.0196  0.2503  0.0476
10737TIP3    H153702   4.978   3.387  12.168 -0.7785  0.7396  0.4144
10737TIP3    H253703   5.079   3.442  12.069 -0.9488 -0.6719 -0.5748
10738TIP3   OH253704   0.675   4.916   3.052 -0.2482 -0.2574  0.2417
10738TIP3    H153705   0.767   4.912   3.027 -0.4913  0.2296 -0.7508
10738TIP3    H253706   0.677   4.931   3.147  0.6858 -1.7298  0.4967
10739TIP3   OH253707   6.038   0.804  13.452 -0.5710 -0.0750  0.5035
10739TIP3    H153708   5.966   0.823  13.391 -1.4960 -1.3968  1.1369
10739TIP3    H253709   6.005   0.832  13.537  0.3826  0.9534  0.5543
10740TIP3   OH253710   4.852   4.266  15.282 -0.6325  0.1601 -0.1119
10740TIP3    H153711   4.831   4.175  15.263  1.0994 -0.5149  0.9093
10740TIP3    H253712   4.768   4.311  15.281 -1.6650 -1.6446  0.3724
10741TIP3   OH253713   3.603   1.509   0.774  0.4315  0.1871  0.1232
10741TIP3    H153714   3.696   1.490   0.778  0.0355 -2.1924 -0.2767
10741TIP3    H253715   3.568   1.477   0.857 -0.2169 -0.1789 -0.2826
10742TIP3   OH253716   5.831   2.500   2.584 -0.2187  0.4331 -0.2086
10742TIP3    H153717   5.777   2.421   2.580  1.0139 -0.3905 -1.3564
10742TIP3    H253718   5.920   2.468   2.600  0.3276  1.5659 -0.8181
10743TIP3   OH253719   3.590   1.355  13.182 -0.1245  0.5174 -0.7210
10743TIP3    H153720   3.560   1.446  13.186  0.0996  0.5564  0.4952
10743TIP3    H253721   3.650   1.346  13.256 -1.2812 -1.0023  0.0932
10744TIP3   OH253722   6.500   6.730   5.553  0.1056 -0.1883 -0.7866
10744TIP3    H153723   6.491   6.764   5.464  0.1487  1.0073 -0.3470
10744TIP3    H253724   6.410   6.714   5.582  0.0853 -0.4477 -0.9856
10745TIP3   OH253725   1.948   1.837   1.825 -0.2792 -0.1133  0.5920
10745TIP3    H153726   1.978   1.753   1.858 -1.4355 -0.3058  1.1801
10745TIP3    H253727   1.961   1.832   1.731 -0.3223 -0.9379  0.6255
10746TIP3   OH253728   3.337   3.946  11.771 -0.7983 -0.1783 -0.1257
10746TIP3    H153729   3.276   3.963  11.843 -0.3428 -0.8642  0.4266
10746TIP3    H253730   3.337   3.851  11.760  1.5452 -0.4048  1.1408
10747TIP3   OH253731   1.627   4.276  11.442 -0.5172  0.3288 -0.1537
10747TIP3    H153732   1.653   4.230  11.362 -0.4205 -1.5637  0.8942
10747TIP3    H253733   1.618   4.207  11.507  1.3521  1.9540  2.0158
10748TIP3   OH253734   0.537   5.957   0.250  0.6291  0.6905  0.0954
10748TIP3    H153735   0.614   5.912   0.285 -0.4000 -1.6440 -0.4219
10748TIP3    H253736   0.527   6.035   0.305  1.6742 -0.4741  2.0623
10749TIP3   OH253737   2.622   5.647  14.783 -0.2111 -0.2380  0.3498
10749TIP3    H153738   2.636   5.722  14.725  0.4115  0.7255  1.6925
10749TIP3    H253739   2.527   5.644  14.794 -0.3858 -0.7528 -1.0883
10750TIP3   OH253740   0.829   4.083  15.321  0.4802 -0.3359 -0.0150
10750TIP3    H153741   0.802   4.152  15.381 -1.5613 -1.2363  0.1907
10750TIP3    H253742   0.814   4.002  15.370  3.3169 -0.9660 -0.0554
10751TIP3   OH253743   4.309   2.079   4.460  0.5220 -1.0404 -0.2580
10751TIP3    H153744   4.289   2.075   4.553  0.6304 -0.7836 -0.2222
10751TIP3    H253745   4.287   2.169   4.435  0.5900 -1.0785 -0.4581
10752TIP3   OH253746   3.888   6.510   5.428 -0.2272  0.0572  0.0696
10752TIP3    H153747   3.935   6.429   5.409 -2.5199 -1.0755 -1.1869
10752TIP3    H253748   3.942   6.579   5.391  0.3863 -1.1861 -1.4491
10753TIP3   OH253749   3.658   3.394   5.281  0.7388  0.2850 -0.7936
10753TIP3    H153750   3.668   3.336   5.357  0.6916  2.0012  0.5884
10753TIP3    H253751   3.604   3.466   5.313  0.7123  1.0588 -2.4864
10754TIP3   OH253752   2.407   2.044  14.280 -0.6641 -0.4523 -0.3033
10754TIP3    H153753   2.414   1.955  14.314 -0.8585 -0.6574 -0.7969
10754TIP3    H253754   2.323   2.076  14.315 -0.3337 -0.2661  0.3249
10755TIP3   OH253755   6.249   0.558   3.843 -0.5667  0.0185 -0.3565
10755TIP3    H153756   6.338   0.559   3.878 -0.4087 -1.0779 -0.6976
10755TIP3    H253757   6.256   0.510   3.760 -1.4534 -0.0184 -0.4188
10756TIP3   OH253758   0.069   1.393   5.653 -0.7836  0.0800 -0.4026
10756TIP3    H153759   0.131   1.347   5.597 -0.6139  1.0442 -1.0393
10756TIP3    H253760   0.123   1.432   5.722 -0.9532 -0.8436  0.2587
10757TIP3   OH253761   6.103   6.568  13.306  0.1930 -0.1038 -0.1736
10757TIP3    H153762   6.147   6.486  13.331  0.9301 -0.6078 -2.7850
10757TIP3    H253763   6.071   6.551  13.217 -1.4684  1.7855  0.0123
10758TIP3   OH253764   1.720   6.376   0.481 -0.4641 -0.3152  0.0273
10758TIP3    H153765   1.676   6.449   0.437  0.0828 -0.2203 -0.3858
10758TIP3    H253766   1.666   6.300   0.461 -1.5743  0.1077  1.2675
10759TIP3   OH253767   4.043   2.726  13.971 -0.0317 -0.0993 -0.2454
10759TIP3    H153768   4.127   2.730  14.017  1.1138  0.3748 -2.2563
10759TIP3    H253769   3.996   2.655  14.013  1.0382  0.1408  1.4556
10760TIP3   OH253770   5.624   4.460   5.043 -0.0716  0.4257  0.2804
10760TIP3    H153771   5.642   4.368   5.060  0.2683  0.5828  0.7873
10760TIP3    H253772   5.657   4.475   4.955 -0.2801  0.0265  0.1316
10761TIP3   OH253773   5.412   6.696  13.816 -0.1817 -0.1410 -0.9791
10761TIP3    H153774   5.472   6.636  13.862 -0.6872 -0.5679 -0.8699
10761TIP3    H253775   5.325   6.666  13.840 -0.4495  1.0199 -0.4397
10762TIP3   OH253776   0.599   4.970   5.649  0.2156  0.1285  0.4303
10762TIP3    H153777   0.553   4.972   5.734 -1.1648 -0.4314 -0.2750
10762TIP3    H253778   0.602   4.878   5.625  0.9182  0.2505  0.0283
10763TIP3   OH253779   1.415   4.614   4.632 -0.2041 -0.0092 -0.0445
10763TIP3    H153780   1.438   4.586   4.543  0.7907  0.6693 -0.0127
10763TIP3    H253781   1.479   4.682   4.654  0.0790 -0.7059  1.4836
10764TIP3   OH253782   5.046   2.082  14.710 -0.1513 -0.0998  0.1898
10764TIP3    H153783   4.985   2.154  14.727 -1.8193 -1.6955  1.2295
10764TIP3    H253784   5.098   2.076  14.790  1.9329  1.6615 -0.9199
10765TIP3   OH253785   5.262   3.377  15.506  0.3183  0.0972  0.2499
10765TIP3    H153786   5.216   3.300  15.539 -0.3023  0.5184  0.3696
10765TIP3    H253787   5.252   3.372  15.411  2.7117 -1.5052 -0.0096
10766TIP3   OH253788   3.723   0.513   1.740  1.1035  0.6138  0.1017
10766TIP3    H153789   3.719   0.604   1.770  0.6691  1.5515 -2.5595
10766TIP3    H253790   3.648   0.504   1.682  0.8143 -1.6547  0.7685
10767TIP3   OH253791   5.290   4.431   0.001 -0.2805 -0.6996  0.0859
10767TIP3    H153792   5.349   4.461   0.070  0.7017 -0.9745 -0.6122
10767TIP3    H253793   5.244   4.357   0.040  1.7522 -2.2039 -0.1623
10768TIP3   OH253794   3.060   1.912  12.477  0.3272  0.3322  0.4781
10768TIP3    H153795   2.980   1.893  12.527 -1.1421  0.2635 -1.7333
10768TIP3    H253796   3.078   2.004  12.497 -0.5717  0.4798  0.6813
10769TIP3   OH253797   1.505   5.392  11.868  0.0797 -0.2774  0.0095
10769TIP3    H153798   1.471   5.302  11.869 -1.4467  0.2739  1.7034
10769TIP3    H253799   1.559   5.396  11.789  0.4364 -2.7665  0.0449
10770TIP3   OH253800   5.759   5.651   5.617  0.3830  0.4835 -0.1114
10770TIP3    H153801   5.815   5.723   5.588  1.3061 -0.2691 -0.2598
10770TIP3    H253802   5.820   5.588   5.657 -0.1631 -0.9790 -1.4807
10771TIP3   OH253803   1.983   6.406   2.867 -0.7850  0.5640 -0.1650
10771TIP3    H153804   1.908   6.431   2.812 -0.8475 -0.8724 -0.7841
10771TIP3    H253805   2.046   6.368   2.806 -0.6500 -0.6289  0.6857
10772TIP3   OH253806   2.048   3.038   4.586 -0.1429 -0.5376  0.4776
10772TIP3    H153807   1.961   2.998   4.585 -0.6657  0.5318  0.9696
10772TIP3    H253808   2.037   3.121   4.540  0.1496  0.4594  2.1087
10773TIP3   OH253809   2.850   4.515   6.089  0.2497 -0.4397  0.0861
10773TIP3    H153810   2.828   4.608   6.094  2.7188  0.2681 -0.7360
10773TIP3    H253811   2.872   4.490   6.178 -0.1672 -0.1827  0.2653
10774TIP3   OH253812   2.251   2.563   1.084 -0.1559  0.4767  0.4610
10774TIP3    H153813   2.263   2.589   0.992 -0.1417 -0.0162  0.3245
10774TIP3    H253814   2.169   2.515   1.085  0.7994 -1.2416  0.3414
10775TIP3   OH253815   1.951   3.675  11.430  0.5581  0.0133 -0.2839
10775TIP3    H153816   1.977   3.672  11.338  1.5696 -0.6670  0.0115
10775TIP3    H253817   1.991   3.598  11.469 -1.5576 -0.8403  0.3222
10776TIP3   OH253818   0.192   4.193   4.370 -0.7971 -0.8528 -0.7008
10776TIP3    H153819   0.146   4.274   4.390  2.4977  0.9105  0.5740
10776TIP3    H253820   0.212   4.155   4.456 -0.2213 -1.7378 -1.2048
10777TIP3   OH253821   5.048   4.316   4.469  0.8462 -0.2601  0.1962
10777TIP3    H153822   5.050   4.226   4.438  1.0772  0.0205 -0.6182
10777TIP3    H253823   5.029   4.309   4.563  1.0051 -1.1579  0.1652
10778TIP3   OH253824   0.956   3.322   2.947  0.2472 -0.3140 -0.1614
10778TIP3    H153825   0.981   3.395   2.890 -0.6058 -0.3329 -0.5657
10778TIP3    H253826   1.002   3.247   2.910  0.9025 -0.0443  0.0865
10779TIP3   OH253827   0.251   3.962  11.483 -0.5496  0.4024 -0.6095
10779TIP3    H153828   0.221   3.903  11.552 -0.5563  0.9840 -0.1014
10779TIP3    H253829   0.171   3.996  11.444 -0.5728 -1.0113 -1.8920
10780TIP3   OH253830   6.655   5.719  15.169  0.2281  0.3866  0.0765
10780TIP3    H153831   6.575   5.666  15.168  1.2797 -1.3239  1.0184
10780TIP3    H253832   6.704   5.686  15.243  3.0358 -0.5159 -2.0147
10781TIP3   OH253833   4.380   1.668  16.315  0.0166  0.3516 -0.0854
10781TIP3    H153834   4.339   1.591  16.355 -1.1184  0.2464 -1.3657
10781TIP3    H253835   4.468   1.670  16.352 -0.5207 -0.5074  1.3444
10782TIP3   OH253836   1.217   4.894   5.222 -0.0026 -0.2443  0.6051
10782TIP3    H153837   1.170   4.961   5.174 -1.1165 -0.7462  0.9544
10782TIP3    H253838   1.192   4.908   5.313 -1.2624 -1.8596  0.5604
10783TIP3   OH253839   1.698   1.642   4.925  0.1362 -0.1836 -0.1145
10783TIP3    H153840   1.762   1.681   4.865 -0.4390 -2.9140 -2.7659
10783TIP3    H253841   1.748   1.575   4.972  0.3742  1.3594  1.9749
10784TIP3   OH253842   2.355   4.344  11.808 -0.5313  0.0565 -0.0832
10784TIP3    H153843   2.281   4.314  11.861 -0.5689 -0.3391 -0.3542
10784TIP3    H253844   2.378   4.429  11.845 -0.7969 -0.0472  0.3281
10785TIP3   OH253845   3.351   1.383  16.689  0.1699 -0.5547 -0.5710
10785TIP3    H153846   3.430   1.401  16.638 -0.4505 -1.5657 -1.9432
10785TIP3    H253847   3.340   1.288  16.682  0.3080 -0.8203  1.8492
10786TIP3   OH253848   1.039   3.197  13.120  0.6366 -0.4654  0.0802
10786TIP3    H153849   0.999   3.283  13.103  0.4411 -1.0779 -3.2293
10786TIP3    H253850   1.117   3.196  13.064  1.7517 -1.7642  1.5562
10787TIP3   OH253851   3.117   6.046  12.356  0.2515  0.8997  0.1286
10787TIP3    H153852   3.075   6.052  12.270  1.3861  1.8997 -0.3917
10787TIP3    H253853   3.067   6.106  12.411  1.4317  2.7502 -0.7113
10788TIP3   OH253854   2.844   4.162   4.634  0.1696 -0.1557 -0.1660
10788TIP3    H153855   2.930   4.150   4.593 -0.1987  2.2073 -1.8353
10788TIP3    H253856   2.855   4.237   4.692 -0.5001 -0.5972  0.5552
10789TIP3   OH253857   4.885   0.098  12.992 -0.0778 -0.3201 -0.1310
10789TIP3    H153858   4.970   0.083  13.033  0.1591 -1.6486 -1.0475
10789TIP3    H253859   4.897   0.176  12.938  0.0888  0.4261  0.9464
10790TIP3   OH253860   6.750   2.201   2.562  0.1108 -0.6542  0.2459
10790TIP3    H153861   6.766   2.156   2.479 -1.0462  2.5883 -1.9063
10790TIP3    H253862   6.828   2.255   2.576 -1.1855  1.6352 -0.8311
10791TIP3   OH253863   1.740   1.918   2.716  0.1994  0.3014  0.1091
10791TIP3    H153864   1.740   2.013   2.727  0.9061  0.2239  0.8947
10791TIP3    H253865   1.684   1.887   2.787  0.2865  0.1073  0.0922
10792TIP3   OH253866   5.851   0.315  16.377  0.5102 -0.1309  0.2427
10792TIP3    H153867   5.886   0.253  16.441  1.4538 -0.4655 -0.5772
10792TIP3    H253868   5.779   0.359  16.423  0.9866 -0.5590  1.4306
10793TIP3   OH253869   4.853   2.974   4.515  0.5449 -0.1631 -0.2184
10793TIP3    H153870   4.884   3.011   4.432 -0.3846 -0.6783 -0.8050
10793TIP3    H253871   4.862   3.046   4.577  2.1287 -0.0426 -0.5326
10794TIP3   OH253872   2.880   0.054  12.776 -0.1598 -0.0906  0.7224
10794TIP3    H153873   2.926  -0.028  12.791 -0.4320 -0.5658 -0.8274
10794TIP3    H253874   2.943   0.122  12.801  1.3327 -0.7286 -1.0740
10795TIP3   OH253875   6.757   0.003   5.925 -0.3506 -0.1907  0.4695
10795TIP3    H153876   6.817   0.077   5.926 -0.8760  0.2901 -0.7321
10795TIP3    H253877   6.793  -0.056   5.859 -0.5985 -0.4193  0.5375
10796TIP3   OH253878   1.048   0.732   4.463 -0.1826  0.2776 -0.5653
10796TIP3    H153879   1.004   0.759   4.543  0.9326 -0.5291  0.3549
10796TIP3    H253880   1.134   0.773   4.468  0.4221 -0.9308 -0.6256
10797TIP3   OH253881   1.974   0.918   3.012  0.3801  0.3406  0.5040
10797TIP3    H153882   2.016   0.930   2.928 -0.8259  0.4689 -0.0997
10797TIP3    H253883   1.916   0.842   3.000 -2.2753  2.2867  0.1744
10798TIP3   OH253884   0.493   6.459   2.040 -0.0615 -0.4172  0.0628
10798TIP3    H153885   0.587   6.474   2.025 -0.1736  2.5415  1.5803
10798TIP3    H253886   0.451   6.489   1.960  0.1992 -0.3742 -0.0594
10799TIP3   OH253887   0.587   6.389  17.004 -0.1016  0.7304  0.4607
10799TIP3    H153888   0.564   6.296  17.001 -2.0349  1.1447  0.5548
10799TIP3    H253889   0.564   6.416  17.093 -1.8686  1.7759 -0.2539
10800TIP3   OH253890   2.933   6.146   4.585 -0.1142  0.3812 -0.3813
10800TIP3    H153891   2.904   6.055   4.592  0.2000  0.3712  1.0993
10800TIP3    H253892   2.989   6.159   4.662 -0.5728  1.9686 -0.2814
10801TIP3   OH253893   5.602   0.414   2.351 -0.2697 -0.1574 -0.0301
10801TIP3    H153894   5.681   0.384   2.394 -0.3874 -1.7010 -0.8204
10801TIP3    H253895   5.587   0.502   2.386  1.5459  0.0022  0.4301
10802TIP3   OH253896   1.313   2.506  15.041 -0.2635 -0.4556 -0.2950
10802TIP3    H153897   1.357   2.514  14.956  0.3713  0.9004  0.1411
10802TIP3    H253898   1.319   2.593  15.080  0.3370 -1.2798  1.5790
10803TIP3   OH253899   3.150   3.785   6.303  0.0478  0.3145 -0.2453
10803TIP3    H153900   3.174   3.709   6.357 -1.0252  1.6891  2.3477
10803TIP3    H253901   3.118   3.747   6.221  1.5565 -1.9099  0.1144
10804TIP3   OH253902   1.937   0.390  14.056 -0.1868 -0.0246 -0.1508
10804TIP3    H153903   1.975   0.478  14.060 -0.6010  0.1709 -0.4010
10804TIP3    H253904   1.961   0.358  13.969 -2.3914  0.9569 -1.2061
10805TIP3   OH253905   2.035   3.624   1.787 -0.6145  0.4183 -0.4386
10805TIP3    H153906   2.123   3.612   1.822 -0.6951  0.8357 -0.0868
10805TIP3    H253907   1.981   3.640   1.865 -0.7321  1.7521 -0.7780
10806TIP3   OH253908   1.310   0.680   5.136  0.3165 -0.2051 -0.5982
10806TIP3    H153909   1.405   0.670   5.142  0.3240 -0.1702 -0.6636
10806TIP3    H253910   1.275   0.607   5.187  0.4070  1.1507  1.5268
10807TIP3   OH253911   4.495   1.830  12.191 -0.6117 -0.4260 -0.1390
10807TIP3    H153912   4.511   1.923  12.211  0.8405 -0.9143  1.1515
10807TIP3    H253913   4.552   1.811  12.117  0.4456 -0.7130  0.7332
10808TIP3   OH253914   4.757   0.576   2.143  0.3864  0.4172  0.1323
10808TIP3    H153915   4.837   0.580   2.091  0.5459  0.3925  0.3729
10808TIP3    H253916   4.784   0.534   2.225 -0.3164 -1.5187 -0.5943
10809TIP3   OH253917   2.114   6.527  13.600 -0.1716 -0.1962 -0.1571
10809TIP3    H153918   2.112   6.432  13.611  0.8123 -0.1006  0.9962
10809TIP3    H253919   2.093   6.562  13.687 -3.3518  0.7015 -1.1421
10810TIP3   OH253920   4.079   5.764  15.477 -0.2092  0.8456  0.1061
10810TIP3    H153921   4.166   5.804  15.486  0.7485 -1.1922  0.5178
10810TIP3    H253922   4.020   5.826  15.519  1.1561  1.9341  0.5026
10811TIP3   OH253923   6.203   1.490  16.063  0.1844 -0.0191 -0.0575
10811TIP3    H153924   6.163   1.463  16.145 -0.9274  0.6847 -0.3416
10811TIP3    H253925   6.158   1.572  16.041  1.3819  0.4779 -0.7041
10812TIP3   OH253926   4.589   2.709  12.154  0.1796 -0.1844  0.1798
10812TIP3    H153927   4.634   2.624  12.159 -1.1479 -0.9977 -1.0950
10812TIP3    H253928   4.575   2.733  12.245  3.4197  0.2808  0.6850
10813TIP3   OH253929   2.278   4.747   0.237 -0.2019  0.2810 -0.3441
10813TIP3    H153930   2.247   4.812   0.173 -1.7427  1.1654  1.2158
10813TIP3    H253931   2.218   4.674   0.228 -0.0363  0.1408 -0.3137
10814TIP3   OH253932   5.909   1.576  14.237  0.4590 -0.1908 -0.0965
10814TIP3    H153933   5.899   1.488  14.273 -0.7604 -0.1751 -0.3767
10814TIP3    H253934   5.821   1.613  14.238  1.2760  1.9433  2.2815
10815TIP3   OH253935   0.191   0.182  14.591 -0.1763  0.1283 -0.2720
10815TIP3    H153936   0.217   0.181  14.683 -0.8067 -0.1304 -0.0875
10815TIP3    H253937   0.134   0.258  14.583 -0.7161 -0.2728 -0.2723
10816TIP3   OH253938   4.836   3.137  15.158 -0.9943  0.5609 -0.0916
10816TIP3    H153939   4.858   3.179  15.242 -0.2177  0.1233 -0.0714
10816TIP3    H253940   4.865   3.047  15.168 -1.9595  0.2055 -0.4186
10817TIP3   OH253941   3.769   0.896  13.036 -0.1563  0.4808 -0.2118
10817TIP3    H153942   3.799   0.945  12.960 -0.1918  0.3057 -0.3393
10817TIP3    H253943   3.753   0.963  13.103  0.6864  0.5679 -0.0799
10818TIP3   OH253944   3.738   5.956  11.207  0.6236 -0.1695 -0.0855
10818TIP3    H153945   3.719   5.956  11.113 -0.0146 -2.5158  0.0041
10818TIP3    H253946   3.777   5.871  11.224  3.4775  1.2720  1.3180
10819TIP3   OH253947   6.088   0.379  13.638 -0.3206  0.0790  0.0788
10819TIP3    H153948   6.021   0.413  13.579  0.1407  1.0915  0.1114
10819TIP3    H253949   6.090   0.285  13.620 -0.6755  0.2620 -1.0350
10820TIP3   OH253950   5.054   0.775  15.861 -0.1449  0.0907  0.1981
10820TIP3    H153951   5.110   0.737  15.928 -0.2573 -0.4708 -0.0232
10820TIP3    H253952   4.981   0.713  15.853  0.3203 -0.3100 -1.0779
10821TIP3   OH253953   4.320   5.979  11.664 -0.7851 -0.0317  0.3555
10821TIP3    H153954   4.293   5.970  11.755 -1.1921  2.7927  0.6185
10821TIP3    H253955   4.410   6.010  11.668  0.7459 -3.8267 -0.4156
10822TIP3   OH253956   3.906   4.269  14.300  0.0283 -0.0769 -0.1395
10822TIP3    H153957   3.871   4.358  14.309  0.1216 -0.0576  0.0324
10822TIP3    H253958   4.001   4.281  14.298  0.0072 -0.0487 -1.5261
10823TIP3   OH253959   0.818   2.850   0.126 -0.2254  0.1369  0.2069
10823TIP3    H153960   0.839   2.767   0.083 -1.7622 -1.3806  2.1916
10823TIP3    H253961   0.730   2.871   0.096 -0.2647  0.4981  0.5644
10824TIP3   OH253962   0.517   4.099  15.252  0.0550  0.2884 -0.3104
10824TIP3    H153963   0.588   4.068  15.309  0.8729 -0.0373 -1.4784
10824TIP3    H253964   0.443   4.042  15.274  0.1694  0.5524  0.8353
10825TIP3   OH253965   2.722   1.007   4.947 -0.6609 -0.3194 -0.3708
10825TIP3    H153966   2.766   1.065   5.009  0.2341 -1.2249 -0.1377
10825TIP3    H253967   2.775   1.015   4.867 -0.6190 -0.6931 -0.3818
10826TIP3   OH253968   6.784   4.610  11.454  0.0302 -0.1720  0.1539
10826TIP3    H153969   6.840   4.629  11.529  0.4745  0.8451 -0.4225
10826TIP3    H253970   6.742   4.527  11.477 -0.0156  0.2214  1.6151
10827TIP3   OH253971   1.327   5.807  12.274 -0.2179 -0.0666  0.3097
10827TIP3    H153972   1.422   5.805  12.266 -0.2216  2.1873 -0.9728
10827TIP3    H253973   1.309   5.864  12.348 -0.5777 -0.5844  0.6296
10828TIP3   OH253974   3.700   5.201  17.143  0.1000 -0.0242 -0.4587
10828TIP3    H153975   3.672   5.289  17.169  1.4323  0.6559 -1.2172
10828TIP3    H253976   3.638   5.176  17.074 -1.3445 -0.4252  0.9395
10829TIP3   OH253977   4.150   0.164  14.477  0.0779 -0.4121  0.2659
10829TIP3    H153978   4.080   0.168  14.412  1.5687 -0.4271 -1.4289
10829TIP3    H253979   4.192   0.250  14.472  0.7774 -0.7316  0.5461
10830TIP3   OH253980   0.516   6.523  16.343  0.5570  0.0106 -0.4911
10830TIP3    H153981   0.543   6.431  16.352 -1.9667 -0.6576  1.5203
10830TIP3    H253982   0.589   6.573  16.378  1.1237 -1.3929  0.4544
10831TIP3   OH253983   3.939   1.810  13.190 -0.1180 -0.3453  0.0761
10831TIP3    H153984   3.920   1.783  13.280  0.5732  1.1502  0.6991
10831TIP3    H253985   3.974   1.731  13.149  0.7748 -0.7181  1.4954
10832TIP3   OH253986   5.372   4.965  14.978 -0.1913  0.0885  0.1366
10832TIP3    H153987   5.452   4.935  14.936  0.2822 -2.2199  2.4414
10832TIP3    H253988   5.398   5.046  15.023  1.5544 -1.6602  2.5391
10833TIP3   OH253989   0.429   5.583  12.252 -0.1999 -0.3445  0.0854
10833TIP3    H153990   0.455   5.601  12.162 -0.6990  0.5191  0.1023
10833TIP3    H253991   0.502   5.533  12.289  0.5176  0.2720 -0.4607
10834TIP3   OH253992   4.769   5.464  10.756 -0.2167 -0.4550 -0.4703
10834TIP3    H153993   4.686   5.465  10.803 -0.8346  0.1108 -1.5610
10834TIP3    H253994   4.759   5.394  10.692  1.2174 -2.3414  1.2168
10835TIP3   OH253995   3.763   2.416  16.619  0.0734  0.0588 -0.2825
10835TIP3    H153996   3.774   2.445  16.710 -2.7571  0.2191  0.1037
10835TIP3    H253997   3.778   2.322  16.622  2.6512  0.4171 -0.2223
10836TIP3   OH253998   5.131   5.411  16.489 -0.4137  0.1417 -0.3161
10836TIP3    H153999   5.139   5.316  16.486  1.9017  0.1821  1.6951
10836TIP3    H254000   5.078   5.433  16.412 -1.4190 -2.7658 -0.5717
10837TIP3   OH254001   4.762   6.458  14.113 -0.2385 -0.1403  0.8074
10837TIP3    H154002   4.746   6.454  14.019  1.7249 -1.8975  0.4701
10837TIP3    H254003   4.712   6.534  14.143  1.0605  2.0481 -2.0725
10838TIP3   OH254004   0.826   6.031  12.058 -0.0137  0.0344  0.1199
10838TIP3    H154005   0.843   6.123  12.038  1.3477 -0.0545  0.7024
10838TIP3    H254006   0.911   5.997  12.086 -0.3013 -1.6378 -0.9296
10839TIP3   OH254007   3.900   0.161  10.457  0.7396 -0.5249 -0.1432
10839TIP3    H154008   3.919   0.073  10.490 -0.3591 -0.2383  1.3684
10839TIP3    H254009   3.857   0.146  10.373  1.1524 -1.4062 -0.2095
10840TIP3   OH254010   1.664   0.757   3.518 -0.2936  0.5671 -0.1565
10840TIP3    H154011   1.638   0.802   3.599  0.9938  0.8311  0.1329
10840TIP3    H254012   1.592   0.773   3.457 -1.4615  0.0387  1.0502
10841TIP3   OH254013   2.601   6.314   0.721 -0.8104  0.5304 -0.2551
10841TIP3    H154014   2.630   6.318   0.630  1.0440  0.5665  0.2867
10841TIP3    H254015   2.668   6.260   0.764 -1.8647  0.1930  1.0124
10842TIP3   OH254016   3.760   4.726   1.875  0.1280  0.1044  0.0932
10842TIP3    H154017   3.691   4.765   1.929 -1.8073 -0.2550 -1.9567
10842TIP3    H254018   3.769   4.637   1.907 -0.5456  0.0830  0.2299
10843TIP3   OH254019   0.387   1.853  14.601  0.3114  0.0457  0.0896
10843TIP3    H154020   0.429   1.931  14.565 -1.7410  1.1596 -0.0375
10843TIP3    H254021   0.447   1.823  14.669  0.7972  2.2186  0.7009
10844TIP3   OH254022   4.721   1.796   1.877 -0.6039 -0.6824 -0.3438
10844TIP3    H154023   4.783   1.723   1.870 -1.7067 -1.8544  1.2385
10844TIP3    H254024   4.636   1.754   1.890 -1.1359  0.8448  1.7534
10845TIP3   OH254025   2.276   5.401  11.456  0.3360  0.0638  0.4661
10845TIP3    H154026   2.351   5.380  11.511  1.1207  0.1665 -0.5362
10845TIP3    H254027   2.301   5.481  11.410 -0.4225  0.1462  0.1752
10846TIP3   OH254028   0.192   4.616   2.527  0.4933 -0.2012  0.3575
10846TIP3    H154029   0.136   4.546   2.495 -0.3061  0.7427 -0.3604
10846TIP3    H254030   0.193   4.681   2.456  0.4270  0.9539  1.3742
10847TIP3   OH254031   1.892   0.946   3.567 -0.0318 -0.6475 -0.4011
10847TIP3    H154032   1.944   0.879   3.610 -1.0368 -0.3455  1.4082
10847TIP3    H254033   1.841   0.899   3.501 -0.0787 -1.5317  0.2506
10848TIP3   OH254034   1.619   2.024  16.486  0.4371 -0.4293  0.2072
10848TIP3    H154035   1.598   1.931  16.497 -0.3485 -0.1946  0.8301
10848TIP3    H254036   1.616   2.060  16.575  0.3036  0.2800 -0.0745
10849TIP3   OH254037   2.257   1.785  15.155 -0.5757  0.1428  0.0560
10849TIP3    H154038   2.339   1.801  15.108 -0.3526 -0.2072  0.3214
10849TIP3    H254039   2.282   1.729  15.228 -0.8777  0.8803  0.7346
10850TIP3   OH254040   6.603   1.459   2.805  0.6568  0.2191 -0.1815
10850TIP3    H154041   6.542   1.386   2.814  0.4174  0.5287  0.8502
10850TIP3    H254042   6.652   1.460   2.887 -0.5686  2.2849  0.6188
10851TIP3   OH254043   6.746   6.462   3.864 -0.4263  0.1250  0.6871
10851TIP3    H154044   6.716   6.533   3.807 -0.9615 -0.6483 -0.0099
10851TIP3    H254045   6.840   6.455   3.846 -0.3683  0.6466  0.7612
10852TIP3   OH254046   3.946   5.142  12.798  0.0231  0.2924 -0.5744
10852TIP3    H154047   3.873   5.103  12.750 -1.9165  3.1052 -0.1809
10852TIP3    H254048   3.961   5.082  12.871 -1.8008 -0.4687 -0.7535
10853TIP3   OH254049   4.109   4.023   5.121 -0.0229 -0.7566  0.1103
10853TIP3    H154050   4.088   3.954   5.059  0.8406  0.5431 -1.6966
10853TIP3    H254051   4.204   4.030   5.119 -0.1034  0.5577  0.1748
10854TIP3   OH254052   3.930   4.002   1.460  0.0836  0.3791 -0.3753
10854TIP3    H154053   3.919   4.077   1.518 -1.1434 -0.5156  0.6103
10854TIP3    H254054   3.907   4.034   1.373 -2.6559  0.6620  0.3595
10855TIP3   OH254055   6.789   6.453  12.285 -0.2957 -0.4041  0.4296
10855TIP3    H154056   6.724   6.511  12.244 -0.4489 -0.5481  0.4674
10855TIP3    H254057   6.758   6.365  12.265  1.2323 -0.5187 -1.7224
10856TIP3   OH254058   5.080   6.040  13.989 -0.6676 -0.1273 -0.1430
10856TIP3    H154059   4.997   5.996  13.970 -1.1303  0.8217 -0.3533
10856TIP3    H254060   5.080   6.117  13.932 -0.2105  0.5490  0.7524
10857TIP3   OH254061   6.393   1.856  11.254 -0.0129  0.1661 -0.3233
10857TIP3    H154062   6.461   1.908  11.297  0.7814  0.5670 -1.9776
10857TIP3    H254063   6.317   1.914  11.250 -0.6210 -0.3976  1.8290
10858TIP3   OH254064   2.243   2.638   3.474 -0.4839 -0.0740  0.5782
10858TIP3    H154065   2.288   2.722   3.464  1.1746 -0.7934  1.4671
10858TIP3    H254066   2.242   2.600   3.386  0.2206  0.1854  0.4497
10859TIP3   OH254067   0.420   6.034  14.654  0.1238 -0.4388  0.1005
10859TIP3    H154068   0.331   6.000  14.650  0.6636 -2.0630  0.7259
10859TIP3    H254069   0.467   5.971  14.709  1.9525 -0.3350 -1.2280
10860TIP3   OH254070   2.549   3.403   6.064  0.0187  0.0921 -0.2461
10860TIP3    H154071   2.509   3.346   5.999 -1.1271  1.2847 -0.6194
10860TIP3    H254072   2.583   3.477   6.014  0.7608  0.1491  0.3195
10861TIP3   OH254073   1.628   3.014  16.315  0.0622 -0.1449  0.1308
10861TIP3    H154074   1.657   2.925  16.295 -1.7514 -0.3401 -1.9401
10861TIP3    H254075   1.663   3.031  16.403  1.7669 -2.2865 -0.0471
10862TIP3   OH254076   2.413   0.613  14.392  0.4027 -0.0810 -0.0190
10862TIP3    H154077   2.443   0.704  14.382  0.6762 -0.3018 -1.3440
10862TIP3    H254078   2.374   0.591  14.307 -1.2453 -0.6450  0.8409
10863TIP3   OH254079   6.387   1.707  16.127 -0.2859  0.3970  0.4752
10863TIP3    H154080   6.378   1.726  16.034  0.2690 -0.8614  0.1337
10863TIP3    H254081   6.375   1.612  16.133  1.2435  0.2289  1.4609
10864TIP3   OH254082   1.561   2.950  15.694  0.1978  0.3240  0.3859
10864TIP3    H154083   1.606   2.866  15.703 -1.5946 -0.7850 -0.3799
10864TIP3    H254084   1.621   3.013  15.732  1.7752 -1.2424  0.6643
10865TIP3   OH254085   1.402   2.410   6.000 -0.1078  0.4978  0.6129
10865TIP3    H154086   1.319   2.384   6.041 -0.2856  1.3688  0.8100
10865TIP3    H254087   1.468   2.389   6.066 -0.3917  1.8876  1.3808
10866TIP3   OH254088   3.572   3.086   2.887 -0.2204  0.1542 -0.7334
10866TIP3    H154089   3.586   3.060   2.796  0.4036  1.2229 -0.9612
10866TIP3    H254090   3.560   3.004   2.934  0.4799 -0.4682 -1.6136
10867TIP3   OH254091   5.124   6.474   2.508 -0.6486  0.2160  0.1488
10867TIP3    H154092   5.200   6.481   2.566 -0.1878 -0.3689 -0.3691
10867TIP3    H254093   5.132   6.549   2.449 -0.7094  0.3939  0.3653
10868TIP3   OH254094   2.095   4.396  15.933  0.3595 -0.3257 -0.1872
10868TIP3    H154095   2.002   4.377  15.926  0.2217 -0.5896  1.9262
10868TIP3    H254096   2.116   4.384  16.025  2.7578 -1.4397 -0.7890
10869TIP3   OH254097   2.723   4.323  12.453 -0.4132 -0.1143 -0.1955
10869TIP3    H154098   2.743   4.400  12.505 -0.6019  0.2313 -0.6323
10869TIP3    H254099   2.799   4.266  12.463 -1.0611 -0.7340  1.6866
10870TIP3   OH254100   0.971   5.182  15.227 -0.0622 -0.4599 -0.0325
10870TIP3    H154101   1.054   5.148  15.260 -0.8970 -0.2775  2.4432
10870TIP3    H254102   0.922   5.104  15.201 -0.0507 -0.7788  0.8659
10871TIP3   OH254103   2.286   5.433  10.813 -0.2590  0.2056 -0.3404
10871TIP3    H154104   2.211   5.444  10.755  0.3060 -1.0879 -1.3537
10871TIP3    H254105   2.283   5.341  10.839  0.0767  0.5210  0.9022
10872TIP3   OH254106   5.321   4.161   3.465 -0.2469  0.0916 -0.2913
10872TIP3    H154107   5.300   4.254   3.457 -1.6221 -0.0938  0.8963
10872TIP3    H254108   5.412   4.160   3.493  0.2561  1.0131 -1.7410
10873TIP3   OH254109   1.076   1.207  13.116 -0.6469  0.1357  0.7366
10873TIP3    H154110   1.164   1.217  13.078  0.1994 -1.7490  2.0321
10873TIP3    H254111   1.028   1.283  13.085  0.7060  0.0147 -2.0279
10874TIP3   OH254112   2.559   6.707   0.176  0.3972 -0.3441  0.1481
10874TIP3    H154113   2.546   6.792   0.217 -1.2563 -0.2683 -0.4572
10874TIP3    H254114   2.474   6.685   0.140  0.8894 -2.1034 -0.0219
10875TIP3   OH254115   1.984   3.424   0.426  0.3570 -0.1876 -0.0538
10875TIP3    H154116   1.937   3.507   0.421 -0.8595 -0.8396  0.2208
10875TIP3    H254117   1.965   3.391   0.514  1.6672 -0.2919  0.2154
10876TIP3   OH254118   6.004   5.400  17.000 -0.7170  0.4475  0.2838
10876TIP3    H154119   6.087   5.368  17.036 -0.9486 -0.0906  0.3471
10876TIP3    H254120   5.976   5.468  17.061 -0.5621  0.2940  0.5256
10877TIP3   OH254121   4.700   4.821  16.320 -0.6155 -0.3571 -0.0316
10877TIP3    H154122   4.747   4.739  16.307  0.4836  0.4459 -1.3283
10877TIP3    H254123   4.765   4.879  16.360 -0.7449  0.5028 -1.0444
10878TIP3   OH254124   0.366   5.439   0.235 -0.3146  0.2102  1.2812
10878TIP3    H154125   0.386   5.531   0.218 -0.2168  0.0187  0.3430
10878TIP3    H254126   0.390   5.427   0.327  0.9464  0.7834  1.0530
10879TIP3   OH254127   5.029   1.672   5.951 -0.2267  0.2969  0.0148
10879TIP3    H154128   5.082   1.630   6.019 -0.0676  0.3512 -0.0755
10879TIP3    H254129   4.996   1.599   5.898  1.9278  0.3551 -1.5503
10880TIP3   OH254130   1.755   0.550   5.365 -0.4880 -0.0868  0.1578
10880TIP3    H154131   1.712   0.498   5.296 -1.5486 -0.7908  1.2932
10880TIP3    H254132   1.843   0.514   5.370  0.8541  2.2637 -3.1405
10881TIP3   OH254133   1.358   1.457  16.982 -0.1421 -0.5923 -0.4521
10881TIP3    H154134   1.361   1.379  17.037 -1.1286  0.0119  0.4990
10881TIP3    H254135   1.386   1.528  17.040 -0.6832 -0.0179 -0.8836
10882TIP3   OH254136   0.249   2.769   2.017  0.0797  0.2113 -0.1746
10882TIP3    H154137   0.239   2.864   2.023 -1.0049  0.1564 -0.8722
10882TIP3    H254138   0.174   2.740   1.966  0.8731 -0.9391 -0.7333
10883TIP3   OH254139   0.638   1.863  12.738  0.4386  0.0688 -0.6749
10883TIP3    H154140   0.550   1.825  12.734  0.9565 -1.2047 -0.3364
10883TIP3    H254141   0.644   1.903  12.825 -0.1602  1.1097 -1.0890
10884TIP3   OH254142   1.179   3.904  12.658 -0.2771  0.2069 -0.0733
10884TIP3    H154143   1.226   3.980  12.690 -0.7844  0.7062 -0.4882
10884TIP3    H254144   1.243   3.833  12.659 -0.1938  0.2549  1.7570
10885TIP3   OH254145   3.913   2.499  14.079 -0.2605 -0.0798 -0.4287
10885TIP3    H154146   3.859   2.547  14.142 -0.7087  0.1629 -0.9806
10885TIP3    H254147   3.892   2.407  14.093  0.1459 -0.0738  0.2275
10886TIP3   OH254148   3.356   4.701   3.741  0.4841 -0.2488  0.2653
10886TIP3    H154149   3.387   4.699   3.831 -1.4771 -0.6679  0.9934
10886TIP3    H254150   3.349   4.608   3.716 -0.4378 -0.1932  0.2595
10887TIP3   OH254151   5.042   2.296   1.996  0.0105 -0.2131 -0.2167
10887TIP3    H154152   5.073   2.225   1.940  0.1364  0.6563 -1.2846
10887TIP3    H254153   4.958   2.322   1.958 -1.4152 -1.5612  1.7878
10888TIP3   OH254154   0.320   6.110  12.483  0.3633 -0.3195 -0.1385
10888TIP3    H154155   0.253   6.156  12.534  1.5989  1.3136  0.0797
10888TIP3    H254156   0.292   6.018  12.485 -0.9232  0.0498  1.4066
10889TIP3   OH254157   4.945   4.816   0.102  0.1799  0.3119 -0.1449
10889TIP3    H154158   4.958   4.836   0.009  1.9291 -1.2530 -0.2977
10889TIP3    H254159   5.022   4.765   0.127 -0.1418  0.8364  2.2375
10890TIP3   OH254160   4.807   6.790  11.165 -1.1555  0.3603 -0.8393
10890TIP3    H154161   4.756   6.834  11.097  1.7324  1.3620 -2.5237
10890TIP3    H254162   4.834   6.707  11.125 -1.5769 -0.2385  0.0887
10891TIP3   OH254163   2.986   3.457   5.119  0.2094 -0.4798  0.2341
10891TIP3    H154164   2.905   3.508   5.107 -0.6641 -1.6932  0.7621
10891TIP3    H254165   2.980   3.424   5.209  1.7496  0.1515  0.5940
10892TIP3   OH254166   6.359   6.213  16.765  0.3811  0.6080  0.2846
10892TIP3    H154167   6.398   6.181  16.684  0.2998 -0.1280  0.5300
10892TIP3    H254168   6.265   6.213  16.748  0.3755  0.6341  0.3161
10893TIP3   OH254169   6.196   4.923   5.829  0.0107 -0.0148  0.6091
10893TIP3    H154170   6.118   4.891   5.873  0.4322 -1.0861  0.5987
10893TIP3    H254171   6.255   4.947   5.900 -0.1087  0.2710  0.6151
10894TIP3   OH254172   0.141   5.267  13.025 -0.2982 -0.1386 -0.0789
10894TIP3    H154173   0.201   5.210  13.072 -0.0770 -0.0650 -0.2707
10894TIP3    H254174   0.187   5.288  12.943 -0.3768  0.3164 -0.0064
10895TIP3   OH254175   5.022   4.112   3.503  0.1739  0.9325  0.0144
10895TIP3    H154176   5.114   4.132   3.515 -0.3130  3.3654  0.1777
10895TIP3    H254177   4.989   4.182   3.447 -1.4938 -0.1282 -0.4034
10896TIP3   OH254178   2.034   3.589  16.673  0.3828  0.1022 -0.2758
10896TIP3    H154179   2.084   3.511  16.648  1.0169  0.2013  0.5970
10896TIP3    H254180   2.100   3.659  16.675  0.7448 -0.1688  2.9584
10897TIP3   OH254181   3.392   0.255   2.348 -0.4527  0.0847  0.2923
10897TIP3    H154182   3.455   0.326   2.358  0.8344 -1.0392  0.3584
10897TIP3    H254183   3.427   0.201   2.277 -0.9879 -0.9236  0.7768
10898TIP3   OH254184   0.648   6.690  11.948 -0.6065  0.3639  0.0404
10898TIP3    H154185   0.657   6.746  12.025  2.1636  0.1201 -0.0051
10898TIP3    H254186   0.730   6.642  11.944 -0.6083  0.4043 -3.0914
10899TIP3   OH254187   0.925   2.870   1.678 -0.2522  0.8616  0.0831
10899TIP3    H154188   0.905   2.875   1.584  0.2374 -0.5489 -0.1303
10899TIP3    H254189   0.873   2.796   1.709 -0.3835  1.2982  0.9309
10900TIP3   OH254190   3.852   1.079  16.311 -0.0907  0.1872 -0.0846
10900TIP3    H154191   3.849   1.056  16.218  2.5659 -0.2834 -0.1126
10900TIP3    H254192   3.785   1.147  16.321 -0.6605  0.0034 -2.2508
10901TIP3   OH254193   1.413   1.199   5.576 -0.3821  0.1338 -0.1916
10901TIP3    H154194   1.388   1.107   5.583 -2.7050  0.6277 -1.1314
10901TIP3    H254195   1.504   1.198   5.547  0.6649 -1.8214  2.6856
10902TIP3   OH254196   6.128   6.376  17.115  0.2857 -0.1077 -0.2539
10902TIP3    H154197   6.098   6.383  17.206  0.6093 -0.9564 -0.0740
10902TIP3    H254198   6.160   6.286  17.107  0.4550  0.0239 -1.1518
10903TIP3   OH254199   4.805   5.989  14.345 -0.0989  0.1241 -0.6059
10903TIP3    H154200   4.890   5.967  14.306 -0.0848  2.1311 -1.8429
10903TIP3    H254201   4.749   6.011  14.271 -1.9617 -1.8124  0.1439
10904TIP3   OH254202   3.671   4.339   0.539 -0.0983  0.1750 -0.0890
10904TIP3    H154203   3.702   4.260   0.584 -1.2082 -0.2960 -0.1147
10904TIP3    H254204   3.710   4.412   0.588  0.9405 -0.3774 -0.0624
10905TIP3   OH254205   0.908   6.637  16.192  0.1154  0.0340  0.0623
10905TIP3    H154206   0.938   6.684  16.269  0.9481 -0.2562 -0.0685
10905TIP3    H254207   0.858   6.701  16.142 -0.2029  0.2934  0.7077
10906TIP3   OH254208   5.480   2.120   2.735  0.6248 -0.0551 -0.2818
10906TIP3    H154209   5.388   2.145   2.745  0.5332 -1.1849  3.8241
10906TIP3    H254210   5.529   2.202   2.742 -0.0043  0.3562 -0.6658
10907TIP3   OH254211   2.990   4.516  16.283 -0.6121 -0.7321  0.1281
10907TIP3    H154212   3.083   4.491  16.281  0.2651  2.1698 -1.6879
10907TIP3    H254213   2.971   4.529  16.376  0.7762 -1.4275  0.5457
10908TIP3   OH254214   2.450   5.810  13.546 -0.5274 -0.5827 -0.2561
10908TIP3    H154215   2.417   5.730  13.505 -1.9074 -1.0480  1.6360
10908TIP3    H254216   2.421   5.880  13.488 -1.3646 -1.2906 -0.7196
10909TIP3   OH254217   5.313   5.491  11.220 -0.3220  0.0845  0.0608
10909TIP3    H154218   5.372   5.566  11.220 -0.1944 -0.0138  0.4774
10909TIP3    H254219   5.331   5.446  11.303  0.6500 -1.2328 -0.8201
10910TIP3   OH254220   1.641   2.038   1.677  0.0828  0.0810 -0.1078
10910TIP3    H154221   1.707   2.001   1.618  1.8213  2.1360  0.4355
10910TIP3    H254222   1.583   2.087   1.619 -1.2943 -2.0024 -0.6297
10911TIP3   OH254223   5.200   0.077   1.775 -0.1508 -0.5942 -0.2462
10911TIP3    H154224   5.145   0.008   1.812 -0.9738 -1.4959 -2.9519
10911TIP3    H254225   5.197   0.147   1.841 -2.8925 -1.4027  0.6463
10912TIP3   OH254226   0.913   5.639   5.991  0.1873 -0.8094 -0.3009
10912TIP3    H154227   0.841   5.590   6.030 -0.5803  1.1815  0.9707
10912TIP3    H254228   0.989   5.619   6.045  0.0535 -1.1258 -0.2299
10913TIP3   OH254229   2.270   4.096  16.694  0.0617  0.2413  0.4125
10913TIP3    H154230   2.333   4.167  16.689 -1.5931  1.7138 -1.8487
10913TIP3    H254231   2.248   4.077  16.603 -1.7879 -1.0632  1.0558
10914TIP3   OH254232   4.083   0.210   0.637  0.5502 -0.3469 -0.2819
10914TIP3    H154233   4.037   0.126   0.639 -0.3278  0.0051 -2.7280
10914TIP3    H254234   4.155   0.197   0.575  1.6187  0.1681  0.8120
10915TIP3   OH254235   5.082   6.180  17.022 -0.6381 -0.5151  0.1802
10915TIP3    H154236   5.074   6.275  17.012  0.6422 -0.3896  0.1982
10915TIP3    H254237   5.103   6.168  17.115  0.6320 -0.6942 -0.1147
10916TIP3   OH254238   6.598   4.948  16.361 -0.4846  0.1706  0.0364
10916TIP3    H154239   6.630   4.857  16.362 -1.3117 -0.2560 -2.7754
10916TIP3    H254240   6.503   4.939  16.359 -0.5591  1.0644 -0.7798
10917TIP3   OH254241   2.043   3.921  14.529  0.6841 -0.2307  0.1930
10917TIP3    H154242   1.992   4.001  14.514  1.2637  0.0105 -0.5755
10917TIP3    H254243   2.089   3.906  14.446 -0.2051 -1.9496 -0.0259
10918TIP3   OH254244   3.776   0.749   3.425 -1.4969 -0.3793 -0.0391
10918TIP3    H154245   3.763   0.658   3.399 -2.2696 -0.0458 -0.9167
10918TIP3    H254246   3.863   0.771   3.393 -1.7578 -0.4900 -0.8589
10919TIP3   OH254247   0.633   2.847  13.978 -0.0830  0.0088  0.2033
10919TIP3    H154248   0.663   2.862  14.068 -0.9199  1.7199  0.2343
10919TIP3    H254249   0.628   2.752  13.970  2.8341 -0.3152  1.0048
10920TIP3   OH254250   2.717   4.590   4.505  0.3533 -0.3965 -0.3997
10920TIP3    H154251   2.735   4.591   4.411 -1.2400  0.0843 -0.7351
10920TIP3    H254252   2.774   4.657   4.541 -0.7444  1.1415 -1.4084
10921TIP3   OH254253   2.895   0.642   5.271  0.4729 -0.0674  0.6266
10921TIP3    H154254   2.979   0.638   5.226  0.8778 -0.5968  1.3938
10921TIP3    H254255   2.857   0.555   5.258 -0.7088  0.6537 -1.0720
10922TIP3   OH254256   1.434   3.698  15.407 -0.1368 -0.4880 -0.9648
10922TIP3    H154257   1.376   3.706  15.331 -1.7467 -0.3030  0.2406
10922TIP3    H254258   1.519   3.731  15.376 -1.3092  1.7069 -2.0604
10923TIP3   OH254259   2.459   6.777  11.717  0.1145  0.3539 -0.4866
10923TIP3    H154260   2.529   6.841  11.699  0.5560  0.0433  0.0962
10923TIP3    H254261   2.463   6.764  11.812 -1.2640  0.9168 -0.3378
10924TIP3   OH254262   4.403   1.895  10.303 -0.2327 -0.0968  0.1756
10924TIP3    H154263   4.493   1.923  10.316 -0.1582 -0.7507  1.1846
10924TIP3    H254264   4.410   1.813  10.254 -0.2946 -0.0705  0.1216
10925TIP3   OH254265   6.402   1.811  15.389 -0.2434  0.1250 -0.0040
10925TIP3    H154266   6.497   1.816  15.375 -0.0389  0.6961  1.3828
10925TIP3    H254267   6.392   1.747  15.460 -0.8622  0.4266  0.1859
10926TIP3   OH254268   2.541   3.738   3.200 -0.6882 -0.0901  0.1436
10926TIP3    H154269   2.545   3.661   3.142  0.4072 -0.0754  0.1830
10926TIP3    H254270   2.518   3.702   3.286  0.7916 -0.5287  0.3868
10927TIP3   OH254271   4.193   2.168   4.839  0.0865 -0.3072 -0.2783
10927TIP3    H154272   4.222   2.077   4.849  0.8197  0.1018  1.6208
10927TIP3    H254273   4.274   2.217   4.824 -0.0385  0.3256  1.0511
10928TIP3   OH254274   5.012   5.832   3.152  0.3695 -0.3224  0.2294
10928TIP3    H154275   4.921   5.820   3.123  0.5603  0.2464 -0.6122
10928TIP3    H254276   5.022   5.769   3.224 -0.3769 -1.1262 -0.3443
10929TIP3   OH254277   4.980   4.595   3.338 -0.1839 -0.6370 -0.0458
10929TIP3    H154278   4.938   4.681   3.340  0.5603 -0.2711  1.3387
10929TIP3    H254279   4.981   4.570   3.245  0.4858  1.2998 -0.6011
10930TIP3   OH254280   5.261   0.185  13.150 -0.3147  0.1620 -0.2170
10930TIP3    H154281   5.235   0.170  13.059 -0.0778 -0.1397 -0.2371
10930TIP3    H254282   5.343   0.233  13.144 -0.7482  0.9328 -0.1529
10931TIP3   OH254283   3.431   3.664  16.525  1.0419  1.1817  0.5785
10931TIP3    H154284   3.428   3.698  16.435 -0.7395  0.7929  0.4404
10931TIP3    H254285   3.374   3.723  16.575 -0.3820 -0.2774  0.7788
10932TIP3   OH254286   0.640   0.142  14.587  0.2116  0.2890  0.0323
10932TIP3    H154287   0.688   0.067  14.552  0.7736  1.5766 -2.1631
10932TIP3    H254288   0.553   0.107  14.609  0.6608 -1.1247 -0.3247
10933TIP3   OH254289   3.223   3.644  12.690 -0.6258 -0.0224 -0.4791
10933TIP3    H154290   3.225   3.718  12.751  0.5822  0.4031 -1.0009
10933TIP3    H254291   3.202   3.568  12.744 -0.8992  0.5585  0.2328
10934TIP3   OH254292   0.504   0.201  11.217 -0.4649  0.1103 -0.4408
10934TIP3    H154293   0.557   0.197  11.297  0.5568 -0.9673 -1.1451
10934TIP3    H254294   0.423   0.244  11.245 -0.8847 -1.8034  1.5961
10935TIP3   OH254295   6.592   3.420  15.740 -0.6208  0.2159 -0.2028
10935TIP3    H154296   6.569   3.331  15.768 -1.5548  1.4675  3.5539
10935TIP3    H254297   6.507   3.463  15.726 -0.2860  1.2543  0.8355
10936TIP3   OH254298   6.778   3.845  11.870  0.3266  0.5609 -0.8747
10936TIP3    H154299   6.711   3.912  11.886 -2.5961 -1.9615 -1.6736
10936TIP3    H254300   6.839   3.855  11.943 -2.7170  0.9455  1.8552
10937TIP3   OH254301   2.565   4.466  14.446 -0.6528 -0.4438  0.4257
10937TIP3    H154302   2.624   4.531  14.409 -2.7581  0.2111 -2.1604
10937TIP3    H254303   2.618   4.387  14.455  0.8658  0.3941 -0.7572
10938TIP3   OH254304   0.119   6.694  12.357  0.1352  0.1253 -0.4596
10938TIP3    H154305   0.054   6.727  12.419 -0.6022 -3.5017  0.9524
10938TIP3    H254306   0.189   6.658  12.412  0.9977 -0.4291 -1.8482
10939TIP3   OH254307   2.300   3.876   5.095  0.3306  0.9682 -0.0491
10939TIP3    H154308   2.305   3.967   5.123  1.4271  0.9157 -0.0108
10939TIP3    H254309   2.376   3.865   5.037  0.5440 -0.0641  0.4046
10940TIP3   OH254310   0.053   6.172  13.062  0.4109 -0.2282  0.2202
10940TIP3    H154311   0.113   6.128  13.122  1.6011  0.8793 -0.0981
10940TIP3    H254312   0.067   6.128  12.978  0.2754 -0.4169  0.2969
10941TIP3   OH254313   2.476   6.421  14.553  0.0095 -0.2614  0.0752
10941TIP3    H154314   2.510   6.490  14.609 -0.1897  0.1031 -0.2459
10941TIP3    H254315   2.390   6.400  14.590 -1.2147  1.6700 -1.4533
10942TIP3   OH254316   2.085   4.811   2.825 -0.3703  0.3902 -0.4206
10942TIP3    H154317   2.089   4.726   2.781 -0.9924  0.5126 -0.7205
10942TIP3    H254318   1.993   4.821   2.849 -0.1002  0.4610  0.6522
10943TIP3   OH254319   1.882   0.770  12.009 -0.1644  0.0047  0.1332
10943TIP3    H154320   1.886   0.825  12.088  2.9313 -2.3796  1.8885
10943TIP3    H254321   1.907   0.829  11.938  3.3611  1.0534  1.9761
10944TIP3   OH254322   4.050   0.566  13.019  0.2241  0.2496  0.1030
10944TIP3    H154323   3.991   0.622  12.968  1.4802 -0.4879 -2.3203
10944TIP3    H254324   4.019   0.477  13.003  0.2673  0.0193  1.2017
10945TIP3   OH254325   3.942   6.745   1.746  0.3686  0.1262 -0.1137
10945TIP3    H154326   3.934   6.730   1.840  0.6096  0.6792 -0.0012
10945TIP3    H254327   3.885   6.679   1.706 -1.9109  1.5867  0.5251
10946TIP3   OH254328   4.432   4.980   3.805 -0.2510 -0.2968 -0.6600
10946TIP3    H154329   4.416   4.920   3.877  1.3385  1.9035  1.7101
10946TIP3    H254330   4.519   4.956   3.772  0.7126  1.0369  0.7767
10947TIP3   OH254331   0.620   2.225  17.105 -0.1029 -0.1143  0.3553
10947TIP3    H154332   0.625   2.247  17.198 -0.5047  0.9859  0.1318
10947TIP3    H254333   0.526   2.219  17.086 -0.0297 -2.0906  0.3922
10948TIP3   OH254334   3.192   2.900   3.242  0.5298  0.1780  0.1886
10948TIP3    H154335   3.172   2.923   3.151  1.7167  0.0764 -0.1041
10948TIP3    H254336   3.106   2.878   3.280  0.0889 -0.3591 -1.0593
10949TIP3   OH254337   3.069   1.550   3.588  0.5272  0.3406  0.4541
10949TIP3    H154338   3.011   1.483   3.625 -1.5344  1.2103 -0.9596
10949TIP3    H254339   3.085   1.610   3.660 -1.0871  0.5269  0.7081
10950TIP3   OH254340   2.525   2.785  12.738 -0.4263 -0.3881 -0.4622
10950TIP3    H154341   2.479   2.710  12.701 -0.2611 -1.1929  0.9018
10950TIP3    H254342   2.558   2.755  12.822 -1.4171  1.5752  0.7137
10951TIP3   OH254343   6.125   2.956  13.628 -0.2794 -0.4551 -0.3335
10951TIP3    H154344   6.067   2.909  13.689  1.1161 -1.7174  0.0678
10951TIP3    H254345   6.095   3.047  13.633 -0.6831 -0.6406  1.6837
10952TIP3   OH254346   1.544   4.315  13.853  0.2564 -0.5797  0.2107
10952TIP3    H154347   1.597   4.268  13.789  0.7167  0.0050  0.1522
10952TIP3    H254348   1.464   4.262  13.862  0.9228 -1.5672  0.4441
10953TIP3   OH254349   3.315   2.588  12.668  0.0144 -1.0747  0.5525
10953TIP3    H154350   3.364   2.575  12.749  3.2235 -2.3951 -1.4187
10953TIP3    H254351   3.380   2.582  12.599 -2.9933 -4.0352 -2.4689
10954TIP3   OH254352   1.229   1.833   1.738 -0.1686 -0.1247 -0.5054
10954TIP3    H154353   1.136   1.858   1.732 -0.5181 -1.0044  0.9178
10954TIP3    H254354   1.274   1.914   1.760 -0.4369  0.5173 -2.1371
10955TIP3   OH254355   4.618   2.918  11.790  0.9333 -0.0663  0.1773
10955TIP3    H154356   4.580   2.971  11.860  1.3601  0.5110 -0.0171
10955TIP3    H254357   4.599   2.967  11.710  1.2292 -0.2706 -0.0184
10956TIP3   OH254358   3.715   0.293   3.417  0.8755 -0.4931 -0.4410
10956TIP3    H154359   3.663   0.326   3.491 -0.4719  0.8100 -1.8909
10956TIP3    H254360   3.783   0.359   3.405  1.1638 -0.7637 -0.2854
10957TIP3   OH254361   2.386   3.399  16.497 -0.0824  0.2046  0.0873
10957TIP3    H154362   2.426   3.331  16.552 -1.1946  0.7127  1.5560
10957TIP3    H254363   2.421   3.481  16.532  0.9593  0.4554 -1.4421
10958TIP3   OH254364   4.879   3.660  14.082  0.0986 -0.4274  0.5977
10958TIP3    H154365   4.970   3.686  14.066 -0.2350  0.5842  0.2524
10958TIP3    H254366   4.830   3.742  14.072 -0.7288 -0.7686  1.7775
10959TIP3   OH254367   3.589   0.085   0.839  0.1920 -0.1257 -0.1878
10959TIP3    H154368   3.641   0.078   0.759  0.6914  2.4194 -0.1752
10959TIP3    H254369   3.654   0.098   0.908 -0.2424 -2.1225  0.6887
10960TIP3   OH254370   3.386   0.076  11.377 -0.0146 -0.7740  0.1367
10960TIP3    H154371   3.324   0.091  11.305 -1.1192 -1.5613  0.8936
10960TIP3    H254372   3.388   0.159  11.424 -0.2908 -0.6659 -0.0396
10961TIP3   OH254373   0.754   2.923  13.236 -0.5467 -0.4458 -0.2555
10961TIP3    H154374   0.680   2.984  13.233 -0.8247 -0.7125  0.6419
10961TIP3    H254375   0.716   2.843  13.273  0.3194 -0.3829  0.8124
10962TIP3   OH254376   5.793   1.000  16.747 -0.1361 -0.5768 -0.0394
10962TIP3    H154377   5.725   0.939  16.776 -0.5500 -0.3209 -0.4744
10962TIP3    H254378   5.813   1.052  16.824 -1.7810  0.6214 -0.3849
10963TIP3   OH254379   2.637   4.845   5.699  0.1225 -0.6601 -0.7460
10963TIP3    H154380   2.696   4.868   5.770 -0.5439 -2.4114  0.4625
10963TIP3    H254381   2.635   4.922   5.642  3.7513 -0.6336 -1.0275
10964TIP3   OH254382   3.210   4.882  12.768 -0.3074  0.5291  0.0163
10964TIP3    H154383   3.221   4.787  12.765  0.0794  0.5754 -0.0923
10964TIP3    H254384   3.158   4.902  12.690  0.8252  0.5577 -0.7626
10965TIP3   OH254385   3.283   2.867  12.916  0.5228  0.3486  0.6701
10965TIP3    H154386   3.207   2.819  12.950  0.1748 -0.3461 -0.9994
10965TIP3    H254387   3.245   2.943  12.872  0.8252  0.2228  0.1892
10966TIP3   OH254388   3.229   4.184   2.356  0.1028  0.0309 -0.0080
10966TIP3    H154389   3.243   4.229   2.272  1.1739  0.3806  0.3417
10966TIP3    H254390   3.175   4.245   2.407 -0.0304  0.0884 -0.2185
10967TIP3   OH254391   6.261   4.238   1.133 -0.3640  0.1569  0.0255
10967TIP3    H154392   6.250   4.232   1.038 -1.0137 -0.6565  0.1424
10967TIP3    H254393   6.172   4.249   1.166 -0.0978  0.8916  0.5164
10968TIP3   OH254394   1.385   2.726   3.838  0.5658 -0.5935 -0.1621
10968TIP3    H154395   1.397   2.704   3.930 -0.4587 -0.0815  0.1021
10968TIP3    H254396   1.471   2.710   3.798  1.0858 -0.5700  0.9231
10969TIP3   OH254397   1.129   4.139   5.932 -0.4953  0.2020  0.4518
10969TIP3    H154398   1.097   4.093   5.854 -1.7780  2.1533 -0.2232
10969TIP3    H254399   1.187   4.207   5.897  0.4824 -0.1351  1.3629
10970TIP3   OH254400   3.389   2.499   4.590  0.0694 -0.1144  0.3783
10970TIP3    H154401   3.321   2.482   4.524 -1.1890  1.1464  1.2839
10970TIP3    H254402   3.340   2.513   4.671  1.5217 -0.4811  1.3542
10971TIP3   OH254403   2.564   5.824  14.294 -0.0101  0.4622 -0.1023
10971TIP3    H154404   2.569   5.729  14.279  1.3556  0.3967  0.6819
10971TIP3    H254405   2.551   5.832  14.389  2.4586  1.0776  0.2493
10972TIP3   OH254406   2.010   4.333   2.485  0.2505  0.3760 -0.0400
10972TIP3    H154407   1.947   4.341   2.557  0.1721 -0.5371 -0.0028
10972TIP3    H254408   2.084   4.286   2.522 -0.2014 -0.9806 -0.7958
10973TIP3   OH254409   4.252   5.008   5.207  0.3533  0.0230  0.6309
10973TIP3    H154410   4.157   5.011   5.215  0.3940  2.0264  0.8658
10973TIP3    H254411   4.269   4.945   5.137 -1.1594 -0.1969  0.4450
10974TIP3   OH254412   4.735   5.302  11.322  0.3657 -0.5378  0.6793
10974TIP3    H154413   4.644   5.273  11.328 -0.0096  0.7947  2.0925
10974TIP3    H254414   4.734   5.372  11.256  0.2018 -0.0150  1.2252
10975TIP3   OH254415   1.104   2.979   3.904  0.2985  0.6674 -0.0552
10975TIP3    H154416   1.157   2.961   3.827  2.5722  0.2164  1.5259
10975TIP3    H254417   1.018   2.942   3.883  1.3788 -1.1318 -1.6408
10976TIP3   OH254418   5.011   4.290  15.029  0.1151  0.3618  0.3185
10976TIP3    H154419   5.070   4.354  14.988 -0.2293  0.4968  0.0312
10976TIP3    H254420   5.012   4.314  15.122 -0.0717  0.8424  0.2027
10977TIP3   OH254421   6.059   0.192   6.342  0.6355 -0.3995  0.4715
10977TIP3    H154422   6.008   0.268   6.370 -1.3171 -1.4351 -0.1451
10977TIP3    H254423   6.037   0.124   6.406 -0.0129 -1.3184 -0.7032
10978TIP3   OH254424   0.956   0.514   6.140  0.0709  0.0362  0.0222
10978TIP3    H154425   0.942   0.427   6.178  0.0771 -0.4981 -1.1426
10978TIP3    H254426   0.917   0.575   6.203 -0.7602 -0.8851  0.4240
10979TIP3   OH254427   2.233   0.947   1.573  0.2310 -0.2237 -0.3603
10979TIP3    H154428   2.194   1.018   1.524 -0.5975 -0.7272 -0.4433
10979TIP3    H254429   2.185   0.869   1.547 -0.5810 -0.4447  1.5832
10980TIP3   OH254430   5.474   1.811  10.301 -0.1281  0.5041  0.0703
10980TIP3    H154431   5.565   1.784  10.289 -0.3490 -0.0422 -0.4166
10980TIP3    H254432   5.450   1.776  10.387  0.1567  0.7784  0.2689
10981TIP3   OH254433   2.191   6.339  16.679 -0.4877  0.5596  0.5753
10981TIP3    H154434   2.173   6.274  16.747  0.4548 -0.3706 -0.0316
10981TIP3    H254435   2.271   6.308  16.637 -0.5484  1.6142 -0.3617
10982TIP3   OH254436   4.959   1.504   0.373 -0.0273 -0.2812 -0.1521
10982TIP3    H154437   4.919   1.469   0.293 -0.9724 -0.4969  0.4008
10982TIP3    H254438   5.021   1.437   0.400 -1.9373 -1.6823  0.9874
10983TIP3   OH254439   3.551   4.544   3.335  0.2254 -0.1880  0.1239
10983TIP3    H154440   3.460   4.519   3.320 -0.0218  0.3913  0.6203
10983TIP3    H254441   3.546   4.627   3.382  0.9939 -0.7434  1.2326
10984TIP3   OH254442   4.717   2.946   3.101  0.2362 -0.2834  0.3658
10984TIP3    H154443   4.720   3.040   3.085  0.7878 -0.3671 -0.0654
10984TIP3    H254444   4.725   2.906   3.015  0.2349 -0.7243  0.5653
10985TIP3   OH254445   0.705   6.698  13.138  0.1056 -0.4668  0.5688
10985TIP3    H154446   0.774   6.715  13.074 -0.5681  2.1706  0.4533
10985TIP3    H254447   0.623   6.709  13.090 -0.4146 -1.1926  1.2519
10986TIP3   OH254448   5.690   6.391  12.211  0.0125  0.8207 -0.2185
10986TIP3    H154449   5.749   6.432  12.147  0.7978  0.7597  0.4560
10986TIP3    H254450   5.719   6.300  12.216  1.6801  1.3892  2.1107
10987TIP3   OH254451   1.262   2.009  12.162  0.3271 -0.0302  0.1506
10987TIP3    H154452   1.272   1.914  12.160  1.8571  0.0933  0.6417
10987TIP3    H254453   1.253   2.034  12.071  1.0071 -0.5567 -0.0704
10988TIP3   OH254454   2.687   2.964   3.921  0.3313 -0.2203 -0.8987
10988TIP3    H154455   2.763   3.018   3.898  0.8788 -0.5600  0.0625
10988TIP3    H254456   2.724   2.881   3.952 -0.4814 -0.9528 -1.8044
10989TIP3   OH254457   5.389   5.235   2.469  0.2499 -0.4112 -0.1075
10989TIP3    H154458   5.379   5.261   2.377 -0.1335 -1.6014 -0.4165
10989TIP3    H254459   5.329   5.294   2.516  1.2366  0.9284 -0.4677
10990TIP3   OH254460   4.778   1.677  14.437  0.1672  0.4465  0.3478
10990TIP3    H154461   4.845   1.734  14.399 -0.3093  1.9360  1.6440
10990TIP3    H254462   4.697   1.728  14.430 -0.5546 -0.7026  0.1705
10991TIP3   OH254463   0.731   2.485  16.645  0.1537  0.0215 -0.9664
10991TIP3    H154464   0.751   2.545  16.717 -0.2691 -0.7143 -0.2280
10991TIP3    H254465   0.740   2.539  16.567 -0.3525  1.1044 -0.3103
10992TIP3   OH254466   3.648   6.638   1.905  0.1709  0.0232 -0.0381
10992TIP3    H154467   3.643   6.574   1.977 -1.2564 -1.5368 -1.4543
10992TIP3    H254468   3.589   6.603   1.838  2.1361  0.9442 -2.3620
10993TIP3   OH254469   1.700   5.878   4.589  0.2861 -0.3521  0.7900
10993TIP3    H154470   1.677   5.802   4.534  0.3059  1.0832 -1.3121
10993TIP3    H254471   1.741   5.939   4.529  2.4854  0.4078  2.9211
10994TIP3   OH254472   1.008   6.572  11.494  0.3609  0.3089 -0.4543
10994TIP3    H154473   0.978   6.483  11.472 -0.9602  0.0832  1.8881
10994TIP3    H254474   1.075   6.591  11.429  0.5434 -2.3272 -1.1785
10995TIP3   OH254475   0.189   4.129   4.961 -0.2218  0.2185 -0.2481
10995TIP3    H154476   0.238   4.050   4.940 -1.6130 -0.3644 -1.4726
10995TIP3    H254477   0.179   4.127   5.056  2.3323  0.5404  0.0963
10996TIP3   OH254478   5.111   4.029   4.510 -0.3374 -0.1180  0.0092
10996TIP3    H154479   5.041   4.013   4.573 -2.3399  0.4885 -1.9252
10996TIP3    H254480   5.099   3.963   4.442  0.4970  0.4571 -0.7291
10997TIP3   OH254481   5.509   5.692  11.296  0.1125  0.2341 -1.0477
10997TIP3    H154482   5.573   5.730  11.236  1.8438 -0.2703  0.4239
10997TIP3    H254483   5.538   5.602  11.309 -0.2311  0.3272  0.5441
10998TIP3   OH254484   4.689   2.401  15.140 -0.2052 -0.2705  0.3657
10998TIP3    H154485   4.647   2.459  15.076 -1.2635 -3.6981 -2.3292
10998TIP3    H254486   4.773   2.377  15.100 -0.4755 -1.7573  0.6260
10999TIP3   OH254487   4.263   2.373  11.000  0.3920 -0.2145 -0.1035
10999TIP3    H154488   4.348   2.399  10.965  0.4112  0.1762  0.2215
10999TIP3    H254489   4.230   2.452  11.043  0.0154 -0.4600  0.0600
11000TIP3   OH254490   1.891   0.276  16.555  0.0842  0.2160 -0.5233
11000TIP3    H154491   1.886   0.187  16.519 -2.4397  0.0246  0.1338
11000TIP3    H254492   1.967   0.315  16.511  0.2106 -1.6811 -2.1340
11001TIP3   OH254493   4.958   3.243  13.903  0.2405 -0.1820  0.2885
11001TIP3    H154494   5.016   3.186  13.952  1.0369  0.8043  0.5327
11001TIP3    H254495   4.951   3.322  13.957 -0.5873  0.0874 -0.1818
11002TIP3   OH254496   5.727   6.356   1.370  0.3434 -0.4044  0.2469
11002TIP3    H154497   5.782   6.321   1.440  0.7976 -1.4040 -0.5881
11002TIP3    H254498   5.788   6.399   1.311  0.5450 -2.9867 -1.5820
11003TIP3   OH254499   1.837   3.247  16.540 -0.1394 -0.1974  0.2112
11003TIP3    H154500   1.905   3.206  16.488 -0.2941  1.1079 -1.0891
11003TIP3    H254501   1.762   3.253  16.481 -0.4031  1.0907  0.6476
11004TIP3   OH254502   5.874   2.286  14.595  0.1689  0.2334  0.2638
11004TIP3    H154503   5.969   2.294  14.604  0.3583 -1.2895 -0.2389
11004TIP3    H254504   5.839   2.352  14.656  1.5317  1.3737 -0.1326
11005TIP3   OH254505   2.601   3.779  11.652  0.1806  0.6579 -0.2004
11005TIP3    H154506   2.632   3.708  11.596 -1.0699 -1.9316  2.1140
11005TIP3    H254507   2.513   3.798  11.621  1.0609  2.4559 -1.8191
11006TIP3   OH254508   4.475   3.950  12.439  0.2667 -0.2339  0.2882
11006TIP3    H154509   4.542   3.976  12.503 -1.4342  1.3976  1.4996
11006TIP3    H254510   4.452   3.861  12.464  0.2987  0.0534  1.3893
11007TIP3   OH254511   2.006   6.594   5.326 -0.6651 -0.3523  0.1411
11007TIP3    H154512   2.051   6.646   5.393  1.2655 -1.7248 -0.0044
11007TIP3    H254513   2.002   6.651   5.250  0.4605 -0.0077  0.3146
11008TIP3   OH254514   2.383   4.256  10.546  0.2977 -0.6686  0.1410
11008TIP3    H154515   2.471   4.262  10.581  0.7497 -0.1331 -1.0122
11008TIP3    H254516   2.367   4.163  10.534  0.9156 -0.7371 -0.1482
11009TIP3   OH254517   2.589   2.505   0.217  0.7537  0.1031 -0.0298
11009TIP3    H154518   2.609   2.483   0.126  1.8192  1.0705 -0.0474
11009TIP3    H254519   2.657   2.567   0.242 -0.3280  0.9036  1.0055
11010TIP3   OH254520   4.751   4.888  13.781  0.5334  0.3585 -0.2741
11010TIP3    H154521   4.709   4.967  13.815 -1.0899 -1.1413  1.4383
11010TIP3    H254522   4.826   4.875  13.840  1.3435  1.0740 -1.1166
11011TIP3   OH254523   1.145   1.651  13.219  0.4266 -0.6180  0.3117
11011TIP3    H154524   1.183   1.588  13.280  1.5222 -0.1987  0.0769
11011TIP3    H254525   1.099   1.596  13.154  1.0434 -1.1587  0.3220
11012TIP3   OH254526   3.938   1.563   2.619 -0.0673  0.5211 -0.4041
11012TIP3    H154527   4.032   1.583   2.618  0.9381 -3.3346 -1.8956
11012TIP3    H254528   3.914   1.557   2.526 -1.3278 -0.1829 -0.0544
11013TIP3   OH254529   4.312   1.896   2.739 -0.1634  0.4026  0.0078
11013TIP3    H154530   4.328   1.989   2.758 -0.4419  0.8043 -1.5349
11013TIP3    H254531   4.367   1.849   2.800 -0.1347  1.5840  0.9346
11014TIP3   OH254532   1.344   0.386  15.531  0.7727 -0.0139 -0.7141
11014TIP3    H154533   1.305   0.327  15.467  1.9367 -1.0356 -0.5437
11014TIP3    H254534   1.279   0.392  15.601  0.2462 -0.3586 -1.1669
11015TIP3   OH254535   0.393   2.381  11.502 -0.1902 -0.5686  0.6099
11015TIP3    H154536   0.443   2.336  11.434 -1.0013 -1.0497  0.3110
11015TIP3    H254537   0.402   2.325  11.579 -1.1929 -1.2713  0.2396
11016TIP3   OH254538   6.286   5.238   4.547  1.0440  0.4394 -0.1484
11016TIP3    H154539   6.348   5.267   4.615 -1.9083  1.2525  2.4102
11016TIP3    H254540   6.244   5.319   4.518  0.2806 -0.2050 -0.8729
11017TIP3   OH254541   4.749   4.697  16.967  0.2826 -0.2352 -0.2790
11017TIP3    H154542   4.736   4.718  16.874  0.1318 -0.3210 -0.2790
11017TIP3    H254543   4.665   4.719  17.008  0.6390  0.6530 -0.0064
11018TIP3   OH254544   3.984   0.848  13.528 -0.3683 -0.2083 -0.4434
11018TIP3    H154545   4.038   0.922  13.555  0.9794 -1.1429 -0.4763
11018TIP3    H254546   3.944   0.816  13.609 -0.6340  0.2889 -0.3732
11019TIP3   OH254547   5.816   6.501   2.858  0.0836  0.2858  0.1858
11019TIP3    H154548   5.817   6.461   2.945  0.4624 -0.2869 -0.0715
11019TIP3    H254549   5.879   6.573   2.863  0.4292 -0.0172  0.2700
11020TIP3   OH254550   2.694   2.415  11.144 -0.0490  0.0463 -0.1244
11020TIP3    H154551   2.660   2.373  11.223  0.1981 -0.9019 -0.4981
11020TIP3    H254552   2.656   2.363  11.072 -1.0289  1.4633 -0.6680
11021TIP3   OH254553   5.767   0.081  11.341 -0.1400 -0.6431  0.7074
11021TIP3    H154554   5.729   0.161  11.306 -1.2164 -0.5225  2.0366
11021TIP3    H254555   5.854   0.106  11.371  0.5356 -0.6063 -1.2086
11022TIP3   OH254556   0.027   4.712  14.331  0.6635  0.1070 -0.1818
11022TIP3    H154557   0.001   4.792  14.378 -0.0231 -0.8097  1.0427
11022TIP3    H254558   0.118   4.697  14.358  0.0254 -0.8666  1.5804
11023TIP3   OH254559   4.885   3.167   2.607  0.2800 -0.2636  0.4944
11023TIP3    H154560   4.821   3.098   2.590  0.2812 -0.0649 -0.3461
11023TIP3    H254561   4.848   3.244   2.563 -0.1812  0.5214  2.1666
11024TIP3   OH254562   6.706   4.683  16.474  0.0392 -0.1375 -0.0254
11024TIP3    H154563   6.790   4.667  16.517  0.7271 -0.9301 -1.5484
11024TIP3    H254564   6.651   4.610  16.502  0.8537 -1.3105 -1.2903
11025TIP3   OH254565   5.646   1.919   3.416 -0.2030 -0.2749 -0.3539
11025TIP3    H154566   5.576   1.854   3.411  1.2218 -1.7973 -1.8311
11025TIP3    H254567   5.630   1.977   3.341  1.1972 -1.8681 -1.9759
11026TIP3   OH254568   1.119   0.087  11.350 -0.3009 -0.1142  0.6267
11026TIP3    H154569   1.143   0.031  11.276  1.3168 -0.5933  1.4661
11026TIP3    H254570   1.152   0.041  11.427  1.2568  2.0376  1.3289
11027TIP3   OH254571   6.175   1.412  13.959  0.5100  0.2478  0.4145
11027TIP3    H154572   6.182   1.503  13.990  2.7374 -0.5578  2.6410
11027TIP3    H254573   6.203   1.359  14.034  0.5054 -2.2153 -1.2183
11028TIP3   OH254574   0.690   0.074  11.691  0.3271 -0.3155  0.1847
11028TIP3    H154575   0.633  -0.003  11.688  1.0300 -0.8259 -1.4137
11028TIP3    H254576   0.779   0.038  11.690  0.6909  0.4860 -2.2320
11029TIP3   OH254577   3.783   2.441  16.944 -0.0431  0.0156  0.3957
11029TIP3    H154578   3.866   2.481  16.918 -0.4373  0.1996 -0.6242
11029TIP3    H254579   3.808   2.363  16.994  0.7401 -0.1217 -0.1941
11030TIP3   OH254580   6.767   5.682   5.712 -0.0753  0.0020  0.3997
11030TIP3    H154581   6.755   5.668   5.618 -1.5335 -2.7263  0.8651
11030TIP3    H254582   6.848   5.732   5.719 -0.5481  1.3298 -2.3198
11031TIP3   OH254583   1.082   2.977   4.323  0.3462  0.4373  0.0770
11031TIP3    H154584   1.050   3.067   4.313  0.2207  0.6398  2.0332
11031TIP3    H254585   1.011   2.931   4.366  0.9660 -0.2416  0.3862
11032TIP3   OH254586   3.425   1.707  15.051  0.1525 -0.0727 -0.0703
11032TIP3    H154587   3.476   1.633  15.082  0.3410 -0.4973 -1.3647
11032TIP3    H254588   3.466   1.783  15.092  1.1654 -0.5048 -0.2532
11033TIP3   OH254589   3.102   0.417  13.647  0.1675  0.2037  0.0754
11033TIP3    H154590   3.081   0.413  13.741  0.3434 -0.1085  0.1023
11033TIP3    H254591   3.120   0.326  13.623  3.2689  0.6163  0.4395
11034TIP3   OH254592   0.549   4.719   5.637  0.0712 -0.6207 -0.3080
11034TIP3    H154593   0.584   4.636   5.604  0.0741 -0.9343  0.4627
11034TIP3    H254594   0.454   4.708   5.633  0.0683 -0.9311  0.4290
11035TIP3   OH254595   3.030   1.257   5.403 -0.0890  0.6206 -0.4602
11035TIP3    H154596   2.994   1.345   5.414 -2.3687 -0.2741 -0.1791
11035TIP3    H254597   3.010   1.212   5.485 -1.7288 -1.0390 -1.6999
11036TIP3   OH254598   6.525   0.477   5.134 -0.3855 -0.2365  0.0198
11036TIP3    H154599   6.563   0.389   5.129 -0.1520 -0.3953  2.8912
11036TIP3    H254600   6.596   0.533   5.164 -0.4912  1.0600 -1.9156
11037TIP3   OH254601   6.226   2.404   4.923 -0.3394 -0.0456 -0.3760
11037TIP3    H154602   6.131   2.388   4.930 -0.6306  1.3535 -0.7927
11037TIP3    H254603   6.234   2.464   4.849  0.9324 -0.5148 -0.6356
11038TIP3   OH254604   4.520   6.454   0.909  0.1340  0.8518  0.2037
11038TIP3    H154605   4.554   6.392   0.974 -0.2349 -0.0960 -0.4784
11038TIP3    H254606   4.425   6.437   0.908  0.1725  0.6361 -0.7854
11039TIP3   OH254607   1.239   1.204   1.875  0.1098 -0.3109 -0.3832
11039TIP3    H154608   1.295   1.161   1.940  1.8548  3.2546  0.7699
11039TIP3    H254609   1.293   1.209   1.796 -0.8843 -1.9879 -1.2136
11040TIP3   OH254610   4.998   0.623   6.421  0.2563 -0.0701 -0.1241
11040TIP3    H154611   5.091   0.647   6.424  0.1667  0.1874  0.9609
11040TIP3    H254612   4.953   0.703   6.394  0.4547 -0.5590 -2.0181
11041TIP3   OH254613   6.026   0.240   1.498 -0.1306  0.1143  0.0239
11041TIP3    H154614   5.931   0.233   1.504 -0.1105 -0.4482 -0.2352
11041TIP3    H254615   6.058   0.213   1.584 -0.1623 -0.7914 -0.2389
11042TIP3   OH254616   3.389   0.993  12.635  0.2426 -0.2233 -0.0176
11042TIP3    H154617   3.294   0.981  12.636 -0.1692  2.4200  0.8805
11042TIP3    H254618   3.413   1.000  12.728  0.9760  1.0891 -0.2777
11043TIP3   OH254619   4.672   3.224  15.606 -0.1912 -0.4300 -0.0417
11043TIP3    H154620   4.689   3.266  15.522 -1.3455  1.4197  0.5949
11043TIP3    H254621   4.644   3.295  15.664  0.5688 -1.6510  1.9314
11044TIP3   OH254622   4.684   6.834  11.866  0.0012 -0.8745 -0.0801
11044TIP3    H154623   4.654   6.817  11.777  1.6776  0.1967 -0.8939
11044TIP3    H254624   4.779   6.831  11.861  0.3517  2.9438  0.7837
11045TIP3   OH254625   6.502   1.255   3.523  0.4619  0.4093  0.2306
11045TIP3    H154626   6.506   1.204   3.604 -1.9426  1.1101  0.8664
11045TIP3    H254627   6.593   1.283   3.509  1.0958 -0.4447  2.2126
11046TIP3   OH254628   2.109   0.181  17.141 -0.1960  0.5742 -0.4675
11046TIP3    H154629   2.020   0.155  17.115  0.2559 -0.8261 -0.7077
11046TIP3    H254630   2.095   0.246  17.210 -1.4030  1.7109 -1.7082
11047TIP3   OH254631   5.816   3.678   3.704 -0.4329  0.7061 -0.4232
11047TIP3    H154632   5.879   3.676   3.776  0.0074 -0.2817 -0.8074
11047TIP3    H254633   5.871   3.682   3.625 -0.8153 -0.5961 -0.7793
11048TIP3   OH254634   5.045   2.265  16.751 -0.0051  0.1020 -1.0166
11048TIP3    H154635   5.069   2.184  16.795  0.8101  2.2473  2.9810
11048TIP3    H254636   5.115   2.280  16.687  1.0056 -1.2424 -0.2713
11049TIP3   OH254637   0.267   4.726   5.473 -0.1853  0.0378 -0.5923
11049TIP3    H154638   0.180   4.714   5.511  0.6314 -0.6634  1.1638
11049TIP3    H254639   0.271   4.819   5.451 -0.0802  0.9751  2.8522
11050TIP3   OH254640   2.335   3.395  10.420  0.0278  0.5085 -0.2141
11050TIP3    H154641   2.244   3.425  10.415 -0.6412 -1.0123  1.6242
11050TIP3    H254642   2.332   3.322  10.481  2.3065 -0.3934 -1.1027
11051TIP3   OH254643   6.136   2.553  13.774 -0.2379 -0.2983 -0.0046
11051TIP3    H154644   6.207   2.498  13.808 -0.1391  0.7709  1.6204
11051TIP3    H254645   6.065   2.492  13.755  0.4464 -1.1681  0.1809
11052TIP3   OH254646   0.790   5.017   5.339 -0.5573 -0.0954 -0.0635
11052TIP3    H154647   0.812   4.953   5.407 -0.3089 -0.5854 -0.5966
11052TIP3    H254648   0.758   5.093   5.388  1.1659  0.1966  0.7004
11053TIP3   OH254649   3.410   1.068  15.658 -0.0465 -0.1915 -0.1750
11053TIP3    H154650   3.356   1.075  15.579  2.1023  0.8267 -1.6648
11053TIP3    H254651   3.422   1.158  15.687 -0.5687 -0.5370  1.1924
11054TIP3   OH254652   4.293   0.114  13.178  0.1940 -0.2367  0.1626
11054TIP3    H154653   4.243   0.156  13.248  0.3261 -1.3313  0.9432
11054TIP3    H254654   4.277   0.168  13.101 -3.6266 -1.4156 -0.0852
11055TIP3   OH254655   2.285   1.360   0.630 -0.7747 -0.4997 -0.5983
11055TIP3    H154656   2.298   1.404   0.546 -0.0074  1.3321  0.4470
11055TIP3    H254657   2.274   1.267   0.606 -1.9740  0.1280 -2.8201
11056TIP3   OH254658   0.984   3.405   4.884  0.0327 -0.0030  0.1581
11056TIP3    H154659   0.948   3.351   4.814 -1.0702  1.6759 -0.6366
11056TIP3    H254660   1.059   3.448   4.845 -1.1579  1.6908 -0.3652
11057TIP3   OH254661   4.795   1.948  16.203  0.1932  0.3637 -0.4904
11057TIP3    H154662   4.761   1.916  16.120 -0.8771 -1.2700  0.5143
11057TIP3    H254663   4.871   1.894  16.221 -0.8979 -0.8771  0.6277
11058TIP3   OH254664   4.124   3.954   4.108  0.6664 -0.3776  0.0055
11058TIP3    H154665   4.032   3.957   4.136  0.2651  0.5732 -1.3244
11058TIP3    H254666   4.172   3.996   4.180  0.0044 -0.4148  0.4805
11059TIP3   OH254667   0.047   4.243   0.384 -0.7026 -0.4918 -0.4943
11059TIP3    H154668  -0.036   4.200   0.364 -1.1145 -0.7047  1.4419
11059TIP3    H254669   0.061   4.226   0.477  1.4861 -0.3844 -0.7525
11060TIP3   OH254670   1.154   2.493   3.196  0.9296 -0.2454 -0.6127
11060TIP3    H154671   1.154   2.398   3.190 -2.4583 -0.4839  0.8773
11060TIP3    H254672   1.061   2.518   3.196  1.4967  2.7305  2.5424
11061TIP3   OH254673   1.064   3.398   5.503 -0.7512 -0.1382 -0.1169
11061TIP3    H154674   1.117   3.465   5.459 -1.6946  0.1739 -0.7999
11061TIP3    H254675   1.067   3.322   5.445  1.7053 -1.3660  1.4269
11062TIP3   OH254676   0.655   4.429  13.990 -0.2587  0.9317 -0.2586
11062TIP3    H154677   0.616   4.374  14.057 -0.9411  0.3334 -1.1274
11062TIP3    H254678   0.717   4.373  13.945 -1.6227  0.5571 -1.7496
11063TIP3   OH254679   0.803   4.319   2.300 -0.4719  0.1090  0.5690
11063TIP3    H154680   0.772   4.255   2.237  0.5148 -0.7523  0.9149
11063TIP3    H254681   0.898   4.304   2.304 -0.1534  1.8679  0.3666
11064TIP3   OH254682   2.477   1.219   1.670 -0.5225  0.2132  0.1294
11064TIP3    H154683   2.522   1.304   1.668  0.0836 -0.1101 -1.1022
11064TIP3    H254684   2.548   1.155   1.682 -0.8000 -0.2082 -0.4329
11065TIP3   OH254685   2.443   0.347   3.970 -0.3119 -0.0935 -0.4457
11065TIP3    H154686   2.363   0.294   3.970  1.0252 -2.3178  1.0890
11065TIP3    H254687   2.488   0.323   3.890 -1.2015  1.3385 -1.4318
11066TIP3   OH254688   6.078   4.594  16.389  0.1532 -0.7969  0.3542
11066TIP3    H154689   6.030   4.626  16.312 -1.0296 -0.5602  1.1629
11066TIP3    H254690   6.057   4.658  16.458 -0.3415 -2.0239  1.3744
11067TIP3   OH254691   2.806   2.224   0.159 -0.1436 -0.0761  0.1695
11067TIP3    H154692   2.757   2.283   0.101 -1.2724 -0.1114  1.0463
11067TIP3    H254693   2.864   2.282   0.208  0.0317  0.0867 -0.2247
11068TIP3   OH254694   0.581   0.762  15.703  0.0507  0.4006  0.0227
11068TIP3    H154695   0.527   0.702  15.651  0.5696 -0.5025  0.5082
11068TIP3    H254696   0.670   0.749  15.671  0.1119  1.2388 -0.1685
11069TIP3   OH254697   3.752   4.558  16.818  0.9252 -0.7144  0.0514
11069TIP3    H154698   3.710   4.598  16.742 -0.9937 -2.2383  0.2338
11069TIP3    H254699   3.827   4.510  16.783  1.4829  0.5418 -0.5283
11070TIP3   OH254700   6.249   2.360   0.296 -0.8955  0.2570 -0.2254
11070TIP3    H154701   6.212   2.389   0.380 -0.2430 -0.9911  0.5276
11070TIP3    H254702   6.183   2.302   0.259 -2.1583  2.4775 -1.6873
11071TIP3   OH254703   2.303   1.404  11.353  0.6419 -0.8378  0.3332
11071TIP3    H154704   2.311   1.474  11.418  0.6446 -1.2682  0.8129
11071TIP3    H254705   2.216   1.417  11.314  0.3096 -1.0230  0.9842
11072TIP3   OH254706   5.019   1.950   6.184 -0.5368 -0.0795  0.1511
11072TIP3    H154707   4.949   1.942   6.249 -0.0732 -1.2064  0.5268
11072TIP3    H254708   5.098   1.967   6.235 -0.2820 -0.3069 -0.1625
11073TIP3   OH254709   5.330   0.252   3.666  0.2890  0.0087  0.6361
11073TIP3    H154710   5.405   0.207   3.703  1.7208  0.5808 -1.3728
11073TIP3    H254711   5.346   0.251   3.571 -1.3449  1.7002  0.2753
11074TIP3   OH254712   2.269   1.730  17.007  0.3965  0.0562 -0.5343
11074TIP3    H154713   2.317   1.747  16.926  0.9746  0.2553 -0.1530
11074TIP3    H254714   2.332   1.747  17.077  0.5536 -2.1401 -0.0742
11075TIP3   OH254715   4.259   5.901   6.825 -0.0708 -0.1859  0.3090
11075TIP3    H154716   4.231   5.867   6.910 -0.9869 -0.4965 -0.1046
11075TIP3    H254717   4.320   5.835   6.792  1.7908  0.8345  1.5295
11076TIP3   OH254718   0.051   1.927   1.208 -0.1187  0.1655  0.4679
11076TIP3    H154719  -0.005   1.853   1.186 -0.2896 -0.0203  1.4630
11076TIP3    H254720   0.049   1.984   1.131  0.9284 -1.3973 -0.7853
11077TIP3   OH254721   2.199   4.370   0.726 -0.4669  0.3951 -0.1899
11077TIP3    H154722   2.125   4.309   0.719  0.0896 -0.3638  0.3946
11077TIP3    H254723   2.207   4.407   0.638  1.5023 -3.1263 -1.7343
11078TIP3   OH254724   1.354   1.071   3.340  0.2321 -0.9668 -1.0337
11078TIP3    H154725   1.336   1.031   3.425  0.3646 -0.9223 -0.9842
11078TIP3    H254726   1.287   1.139   3.331  0.8659 -0.2571 -0.4824
11079TIP3   OH254727   6.390   0.511   4.101  0.2753 -0.4295  0.3341
11079TIP3    H154728   6.360   0.601   4.086  0.3321 -0.2540  1.2128
11079TIP3    H254729   6.462   0.521   4.163 -0.2334 -1.1472  1.0543
11080TIP3   OH254730   4.940   2.434   0.210 -0.5855  0.3754  0.1108
11080TIP3    H154731   4.883   2.506   0.237  1.7072  2.3499  0.0155
11080TIP3    H254732   4.971   2.396   0.293  0.9108  1.8387  0.2774
11081TIP3   OH254733   2.225   0.070   5.193 -0.0858 -0.5908 -0.5068
11081TIP3    H154734   2.296   0.007   5.197  0.5350 -0.0538 -2.2017
11081TIP3    H254735   2.150   0.020   5.161  0.1073 -0.7104 -0.7749
11082TIP3   OH254736   1.524   0.739   4.149 -0.1038  0.5235 -0.4463
11082TIP3    H154737   1.498   0.811   4.207  1.6121  0.4933  0.4197
11082TIP3    H254738   1.616   0.757   4.130  0.5983 -1.8430  0.4327
11083TIP3   OH254739   5.764   0.003   0.536 -0.5412 -0.5082  0.1522
11083TIP3    H154740   5.759   0.024   0.443 -1.9702 -0.3872  0.2281
11083TIP3    H254741   5.676  -0.028   0.558 -0.4534  0.2021  1.6326
11084TIP3   OH254742   1.839   1.772   5.655  0.5429 -0.2468 -0.1756
11084TIP3    H154743   1.745   1.753   5.648  0.4557  0.1801 -0.1618
11084TIP3    H254744   1.880   1.685   5.657  0.3534 -0.4778 -2.8042
11085TIP3   OH254745   0.876   3.050  12.373  0.4691  0.1577  0.1080
11085TIP3    H154746   0.918   3.089  12.449  2.2222  0.7932 -1.1458
11085TIP3    H254747   0.901   2.958  12.376 -0.8031 -0.1963  1.1353
11086TIP3   OH254748   2.866   1.913  12.668 -0.0342 -0.1834 -0.6266
11086TIP3    H154749   2.891   1.967  12.743 -0.9345 -0.9570  0.2572
11086TIP3    H254750   2.771   1.920  12.663 -0.0148 -0.3960 -1.5166
11087TIP3   OH254751   0.633   4.087   1.615 -0.2596  0.8581  0.3131
11087TIP3    H154752   0.587   4.024   1.560  2.4204 -0.1699 -0.8993
11087TIP3    H254753   0.700   4.125   1.558  0.2209  2.5493  1.8880
11088TIP3   OH254754   1.184   5.216  14.089 -0.0240 -0.6505 -0.4200
11088TIP3    H154755   1.226   5.130  14.083  2.1197  0.2984  0.0295
11088TIP3    H254756   1.095   5.201  14.058 -0.6117 -3.6266  2.1329
11089TIP3   OH254757   0.888   0.874  17.185 -0.1927 -0.5534 -0.1352
11089TIP3    H154758   0.921   0.914  17.105 -0.2394  0.2036  0.2181
11089TIP3    H254759   0.820   0.813  17.155  0.3835 -0.9109 -0.7308
11090TIP3   OH254760   5.468   5.940   1.507 -0.3941 -0.0568  0.0510
11090TIP3    H154761   5.528   5.964   1.436  0.9615 -2.4383  0.2455
11090TIP3    H254762   5.459   5.845   1.498 -1.3559 -0.2146  2.1887
11091TIP3   OH254763   4.169   4.196   2.011  0.5698  0.7769 -0.0262
11091TIP3    H154764   4.237   4.132   2.036  0.4179  0.5084 -0.2928
11091TIP3    H254765   4.210   4.249   1.943  0.6613  0.8969  0.1225
11092TIP3   OH254766   4.487   3.293   5.568  0.0706  0.3303 -0.0061
11092TIP3    H154767   4.463   3.291   5.660  0.5141  1.6522  0.1667
11092TIP3    H254768   4.462   3.207   5.534 -0.7463  0.0774  1.1769
11093TIP3   OH254769   4.150   3.543   4.101 -0.2256 -0.3115 -0.2498
11093TIP3    H154770   4.163   3.531   4.195 -2.2040  1.3336  0.2827
11093TIP3    H254771   4.238   3.560   4.067  0.2255  1.9726  1.7826
11094TIP3   OH254772   0.207   4.066   5.886 -0.4640  0.1447  0.1470
11094TIP3    H154773   0.113   4.050   5.878 -1.0790  3.2619 -0.2444
11094TIP3    H254774   0.220   4.087   5.979 -0.1007 -0.4001  0.2273
11095TIP3   OH254775   3.590   3.326   4.692  0.2263  0.1982  0.7154
11095TIP3    H154776   3.678   3.307   4.725  0.5871  1.4907  0.5448
11095TIP3    H254777   3.532   3.309   4.766  0.7470  0.5009  1.1924
11096TIP3   OH254778   2.163   1.858   5.420 -0.0979 -0.0853 -0.5711
11096TIP3    H154779   2.173   1.953   5.425  0.8691 -0.1582  4.5491
11096TIP3    H254780   2.250   1.826   5.396  0.3776  0.3190  0.5552
11097TIP3   OH254781   4.432   5.050  12.113  0.1634  0.4947  0.5823
11097TIP3    H154782   4.499   5.113  12.141  0.8738 -0.7105  1.7373
11097TIP3    H254783   4.368   5.102  12.065  1.5796  1.8041  0.0437
11098TIP3   OH254784   1.499   2.814   4.365 -0.1630  0.5476 -0.0882
11098TIP3    H154785   1.462   2.819   4.276 -0.9515  2.0598  0.3018
11098TIP3    H254786   1.428   2.843   4.422  0.9276  1.3725  0.8789
11099TIP3   OH254787   4.847   5.299   5.760 -0.8911 -0.6269 -0.5852
11099TIP3    H154788   4.899   5.377   5.739 -2.3115 -0.1204 -2.5168
11099TIP3    H254789   4.858   5.243   5.683 -1.2834 -1.5868  0.0446
11100TIP3   OH254790   1.263   6.686  16.342 -0.0285  0.4781  0.0772
11100TIP3    H154791   1.340   6.693  16.285  0.2777  0.4281  0.4784
11100TIP3    H254792   1.295   6.639  16.419 -0.2268  1.2971  0.6657
11101TIP3   OH254793   6.449   0.619  11.395  0.3149 -0.2482  0.3298
11101TIP3    H154794   6.471   0.712  11.384  0.8107 -0.3699  0.2676
11101TIP3    H254795   6.424   0.611  11.487 -1.3740  0.2739 -0.0599
11102TIP3   OH254796   0.051   2.559   0.117 -0.1564 -0.3681 -0.2428
11102TIP3    H154797  -0.026   2.542   0.171  0.2109 -1.1550  0.0550
11102TIP3    H254798   0.024   2.627   0.056 -1.4629 -1.4770 -0.9480
11103TIP3   OH254799   4.378   4.595   5.626 -0.0907 -0.5452  0.4777
11103TIP3    H154800   4.417   4.659   5.684 -0.4767 -1.1873  1.4730
11103TIP3    H254801   4.342   4.646   5.554  0.2151  0.2840  0.9016
11104TIP3   OH254802   5.430   2.280   5.590  0.9054  0.0514 -0.0280
11104TIP3    H154803   5.494   2.337   5.547  1.3380 -0.1740  0.3008
11104TIP3    H254804   5.370   2.340   5.635  2.7332  0.2925  2.3213
11105TIP3   OH254805   2.140   2.634  10.331  0.4177  0.9741  0.0451
11105TIP3    H154806   2.210   2.577  10.300  0.5992  1.8478 -1.2127
11105TIP3    H254807   2.067   2.616  10.272 -0.2329  0.5344  0.9516
11106TIP3   OH254808   3.916   4.062  11.379 -0.4370 -0.3847  0.5091
11106TIP3    H154809   3.998   4.015  11.393 -0.3088 -0.2119  0.3458
11106TIP3    H254810   3.856   4.025  11.444 -0.2970 -0.6704  0.4784
11107TIP3   OH254811   3.312   2.745   1.457 -0.5198  0.5423 -0.0189
11107TIP3    H154812   3.382   2.759   1.394 -2.6011  1.4950 -2.3065
11107TIP3    H254813   3.322   2.816   1.521 -0.2692  1.5708 -1.1670
11108TIP3   OH254814   5.765   1.932   0.773  0.0652  0.2033 -0.8188
11108TIP3    H154815   5.767   1.919   0.868 -0.5172 -0.3070 -0.8734
11108TIP3    H254816   5.816   2.011   0.759 -0.0336  0.4092 -0.0567
11109TIP3   OH254817   6.798   6.642  16.468 -0.0387 -0.4594 -0.3987
11109TIP3    H154818   6.890   6.616  16.466  0.0405 -0.2028 -0.2137
11109TIP3    H254819   6.782   6.666  16.559  0.6876  2.8690 -1.0083
11110TIP3   OH254820   3.577   1.897  15.992 -0.2350  0.3283 -0.2099
11110TIP3    H154821   3.576   1.801  15.995  0.4624  0.3163 -0.1695
11110TIP3    H254822   3.485   1.922  16.000 -0.4151 -0.3354 -0.1216
11111TIP3   OH254823   0.354   0.699  11.020 -0.5134  0.0672 -0.2164
11111TIP3    H154824   0.439   0.722  10.980 -1.0890  1.1394 -0.8844
11111TIP3    H254825   0.306   0.781  11.021 -0.7761 -0.0588  2.1732
11112TIP3   OH254826   6.599   4.587   3.408  0.1835 -0.6636  0.0226
11112TIP3    H154827   6.641   4.661   3.365  0.5849 -0.0691  1.3800
11112TIP3    H254828   6.520   4.623   3.446 -1.4532 -1.6970 -2.1746
11113TIP3   OH254829   6.066   2.351   1.781 -0.6571 -0.3859  0.0825
11113TIP3    H154830   6.116   2.293   1.838 -1.9823 -0.2121  1.4890
11113TIP3    H254831   6.067   2.308   1.695  0.5403 -1.1505  0.4588
11114TIP3   OH254832   1.312   5.955  12.939 -0.1078 -0.0919  0.7159
11114TIP3    H154833   1.350   5.969  12.852  2.0410  0.6405  1.7037
11114TIP3    H254834   1.326   5.862  12.957  0.2723 -0.0488  0.6438
11115TIP3   OH254835   0.303   4.911  15.811 -0.3985 -0.2852 -0.0009
11115TIP3    H154836   0.289   4.847  15.881  0.5592  0.4250  0.8834
11115TIP3    H254837   0.218   4.953  15.799 -0.3090  0.4136  1.6104
11116TIP3   OH254838   5.326   3.799   3.091  0.0238 -1.1017 -0.0974
11116TIP3    H154839   5.300   3.718   3.046  3.1836 -1.8578 -0.8226
11116TIP3    H254840   5.310   3.868   3.028 -0.9802 -1.3944 -0.1730
11117TIP3   OH254841   0.285   1.742   4.547 -0.7621  0.1336  0.3310
11117TIP3    H154842   0.286   1.814   4.610 -1.9077  0.2493  0.2399
11117TIP3    H254843   0.275   1.663   4.601 -0.6785  0.1434  0.3605
11118TIP3   OH254844   1.106   0.596   4.808  0.4402 -0.3740  0.8108
11118TIP3    H154845   1.124   0.543   4.885 -0.1456 -0.4477  0.9057
11118TIP3    H254846   1.128   0.540   4.734  1.0613 -0.2816  0.9238
11119TIP3   OH254847   3.956   5.190  12.018 -0.0046  0.5379  0.0679
11119TIP3    H154848   3.902   5.242  11.957 -2.4510  0.0555  1.6972
11119TIP3    H254849   3.973   5.250  12.091  1.3708  0.5271 -0.2084
11120TIP3   OH254850   4.479   1.391   4.367  0.2368 -0.0502  0.2344
11120TIP3    H154851   4.461   1.326   4.435 -2.0014 -0.2342 -0.4807
11120TIP3    H254852   4.393   1.423   4.341  1.2322  2.6933  0.0315
11121TIP3   OH254853   5.516   4.873   3.207 -0.5047 -0.4413 -0.7652
11121TIP3    H154854   5.590   4.813   3.194  0.6128  0.7262 -0.0047
11121TIP3    H254855   5.479   4.884   3.119 -0.4439 -1.8504 -0.9975
11122TIP3   OH254856   3.509   1.858   2.307  0.2145  0.2432  0.2624
11122TIP3    H154857   3.523   1.849   2.212  0.4788 -0.9442  0.4027
11122TIP3    H254858   3.524   1.770   2.342 -2.3760  0.0449  1.1034
11123TIP3   OH254859   0.794   5.117  16.834 -0.1074 -0.5452 -0.1936
11123TIP3    H154860   0.776   5.128  16.927 -1.9438  0.8884 -0.6723
11123TIP3    H254861   0.881   5.154  16.821  0.0816 -0.5892  0.9000
11124TIP3   OH254862   0.780   4.605   1.635 -0.3757  0.5924 -0.2598
11124TIP3    H154863   0.735   4.557   1.565 -0.9342  1.6412 -0.6346
11124TIP3    H254864   0.872   4.605   1.610 -0.2599 -0.8210  0.0693
11125TIP3   OH254865   2.508   2.652  16.958 -0.1338  0.4661 -1.2894
11125TIP3    H154866   2.446   2.620  16.892 -1.6597  2.4408 -0.8870
11125TIP3    H254867   2.455   2.665  17.036  1.0129  1.2140 -0.6061
11126TIP3   OH254868   5.598   0.195   0.930 -0.4468  0.0403  0.1194
11126TIP3    H154869   5.534   0.206   0.861 -0.5233 -1.9233 -0.1673
11126TIP3    H254870   5.658   0.269   0.919  0.2604 -0.8161 -2.8628
11127TIP3   OH254871   1.627   0.224  12.740 -0.0027 -0.1863 -0.0982
11127TIP3    H154872   1.715   0.252  12.715  0.7688 -0.4138  2.1430
11127TIP3    H254873   1.572   0.300  12.719  0.4846 -0.4034 -2.4699
11128TIP3   OH254874   1.241   2.066   5.559  0.9053 -0.3096  0.3500
11128TIP3    H154875   1.259   2.067   5.465  0.1018 -0.1505  0.1887
11128TIP3    H254876   1.257   1.976   5.586 -2.4620 -1.3484 -0.6945
11129TIP3   OH254877   5.452   2.319  14.655 -0.2689  0.4638 -0.2757
11129TIP3    H154878   5.509   2.376  14.603 -1.7934  0.7370 -1.7254
11129TIP3    H254879   5.513   2.263  14.704  1.2778  2.7754  0.6347
11130TIP3   OH254880   5.366   6.138  16.342 -0.1046 -0.3780  0.2829
11130TIP3    H154881   5.276   6.168  16.357 -0.2670 -0.3361 -0.7121
11130TIP3    H254882   5.397   6.110  16.428 -0.1936  1.9784  1.1544
11131TIP3   OH254883   3.200   6.567   5.339  0.0508  0.4492 -0.6180
11131TIP3    H154884   3.289   6.583   5.307  0.6186 -1.3696 -0.0849
11131TIP3    H254885   3.212   6.509   5.415 -1.4842  1.7286  0.6830
11132TIP3   OH254886   0.126   2.140   4.438  0.1203  0.4841  0.3516
11132TIP3    H154887   0.103   2.223   4.396  2.2153  1.8178  1.6448
11132TIP3    H254888   0.188   2.099   4.378  0.3955  0.6730  0.5086
11133TIP3   OH254889   0.523   3.047  14.968  0.0224  0.2589 -0.1202
11133TIP3    H154890   0.453   2.992  14.934  0.2000 -0.1260  0.1313
11133TIP3    H254891   0.478   3.122  15.007 -0.4346 -1.1304  2.2043
11134TIP3   OH254892   1.323   0.216   4.812 -0.3954  0.0902  0.7769
11134TIP3    H154893   1.376   0.281   4.767 -1.2423  0.5434  0.4055
11134TIP3    H254894   1.236   0.224   4.773 -0.0172 -2.9571 -1.0839
11135TIP3   OH254895   2.845   3.436   5.894 -0.4170 -0.0000  0.3798
11135TIP3    H154896   2.765   3.428   5.842 -0.8528 -1.9125  1.2524
11135TIP3    H254897   2.833   3.517   5.943 -1.1375  0.5040 -0.5970
11136TIP3   OH254898   1.705   4.359   0.910 -0.0699 -0.1700 -0.3698
11136TIP3    H154899   1.645   4.285   0.900 -1.3783  1.0317 -2.1654
11136TIP3    H254900   1.702   4.380   1.003 -1.8915 -0.6326 -0.2848
11137TIP3   OH254901   2.762   3.724   2.223  0.3342 -0.6397  0.3237
11137TIP3    H154902   2.742   3.632   2.205  0.5944 -0.7882  0.7839
11137TIP3    H254903   2.728   3.771   2.147  0.0242 -1.0960  0.1770
11138TIP3   OH254904   2.244   4.745   4.705 -0.4852  0.2497  0.2052
11138TIP3    H154905   2.194   4.672   4.741  0.3258 -1.5617 -2.1313
11138TIP3    H254906   2.322   4.750   4.760 -0.7954 -0.3133  0.7060
11139TIP3   OH254907   2.201   0.915  14.454 -0.3285  0.0417 -0.1416
11139TIP3    H154908   2.113   0.952  14.445 -1.1677 -1.2692  2.0139
11139TIP3    H254909   2.233   0.909  14.364 -2.3660  0.7229 -0.9815
11140TIP3   OH254910   5.398   1.868  16.000  0.0731  0.5550  0.6654
11140TIP3    H154911   5.322   1.811  16.011 -0.5656  0.9298 -1.4115
11140TIP3    H254912   5.467   1.811  15.966 -0.6810  0.9933 -1.7871
11141TIP3   OH254913   6.437   2.467   3.363  0.2231 -0.6658  0.2218
11141TIP3    H154914   6.366   2.456   3.426 -0.0655  0.7287  0.1751
11141TIP3    H254915   6.401   2.437   3.280 -0.2846 -0.0604  0.2178
11142TIP3   OH254916   0.159   0.477  12.517  0.0994  0.7285  0.0252
11142TIP3    H154917   0.142   0.392  12.476  0.0234  0.9146 -0.3351
11142TIP3    H254918   0.178   0.536  12.443  2.5146  0.5034  0.4148
11143TIP3   OH254919   6.354   4.794   3.093  0.4803 -0.3530  0.2636
11143TIP3    H154920   6.429   4.769   3.039 -0.0692 -3.7680  0.8963
11143TIP3    H254921   6.286   4.730   3.073 -0.9816  0.4022  2.4200
11144TIP3   OH254922   3.088   4.944  13.170 -0.6623 -0.3982  0.1765
11144TIP3    H154923   3.049   4.869  13.126 -0.5521  0.9558 -2.4496
11144TIP3    H254924   3.168   4.909  13.211 -0.8282 -1.7796 -0.6150
11145TIP3   OH254925   6.413   2.791  14.418 -0.1159 -0.0763 -0.2687
11145TIP3    H154926   6.481   2.825  14.475 -1.5025  1.2416  0.6919
11145TIP3    H254927   6.369   2.870  14.384 -1.2448 -0.8764 -0.7303
11146TIP3   OH254928   0.657   5.288   2.543 -0.6187 -0.2684 -0.3688
11146TIP3    H154929   0.602   5.357   2.580  1.7560  1.5247  0.1048
11146TIP3    H254930   0.727   5.277   2.607  0.7723 -0.8384 -1.9143
11147TIP3   OH254931   2.376   3.547   1.081  0.1632  0.5320 -0.1882
11147TIP3    H154932   2.411   3.480   1.139  2.1183  0.5537 -1.2398
11147TIP3    H254933   2.369   3.626   1.135  2.5041  0.7137 -0.0536
11148TIP3   OH254934   4.881   0.644  12.039 -0.0276 -0.0678  0.4017
11148TIP3    H154935   4.808   0.587  12.061  0.2596 -0.7151 -0.2504
11148TIP3    H254936   4.950   0.583  12.011  0.1398  0.6177 -0.7228
11149TIP3   OH254937   4.940   5.926  15.964  0.1162  0.6518 -0.1438
11149TIP3    H154938   5.025   5.966  15.984 -1.4879  4.7439 -0.4064
11149TIP3    H254939   4.937   5.924  15.868  0.3990 -0.7822 -0.1380
11150TIP3   OH254940   0.136   4.970   5.098 -0.3705  0.2776 -0.1136
11150TIP3    H154941   0.054   4.923   5.115 -0.7752  0.3962 -1.5706
11150TIP3    H254942   0.196   4.939   5.166 -1.3276 -0.5745  0.3729
11151TIP3   OH254943   0.190   0.519  15.569  0.1921 -0.3633 -0.5015
11151TIP3    H154944   0.206   0.430  15.539 -0.3693  0.3053 -3.0571
11151TIP3    H254945   0.107   0.515  15.615  0.5977 -1.2807  0.1796
11152TIP3   OH254946   2.634   2.129   4.554  0.6571  0.6194  0.3967
11152TIP3    H154947   2.608   2.080   4.632  2.0657  0.5557  0.8441
11152TIP3    H254948   2.600   2.217   4.569 -0.3304  0.2486  0.4052
11153TIP3   OH254949   5.549   1.617  16.942 -0.3943 -0.0876 -0.0790
11153TIP3    H154950   5.640   1.639  16.923 -0.0857 -0.6214  0.6923
11153TIP3    H254951   5.551   1.579  17.030 -0.9758 -2.3932 -0.9666
11154TIP3   OH254952   2.984   5.632   0.396 -0.8978 -0.5051 -0.0744
11154TIP3    H154953   3.016   5.595   0.314  0.5764  1.8911 -0.6756
11154TIP3    H254954   3.036   5.712   0.409 -2.0601 -0.0394  2.4697
11155TIP3   OH254955   2.339   4.164   3.161  0.3319 -0.4787  0.0907
11155TIP3    H154956   2.415   4.206   3.201 -0.2552 -0.8582  1.7179
11155TIP3    H254957   2.359   4.070   3.165 -1.6277 -0.9747  4.0856
11156TIP3   OH254958   0.148   5.313  13.965  0.2738  0.5466 -0.3250
11156TIP3    H154959   0.069   5.296  13.914 -0.5861  1.1774  0.7593
11156TIP3    H254960   0.139   5.403  13.995  0.1212 -0.1756  1.9713
11157TIP3   OH254961   0.170   2.020  17.133 -0.6227 -0.0137  0.2032
11157TIP3    H154962   0.102   2.003  17.067 -0.7686  0.0592  0.3305
11157TIP3    H254963   0.163   2.114  17.149 -2.5863 -0.4618  2.4589
11158TIP3   OH254964   4.938   6.015   1.048 -0.3462 -0.1313  0.0556
11158TIP3    H154965   5.026   6.032   1.014 -0.8044  0.2602 -0.9805
11158TIP3    H254966   4.906   5.941   0.997  0.0218 -1.4186  1.6352
11159TIP3   OH254967   3.721   4.716  11.246  0.3139 -0.0264 -0.2402
11159TIP3    H154968   3.661   4.649  11.214  0.8864 -0.2319 -0.9180
11159TIP3    H254969   3.796   4.712  11.186  0.2657  1.3686 -0.4441
11160TIP3   OH254970   3.589   1.762   0.266 -0.2951  0.5196  0.4178
11160TIP3    H154971   3.593   1.668   0.248 -3.2554  0.1678  1.1455
11160TIP3    H254972   3.680   1.786   0.287  1.0397 -1.5395 -2.4446
11161TIP3   OH254973   1.685   1.627  14.470 -0.6306  0.0077  0.3791
11161TIP3    H154974   1.755   1.628  14.404  0.4709  0.5088  1.5066
11161TIP3    H254975   1.606   1.606  14.421  0.3629 -0.9373 -0.8942
11162TIP3   OH254976   3.228   2.105  16.786  0.1975 -0.0883  0.1888
11162TIP3    H154977   3.144   2.118  16.742  0.3339 -0.6147 -0.2378
11162TIP3    H254978   3.206   2.077  16.874 -0.1209  2.6917  1.0914
11163TIP3   OH254979   4.015   5.306  13.587  0.4332  0.2785  0.5607
11163TIP3    H154980   4.036   5.320  13.679  0.2000  1.3839  0.4627
11163TIP3    H254981   3.925   5.273  13.588 -0.0977  1.6463  0.6884
11164TIP3   OH254982   0.623   3.809   4.809 -0.0401 -0.2461  0.3742
11164TIP3    H154983   0.589   3.750   4.743  0.0767  1.0745 -0.9081
11164TIP3    H254984   0.668   3.751   4.872  3.2467 -1.3787 -2.6859
11165TIP3   OH254985   2.319   1.614   4.365 -0.7451  0.1910 -0.4433
11165TIP3    H154986   2.239   1.622   4.417 -1.2739 -1.5176 -0.9290
11165TIP3    H254987   2.289   1.598   4.276  0.0772 -1.7261 -0.4344
11166TIP3   OH254988   6.006   4.522  12.223  0.0955 -0.8768  0.1053
11166TIP3    H154989   6.039   4.551  12.309  0.3845 -0.0262 -0.2809
11166TIP3    H254990   6.063   4.567  12.160 -0.1114 -1.5054 -0.5346
11167TIP3   OH254991   3.534   2.084   0.897  0.0348  0.0694  0.0834
11167TIP3    H154992   3.590   2.045   0.965  0.9279  2.9573  1.1255
11167TIP3    H254993   3.552   2.032   0.819  4.3507  0.8424  0.3161
11168TIP3   OH254994   2.545   6.611   4.154 -0.0304  0.7788  0.0874
11168TIP3    H154995   2.562   6.528   4.110  0.3381  1.1377 -0.4541
11168TIP3    H254996   2.559   6.592   4.247 -2.0730 -0.3062  0.2188
11169TIP3   OH254997   3.012   1.760   2.696 -0.1384 -0.1642 -0.4985
11169TIP3    H154998   2.952   1.788   2.765 -0.9371  1.6274 -1.8268
11169TIP3    H254999   3.087   1.819   2.705  0.8649 -1.5081  0.3048
11170TIP3   OH255000   3.300   2.284  12.758  0.0308 -0.5989 -0.3131
11170TIP3    H155001   3.225   2.306  12.813  1.1735 -1.8468  1.8619
11170TIP3    H255002   3.347   2.367  12.749 -0.7475 -0.1490 -0.3290
11171TIP3   OH255003   1.744   2.944   4.365 -0.1606 -0.6390 -0.3332
11171TIP3    H155004   1.661   2.914   4.328 -0.7818 -0.6997  1.0620
11171TIP3    H255005   1.720   3.016   4.423  0.4593 -2.0520  1.8011
11172TIP3   OH255006   5.904   0.029  12.047  0.2330 -0.3328  0.7311
11172TIP3    H155007   5.902   0.120  12.075  0.2181 -0.6033  1.6539
11172TIP3    H255008   5.945   0.031  11.961 -0.6564  0.6479  0.3014
11173TIP3   OH255009   3.258   6.182   2.283 -0.4429 -0.1614 -0.2291
11173TIP3    H155010   3.167   6.210   2.278 -0.8229 -1.0975  0.9169
11173TIP3    H255011   3.254   6.087   2.276  0.5897 -0.1293 -1.5594
11174TIP3   OH255012   3.298   4.235  16.824  0.2823 -0.7135  0.4230
11174TIP3    H155013   3.391   4.224  16.842  0.7451  1.2030 -0.5451
11174TIP3    H255014   3.274   4.316  16.869  0.1476  1.1070 -2.6220
11175TIP3   OH255015   3.931   5.762   5.608 -0.0951  0.5989  0.0340
11175TIP3    H155016   3.947   5.742   5.700  1.4210 -0.5938 -0.4465
11175TIP3    H255017   3.840   5.793   5.606 -0.5645 -0.5099  1.7516
11176TIP3   OH255018   3.924   6.333   5.067  0.7272 -0.0325  0.1058
11176TIP3    H155019   3.903   6.246   5.101 -1.3252  0.9014  1.3896
11176TIP3    H255020   3.969   6.376   5.140  1.2257  0.2058 -0.3313
11177TIP3   OH255021   2.715   3.605   2.527 -0.0064  0.2205  0.4576
11177TIP3    H155022   2.804   3.605   2.563  0.3231  2.4767 -0.2270
11177TIP3    H255023   2.726   3.634   2.436 -1.4532  0.6442  0.3957
11178TIP3   OH255024   2.012   3.103  13.214  0.4287 -0.3557  0.2642
11178TIP3    H155025   2.017   3.128  13.122 -1.7243 -0.0778  0.1756
11178TIP3    H255026   1.984   3.183  13.259 -0.2290 -0.9355  0.9063
11179TIP3   OH255027   6.001   4.628   3.601 -0.1876  0.4218  0.1455
11179TIP3    H155028   6.041   4.562   3.657 -1.3026 -1.0852 -0.7517
11179TIP3    H255029   6.000   4.707   3.654  1.4875 -0.1661  1.1502
11180TIP3   OH255030   1.569   0.369  13.455 -0.1553  0.0759 -0.0112
11180TIP3    H155031   1.538   0.420  13.380  0.6240 -0.1658 -0.5114
11180TIP3    H255032   1.639   0.421  13.493  1.6250 -1.2101 -1.3842
11181TIP3   OH255033   3.907   5.428   0.945 -0.4858  0.3032  0.3487
11181TIP3    H155034   3.829   5.481   0.931 -1.3950 -0.5843  1.8452
11181TIP3    H255035   3.882   5.340   0.917 -0.1526 -0.0565  1.1424
11182TIP3   OH255036   2.048   2.748   1.284 -0.0743 -0.0566  0.4630
11182TIP3    H155037   1.968   2.798   1.265  0.7314  0.7524 -0.9616
11182TIP3    H255038   2.034   2.664   1.239 -0.7046 -0.4794  1.4188
11183TIP3   OH255039   0.369   0.957   5.113  0.2297  0.1565 -0.2834
11183TIP3    H155040   0.319   0.898   5.171  0.6172  0.2327  0.1387
11183TIP3    H255041   0.315   0.966   5.035  0.7397 -1.8177 -0.9272
11184TIP3   OH255042   4.315   5.722   4.156 -0.4364  0.0136 -0.0108
11184TIP3    H155043   4.347   5.812   4.150 -0.5592  0.1100  0.6351
11184TIP3    H255044   4.361   5.675   4.087  1.1057  0.1602  0.8612
11185TIP3   OH255045   1.351   4.767   0.559 -0.3915  0.6598  0.3886
11185TIP3    H155046   1.320   4.678   0.543  0.1948  0.1441  1.9295
11185TIP3    H255047   1.287   4.823   0.515 -1.9228 -0.4515  1.1124
11186TIP3   OH255048   4.133   5.382  13.048 -0.3110  0.2454 -0.2170
11186TIP3    H155049   4.111   5.314  13.111 -0.0289 -0.2849 -0.6825
11186TIP3    H255050   4.138   5.462  13.100 -1.1306 -0.0023  0.2580
11187TIP3   OH255051   4.681   5.578   0.255  0.6440 -0.2615 -0.1185
11187TIP3    H155052   4.626   5.652   0.227 -0.3404 -0.8880  0.1134
11187TIP3    H255053   4.667   5.572   0.350  2.2897  0.4997  0.1991
11188TIP3   OH255054   3.870   5.659  13.476 -0.7178  0.9663 -0.3196
11188TIP3    H155055   3.908   5.659  13.564 -2.0956 -1.8870  0.3836
11188TIP3    H255056   3.775   5.663  13.492 -1.0165 -0.3920 -1.6117
11189TIP3   OH255057   5.018   4.827  17.009  0.5750  0.9472 -0.0641
11189TIP3    H155058   4.952   4.781  16.957 -0.0271  1.2401  0.4342
11189TIP3    H255059   5.096   4.773  17.000  0.3451  0.7243 -0.8600
11190TIP3   OH255060   0.029   4.695   0.800 -0.3739  0.1786 -0.8614
11190TIP3    H155061  -0.044   4.698   0.739 -0.2157  0.9846 -1.0161
11190TIP3    H255062   0.054   4.786   0.813  1.2617 -0.1313 -1.6106
11191TIP3   OH255063   3.153   2.980  16.712 -0.1103 -0.1184 -0.0579
11191TIP3    H155064   3.072   2.929  16.721  0.4704 -0.8654  1.2551
11191TIP3    H255065   3.198   2.967  16.795  1.0502  0.8451 -0.5161
11192TIP3   OH255066   2.467   4.655   0.644  0.1310  0.0854 -0.1285
11192TIP3    H155067   2.530   4.646   0.573  0.1593 -0.2256 -0.0650
11192TIP3    H255068   2.384   4.672   0.600  0.2069  0.2176 -0.2225
11193TIP3   OH255069   2.997   2.075   6.136 -0.2405 -0.1864 -0.1016
11193TIP3    H155070   3.013   2.036   6.222 -1.0734  0.7656  0.5123
11193TIP3    H255071   3.084   2.090   6.100  0.1156 -0.8148  0.4693
11194TIP3   OH255072   0.663   3.062  10.717  0.1704 -0.9723 -0.0441
11194TIP3    H155073   0.639   3.080  10.808 -3.0784  1.1446 -1.1456
11194TIP3    H255074   0.741   3.115  10.702 -0.3884  0.2221  1.0324
11195TIP3   OH255075   2.428   4.294  14.294  0.4959 -0.8900 -0.0890
11195TIP3    H155076   2.398   4.342  14.217  0.1492 -0.5819  0.2304
11195TIP3    H255077   2.481   4.357  14.343  0.6680 -1.0668 -0.0460
11196TIP3   OH255078   4.486   2.045  11.695  0.0964  0.1806  0.2352
11196TIP3    H155079   4.523   2.099  11.765 -0.5816  0.1190  0.6572
11196TIP3    H255080   4.529   1.960  11.705 -1.3892 -0.4536  1.8689
11197TIP3   OH255081   4.138   3.461  12.228 -0.3842 -0.0866 -0.4150
11197TIP3    H155082   4.095   3.376  12.236  2.9915 -2.0309 -1.0607
11197TIP3    H255083   4.188   3.456  12.147 -0.9221  3.0228 -1.0798
11198TIP3   OH255084   4.686   5.435   1.341 -1.1091 -0.1016  0.1852
11198TIP3    H155085   4.728   5.349   1.348  0.8577  0.8230  0.3919
11198TIP3    H255086   4.665   5.458   1.432 -0.8257  0.0062  0.2253
11199TIP3   OH255087   0.403   1.221  13.774  0.1311  0.1648 -1.0129
11199TIP3    H155088   0.388   1.283  13.846  1.0933 -0.1980 -0.4784
11199TIP3    H255089   0.361   1.140  13.803  0.5834 -0.0034 -0.8162
11200TIP3   OH255090   6.080   1.016   2.626  0.3142  0.4216 -0.0828
11200TIP3    H155091   6.062   1.043   2.716 -1.9088  3.7363 -1.3224
11200TIP3    H255092   5.994   0.996   2.589  0.9226  1.1736 -2.0104
11201TIP3   OH255093   4.486   2.697  11.531 -0.3780  0.1925  0.0348
11201TIP3    H155094   4.457   2.753  11.603  0.1561 -0.2226  0.5879
11201TIP3    H255095   4.409   2.646  11.509 -0.1513 -0.8296  1.4241
11202TIP3   OH255096   5.716   5.621  15.856 -0.1088  0.0953  0.3992
11202TIP3    H155097   5.739   5.548  15.914 -0.4688  0.6648  1.2826
11202TIP3    H255098   5.766   5.695  15.890  1.0045  0.0452 -1.0903
11203TIP3   OH255099   0.992   4.234  16.553 -0.0754 -0.2206 -0.2712
11203TIP3    H155100   1.054   4.302  16.526 -0.4197  0.4389  0.5497
11203TIP3    H255101   0.925   4.281  16.603  0.9959 -1.4626  2.5239
11204TIP3   OH255102   1.121   1.441  15.707  0.5452  0.4093  0.0678
11204TIP3    H155103   1.093   1.358  15.744 -0.8433 -0.6257 -2.9880
11204TIP3    H255104   1.204   1.421  15.662  0.1219  0.6106 -0.8222
11205TIP3   OH255105   5.992   1.796  13.604 -0.0399  0.8003  0.6316
11205TIP3    H155106   6.002   1.758  13.517 -0.7136  1.5780  0.2027
11205TIP3    H255107   6.069   1.766  13.652 -0.6096 -1.2013  0.3751
11206TIP3   OH255108   3.546   4.905  16.965  0.2832  0.4580 -0.2560
11206TIP3    H155109   3.641   4.902  16.973  0.2371 -0.0039  0.1541
11206TIP3    H255110   3.527   4.994  16.936  0.7663  0.8825  0.6892
11207TIP3   OH255111   2.680   5.905   4.025 -0.4418  0.4705  0.1030
11207TIP3    H155112   2.720   5.932   3.942  0.4196 -2.6063 -0.6240
11207TIP3    H255113   2.598   5.862   3.999 -0.3052 -0.2652  0.8411
11208TIP3   OH255114   4.596   2.439   3.237  0.9547 -0.7315 -0.7025
11208TIP3    H155115   4.552   2.522   3.222  0.6517 -0.7869 -0.1418
11208TIP3    H255116   4.682   2.464   3.272  0.3352 -0.6674  0.8394
11209TIP3   OH255117   0.456   3.626  13.063 -0.0950 -0.1377 -0.6862
11209TIP3    H155118   0.443   3.542  13.020 -0.4769 -1.2447  1.4312
11209TIP3    H255119   0.400   3.622  13.141  2.2029  0.7470  1.1597
11210TIP3   OH255120   3.439   3.527   2.910  0.1713 -0.2142  0.0802
11210TIP3    H155121   3.482   3.599   2.957  0.1365 -0.1010 -0.0611
11210TIP3    H255122   3.459   3.449   2.963  0.2969 -0.1175  0.1775
11211TIP3   OH255123   4.829   4.595  13.132  0.0053 -0.2804  0.1808
11211TIP3    H155124   4.914   4.552  13.124 -0.2386 -0.9356  1.0419
11211TIP3    H255125   4.773   4.531  13.175 -0.6912  0.4722  0.4178
11212TIP3   OH255126   1.975   2.077  10.312  0.0726 -0.1325 -0.1483
11212TIP3    H155127   2.021   2.140  10.368  2.5969 -1.0481 -1.0594
11212TIP3    H255128   1.883   2.086  10.337  0.6711  1.9642  1.6411
11213TIP3   OH255129   4.256   3.198  12.766 -0.1715 -0.4974 -0.5649
11213TIP3    H155130   4.340   3.240  12.787 -0.7901  0.1425  0.8217
11213TIP3    H255131   4.268   3.106  12.788  0.1726 -0.4019 -0.3547
11214TIP3   OH255132   3.468   1.712  12.439  0.0123 -0.0157 -0.0902
11214TIP3    H155133   3.546   1.767  12.433 -0.2407  0.7938  2.6724
11214TIP3    H255134   3.490   1.635  12.387  1.5893  1.3270 -1.5373
11215TIP3   OH255135   5.928   0.112   0.296 -0.4807 -0.1167  0.1700
11215TIP3    H155136   5.876   0.042   0.257 -1.6467 -0.6696  2.5266
11215TIP3    H255137   5.925   0.183   0.232 -1.6620 -1.1986 -1.0404
11216TIP3   OH255138   4.065   4.175  16.662 -0.2815 -0.0656 -0.0572
11216TIP3    H155139   4.082   4.267  16.679  0.4643 -0.2713  0.3905
11216TIP3    H255140   3.995   4.174  16.597 -1.4317  0.7961  1.1219
11217TIP3   OH255141   1.973   3.709  13.511  0.4063 -0.3209 -0.1898
11217TIP3    H155142   1.892   3.755  13.492  0.6275  0.1089 -0.1119
11217TIP3    H255143   1.968   3.629  13.459 -0.5076 -0.7816  0.5709
11218TIP3   OH255144   0.448   0.371  13.098  0.2744  0.2851 -0.0743
11218TIP3    H155145   0.462   0.276  13.093 -2.1400 -0.1371  0.1775
11218TIP3    H255146   0.533   0.408  13.074  0.9554 -1.9132 -1.4359
11219TIP3   OH255147   4.326   3.795  15.306 -0.0110  0.6043  0.2124
11219TIP3    H155148   4.320   3.890  15.320  0.9759  0.6510  0.3819
11219TIP3    H255149   4.256   3.759  15.360 -0.0898  1.2065  0.5238
11220TIP3   OH255150   3.091   1.146  12.459  0.3043  0.4107 -0.4550
11220TIP3    H155151   3.010   1.147  12.408  0.0628  1.2690 -0.0669
11220TIP3    H255152   3.132   1.231  12.441  1.9759 -0.6237 -1.9732
11221TIP3   OH255153   5.397   3.218   5.228 -0.1601 -0.2321 -0.2717
11221TIP3    H155154   5.484   3.209   5.267 -0.5610  0.1422  0.7507
11221TIP3    H255155   5.396   3.307   5.192 -0.2283 -0.1220  0.0010
11222TIP3   OH255156   1.915   0.794   5.317  0.0705  0.5688 -0.9881
11222TIP3    H155157   1.871   0.802   5.401  0.3879 -0.3626 -0.7223
11222TIP3    H255158   1.861   0.731   5.268  0.5883  0.1207 -0.9964
11223TIP3   OH255159   2.205   3.485   2.452  0.2875 -0.4730 -0.8702
11223TIP3    H155160   2.286   3.532   2.434  0.1663 -0.7403 -2.2709
11223TIP3    H255161   2.229   3.392   2.444 -0.2043 -0.5449 -1.5957
11224TIP3   OH255162   2.950   0.541  16.591  0.0052  0.3357 -0.1738
11224TIP3    H155163   2.926   0.452  16.566  1.4900 -0.3811  0.7934
11224TIP3    H255164   3.017   0.530  16.658  0.1603  2.1923  0.0391
11225TIP3   OH255165   6.300   1.439  14.617 -0.4452  0.1737  0.2728
11225TIP3    H155166   6.269   1.502  14.682  3.7815  1.1200  1.6571
11225TIP3    H255167   6.357   1.490  14.559 -1.3318 -1.3791 -2.1307
11226TIP3   OH255168   6.005   5.748  15.501  0.4291  0.4467  0.2307
11226TIP3    H155169   5.946   5.808  15.547 -1.7768  1.9491 -4.0509
11226TIP3    H255170   5.947   5.687  15.456  2.2412  0.2672 -2.0348
11227TIP3   OH255171   1.285   6.788  16.983 -0.2793  0.0927 -0.1280
11227TIP3    H155172   1.192   6.765  16.981 -0.3996  0.5310  0.3262
11227TIP3    H255173   1.304   6.815  16.893 -0.7358  0.5344 -0.0988
11228TIP3   OH255174   4.777   1.584   5.800  0.0224 -0.1221  0.3368
11228TIP3    H155175   4.774   1.522   5.873  0.4846 -1.3037 -0.6098
11228TIP3    H255176   4.686   1.592   5.771 -0.0719 -0.1915  0.6114
11229TIP3   OH255177   5.400   2.739  16.742 -0.1368  0.3284  0.1433
11229TIP3    H155178   5.367   2.711  16.656  0.9936 -0.5504 -0.0217
11229TIP3    H255179   5.400   2.835  16.737 -0.0065  0.2943 -0.8723
11230TIP3   OH255180   1.360   3.735  17.079 -0.1937  0.1399 -0.7291
11230TIP3    H155181   1.279   3.728  17.129  1.2706 -1.6422  1.6381
11230TIP3    H255182   1.384   3.828  17.083 -0.7868  0.2432  0.8174
11231TIP3   OH255183   1.964   1.217   1.596 -0.2439 -0.3007 -0.7270
11231TIP3    H155184   2.036   1.175   1.643  0.2507  0.7112 -0.5501
11231TIP3    H255185   1.968   1.309   1.623 -2.3020 -0.4172  0.1906
11232TIP3   OH255186   0.634   2.570   5.347 -0.2269 -0.2349 -0.0533
11232TIP3    H155187   0.729   2.557   5.354 -0.4503 -3.0953 -0.7625
11232TIP3    H255188   0.598   2.482   5.361 -2.6933  0.5512 -1.0225
11233TIP3   OH255189   4.199   0.540  13.447  0.0534  0.2017 -0.4224
11233TIP3    H155190   4.156   0.590  13.378  1.0359  1.2678 -0.2871
11233TIP3    H255191   4.281   0.587  13.464  0.3990 -0.7260  0.6224
11234TIP3   OH255192   4.147   6.511  14.250 -0.5097 -0.2370  0.0025
11234TIP3    H155193   4.137   6.422  14.284  2.4825 -0.4233  0.7020
11234TIP3    H255194   4.170   6.499  14.158 -2.4187 -0.0058 -0.5532
11235TIP3   OH255195   0.958   2.194  13.974  0.0287  0.7112 -0.2733
11235TIP3    H155196   0.930   2.225  13.888  2.0246  2.1837 -0.4707
11235TIP3    H255197   0.959   2.273  14.028 -0.3968 -0.0535  0.8849
11236TIP3   OH255198   6.540   4.692   2.928 -0.1563 -0.1110  0.2151
11236TIP3    H155199   6.606   4.644   2.878 -0.4681  1.8623 -2.2851
11236TIP3    H255200   6.555   4.784   2.906 -1.0041  0.8190  3.0496
11237TIP3   OH255201   6.330   4.179   5.578  0.0158 -0.0421  0.2531
11237TIP3    H155202   6.304   4.259   5.533 -0.0061  0.2519  0.7813
11237TIP3    H255203   6.267   4.113   5.549  1.1070 -0.3255 -1.5845
11238TIP3   OH255204   2.223   1.307   4.787  0.1869  0.0349 -0.2423
11238TIP3    H155205   2.181   1.283   4.704 -1.8879  0.7980  0.5113
11238TIP3    H255206   2.262   1.226   4.819 -0.4749 -0.6592 -1.1529
11239TIP3   OH255207   4.543   3.048  12.558  0.1475  0.0454 -0.7898
11239TIP3    H155208   4.570   3.109  12.627 -0.9949  1.0782 -1.2189
11239TIP3    H255209   4.542   2.962  12.600 -2.9806  0.9239  1.2627
11240TIP3   OH255210   4.528   3.807   5.371  0.0210 -0.8361 -0.2262
11240TIP3    H155211   4.559   3.722   5.403  0.1519 -0.6003  0.2821
11240TIP3    H255212   4.607   3.855   5.349 -0.0168 -0.5560  0.2411
11241TIP3   OH255213   6.765   4.806   5.017 -0.1399  0.4336 -0.8703
11241TIP3    H155214   6.772   4.711   5.023  2.8158  0.5948 -0.0503
11241TIP3    H255215   6.773   4.825   4.924 -0.3555 -0.1140 -1.0023
11242TIP3   OH255216   4.120   0.419   4.001  0.3432 -0.1419  0.0746
11242TIP3    H155217   4.163   0.335   4.016  0.0096 -0.9360 -2.8336
11242TIP3    H255218   4.027   0.400   4.006  0.2640  0.0175 -0.7319
11243TIP3   OH255219   5.574   4.486  14.751 -0.0814  0.2484  0.0153
11243TIP3    H155220   5.529   4.402  14.738 -1.0800  0.9712 -1.5728
11243TIP3    H255221   5.666   4.468  14.733  0.1248 -0.9833  2.0264
11244TIP3   OH255222   5.149   3.713  14.699 -0.1698 -0.0842 -0.2126
11244TIP3    H155223   5.164   3.666  14.617 -0.3472 -1.3714  0.4712
11244TIP3    H255224   5.186   3.656  14.766 -1.9820 -0.0903  0.8276
11245TIP3   OH255225   5.581   3.101  15.271 -0.0786 -0.8402  0.2511
11245TIP3    H155226   5.497   3.104  15.225  0.0697 -0.2008  0.0091
11245TIP3    H255227   5.606   3.193  15.281 -0.2449 -0.9597  1.8881
11246TIP3   OH255228   1.568   3.151   0.037  0.3361 -0.0226  0.0154
11246TIP3    H155229   1.633   3.206  -0.006 -0.7068  0.9668 -0.3480
11246TIP3    H255230   1.484   3.183   0.004 -0.3390 -1.4349  0.2740
11247TIP3   OH255231   1.361   2.906  14.496  0.0183  0.0765  0.0243
11247TIP3    H155232   1.350   2.870  14.584  1.2228  0.2642  0.2734
11247TIP3    H255233   1.364   3.000  14.509 -0.9872  0.1630 -0.3662
11248TIP3   OH255234   3.446   1.040   1.348  0.1333  0.5402 -0.0929
11248TIP3    H155235   3.444   0.966   1.409 -0.3796  1.7959  1.4949
11248TIP3    H255236   3.432   1.001   1.262  2.4994 -1.5106  0.3336
11249TIP3   OH255237   1.707   5.740   2.937  0.2250 -0.2603  0.0755
11249TIP3    H155238   1.714   5.768   2.846  1.9364  2.9711  1.0589
11249TIP3    H255239   1.628   5.782   2.970  0.1607 -0.5816  0.3412
11250TIP3   OH255240   4.494   0.971   1.234 -0.0457  0.7498 -0.0974
11250TIP3    H155241   4.483   1.042   1.298  0.5871  1.7755 -1.0934
11250TIP3    H255242   4.589   0.961   1.227 -0.0987 -1.3114  1.1890
11251TIP3   OH255243   3.481   6.456   1.151 -0.0859 -0.4774 -0.0071
11251TIP3    H155244   3.386   6.451   1.162 -0.1038 -0.7171 -0.2846
11251TIP3    H255245   3.498   6.549   1.136 -0.5812 -0.7381 -2.7066
11252TIP3   OH255246   3.755   4.134  13.170  0.4388 -0.0974  0.3722
11252TIP3    H155247   3.809   4.074  13.120  1.1781  0.9150 -0.0808
11252TIP3    H255248   3.783   4.123  13.261  2.3801  1.3233  0.0081
11253TIP3   OH255249   3.621   3.844  15.393 -0.0204 -0.2442 -0.2209
11253TIP3    H155250   3.627   3.873  15.484 -2.1999 -0.8560  0.1874
11253TIP3    H255251   3.530   3.863  15.368  0.0169 -1.7457 -1.6505
11254TIP3   OH255252   3.330   4.683   4.390 -0.1844 -0.1855 -0.6345
11254TIP3    H155253   3.325   4.615   4.323  0.8401  0.4873 -1.4463
11254TIP3    H255254   3.423   4.706   4.392 -0.0834 -0.5958  1.4633
11255TIP3   OH255255   5.141   6.681   0.061 -0.0603  0.8268  0.2353
11255TIP3    H155256   5.091   6.747   0.012 -0.7948  1.4867  1.8295
11255TIP3    H255257   5.152   6.718   0.148 -0.5317 -1.1706  1.2046
11256TIP3   OH255258   5.791   5.776  16.203  0.1046  0.6111 -0.1455
11256TIP3    H155259   5.741   5.793  16.123 -1.0547 -0.9178  0.2099
11256TIP3    H255260   5.727   5.786  16.274  0.8859  0.9684  0.5310
11257TIP3   OH255261   3.181   3.335   4.496 -0.1949  0.0448  0.0232
11257TIP3    H155262   3.230   3.374   4.569 -1.3973  0.6908  0.5155
11257TIP3    H255263   3.226   3.253   4.477  1.4707  0.9295  0.0149
11258TIP3   OH255264   1.644   0.065  13.715 -0.0505  0.0318 -0.2528
11258TIP3    H155265   1.594   0.144  13.736 -0.7866 -0.2616 -0.8421
11258TIP3    H255266   1.690   0.086  13.634  2.2445  0.9240  1.1827
11259TIP3   OH255267   1.291   1.985  14.636 -0.8599 -0.3623 -0.1930
11259TIP3    H155268   1.197   2.004  14.639 -0.8769 -0.5391  0.4916
11259TIP3    H255269   1.310   1.974  14.542 -1.9546 -2.4626 -0.2232
11260TIP3   OH255270   4.485   4.007   4.432 -0.1909 -0.0965  0.5474
11260TIP3    H155271   4.575   4.036   4.417 -0.2674  0.0073  0.2856
11260TIP3    H255272   4.462   3.961   4.351 -1.0660  1.5972 -0.2043
11261TIP3   OH255273   4.122   3.962   4.411  0.2748 -0.1719 -0.3553
11261TIP3    H155274   4.035   3.922   4.405 -0.0318  0.2816  0.8046
11261TIP3    H255275   4.105   4.054   4.431  1.0167 -0.0915 -0.0570
11262TIP3   OH255276   5.676   1.895  16.174  0.1869 -0.7662  0.4642
11262TIP3    H155277   5.704   1.888  16.082 -1.4456 -1.0876 -0.0391
11262TIP3    H255278   5.701   1.984  16.199 -0.8147 -0.0732 -0.8370
11263TIP3   OH255279   2.872   5.315  12.153  0.0393  0.2403  0.7476
11263TIP3    H155280   2.920   5.312  12.236 -0.1208 -0.6765  0.8230
11263TIP3    H255281   2.898   5.398  12.113  1.8201 -0.2897  0.7124
11264TIP3   OH255282   3.293   3.091  17.054 -0.7014  0.4267 -0.4293
11264TIP3    H155283   3.296   3.172  17.003  0.0951  0.2276 -0.7081
11264TIP3    H255284   3.378   3.051  17.041 -0.5876  0.2138  0.8195
11265TIP3   OH255285   0.907   2.127   1.956  0.8602  0.0948 -0.1052
11265TIP3    H155286   0.966   2.073   2.010  2.9096  1.5212 -0.8227
11265TIP3    H255287   0.842   2.065   1.923  0.2699 -1.0680  2.9131
11266TIP3   OH255288   2.950   0.516  11.249 -0.0699  0.7579 -0.2000
11266TIP3    H155289   3.019   0.513  11.184 -0.1741 -0.4598 -0.2681
11266TIP3    H255290   2.870   0.492  11.201 -0.0344 -0.8568  0.4982
11267TIP3   OH255291   4.853   3.606  13.221 -0.3233 -0.4568  0.8246
11267TIP3    H155292   4.772   3.591  13.171  0.7132 -0.2526 -0.9965
11267TIP3    H255293   4.867   3.701  13.214  0.5886 -0.6258  0.2607
11268TIP3   OH255294   2.051   1.059  16.992  0.3817 -0.2896  0.6197
11268TIP3    H155295   1.985   1.037  17.058  2.0375 -1.9440  1.8536
11268TIP3    H255296   2.026   1.146  16.961 -1.2510 -0.0245  2.4391
11269TIP3   OH255297   6.787   6.551  14.239  0.2536 -0.1097  0.4610
11269TIP3    H155298   6.825   6.635  14.267 -0.4153 -0.0474  1.2182
11269TIP3    H255299   6.771   6.504  14.321  0.4669 -0.9192  0.0508
11270TIP3   OH255300   2.148   2.778  12.651 -0.1925 -0.0219  0.1359
11270TIP3    H155301   2.162   2.872  12.666  0.6586  0.0406 -0.9267
11270TIP3    H255302   2.211   2.755  12.583  1.2299 -1.8843  1.9677
11271TIP3   OH255303   5.631   0.403  16.790 -0.1530  0.1152 -0.1286
11271TIP3    H155304   5.718   0.443  16.785  0.8921 -2.0416 -0.3725
11271TIP3    H255305   5.584   0.440  16.714  0.1651  2.0331  0.5411
11272TIP3   OH255306   6.476   0.076  15.615 -0.0232 -0.2109  0.0396
11272TIP3    H155307   6.473   0.063  15.709 -3.0988  2.6231  0.4898
11272TIP3    H255308   6.386   0.066  15.585  0.7313 -0.2510 -2.5119
11273TIP3   OH255309   5.774   0.745   4.013 -0.4920  0.8226 -0.0757
11273TIP3    H155310   5.783   0.827   4.061  1.0272 -0.5925  2.2471
11273TIP3    H255311   5.863   0.712   4.002 -1.1441 -1.8810  1.6726
11274TIP3   OH255312   4.316   3.107   2.633  0.0289 -0.1387 -0.0530
11274TIP3    H155313   4.320   3.163   2.710 -0.0595  1.3863 -1.1109
11274TIP3    H255314   4.335   3.166   2.559 -1.0095 -1.2907 -1.3062
11275TIP3   OH255315   6.029   5.800   5.326 -0.2456 -0.1415  0.1618
11275TIP3    H155316   5.990   5.801   5.413 -1.4184  1.0058 -0.3377
11275TIP3    H255317   6.022   5.890   5.295  1.6218 -0.1847 -0.5087
11276TIP3   OH255318   4.548   0.613   5.176  0.0826  0.2924 -0.4104
11276TIP3    H155319   4.582   0.524   5.175  0.7706  0.5219  0.8119
11276TIP3    H255320   4.577   0.649   5.260 -1.9926  0.9729  0.0769
11277TIP3   OH255321   2.754   6.727   5.933 -0.2621 -0.0682 -0.3025
11277TIP3    H155322   2.781   6.735   6.025  0.0680  0.6164 -0.4537
11277TIP3    H255323   2.738   6.633   5.921  1.8499 -0.4965 -0.1529
11278TIP3   OH255324   4.065   6.436  15.244 -0.5110  0.2434 -0.2882
11278TIP3    H155325   4.142   6.462  15.293 -0.3514 -1.4323  0.4240
11278TIP3    H255326   3.991   6.473  15.292 -0.2293  0.4826 -0.0431
11279TIP3   OH255327   6.576   4.422  12.230 -0.0874  0.6959  0.1981
11279TIP3    H155328   6.630   4.344  12.219  1.0623  1.4358  0.4330
11279TIP3    H255329   6.494   4.390  12.268 -0.0601 -0.5205 -0.7349
11280TIP3   OH255330   6.551   5.557   5.477  0.0015  0.2681  0.5347
11280TIP3    H155331   6.513   5.528   5.559 -1.6656  1.0237  0.0640
11280TIP3    H255332   6.596   5.639   5.498  1.3134 -0.5425  1.0544
11281TIP3   OH255333   5.324   6.651  12.820  0.7823  0.3426  0.5259
11281TIP3    H155334   5.380   6.719  12.856  0.6308  1.6201 -1.4568
11281TIP3    H255335   5.319   6.672  12.726 -1.5772 -0.7405  0.3396
11282TIP3   OH255336   6.456   1.454   5.058 -0.1472 -0.0758  0.4344
11282TIP3    H155337   6.452   1.455   5.154  0.0264  0.6121  0.4386
11282TIP3    H255338   6.368   1.478   5.030 -0.9470 -2.7619  0.3807
11283TIP3   OH255339   2.898   5.996   2.193  0.1277  0.0573  0.2068
11283TIP3    H155340   2.853   5.979   2.110  1.8796 -0.8213 -0.5997
11283TIP3    H255341   2.859   5.933   2.254 -0.5637  0.1212 -0.1522
11284TIP3   OH255342   0.883   3.725  17.022  0.2749 -0.0064  0.8394
11284TIP3    H155343   0.803   3.759  16.983  0.5711  1.0086  1.0752
11284TIP3    H255344   0.905   3.648  16.970 -0.3615  0.2293  0.2095
11285TIP3   OH255345   3.537   4.862  10.330 -0.0460 -0.2205 -0.2342
11285TIP3    H155346   3.626   4.871  10.295 -0.2094 -1.1425 -0.9604
11285TIP3    H255347   3.542   4.895  10.419  1.3638 -1.5077  0.2021
11286TIP3   OH255348   1.102   4.901   0.144 -0.2010  0.8902 -0.7284
11286TIP3    H155349   1.085   4.895   0.050  1.0644  2.0882 -1.0690
11286TIP3    H255350   1.177   4.961   0.151  0.1935  0.2561  0.9994
11287TIP3   OH255351   5.514   6.496   1.700 -0.0360  0.2071 -0.1410
11287TIP3    H155352   5.537   6.583   1.665 -1.3633  0.7141  0.2127
11287TIP3    H255353   5.481   6.448   1.624  3.2578 -1.0289 -0.9952
11288TIP3   OH255354   3.875   6.379   1.106  0.1940  0.1017  0.2833
11288TIP3    H155355   3.893   6.470   1.085  1.3257  0.1237  1.2684
11288TIP3    H255356   3.958   6.345   1.139 -0.0397 -1.4519 -0.5989
11289TIP3   OH255357   2.339   3.612   4.738  0.1338 -0.2916 -0.6371
11289TIP3    H155358   2.258   3.562   4.726 -0.7507  0.6577  1.0273
11289TIP3    H255359   2.312   3.704   4.730  0.8429  0.0723  0.8223
11290TIP3   OH255360   6.709   4.320  12.714 -0.2260  0.1063 -0.8522
11290TIP3    H155361   6.754   4.400  12.742 -1.8217  2.0480 -3.3788
11290TIP3    H255362   6.779   4.262  12.684  0.9309  0.6445  0.6611
11291TIP3   OH255363   2.574   0.409  13.803  0.1929  0.2645  0.1115
11291TIP3    H155364   2.621   0.345  13.750  1.8223  0.0556  1.7132
11291TIP3    H255365   2.635   0.432  13.873 -0.9680  2.3245  0.5463
11292TIP3   OH255366   0.822   1.401  15.455  0.0341  0.8146 -0.1367
11292TIP3    H155367   0.867   1.439  15.530 -0.2733  1.6372 -0.3529
11292TIP3    H255368   0.756   1.344  15.493  1.0680 -0.1905  0.1840
11293TIP3   OH255369   5.532   3.523  11.794 -0.2111  0.0289 -0.0580
11293TIP3    H155370   5.558   3.477  11.873 -0.2365 -1.5013 -0.9010
11293TIP3    H255371   5.455   3.476  11.762  0.3811 -0.0214 -1.5218
11294TIP3   OH255372   2.315   5.565  12.812  0.2457 -0.2373 -0.4309
11294TIP3    H155373   2.318   5.474  12.784  0.0170  0.0806 -1.5260
11294TIP3    H255374   2.309   5.561  12.907  0.9325 -1.3544 -0.4230
11295TIP3   OH255375   5.921   4.231  14.806  0.4011  0.2515 -0.4196
11295TIP3    H155376   5.945   4.273  14.888  0.6755 -1.9760  0.7214
11295TIP3    H255377   5.851   4.170  14.830  1.1124 -1.0996 -1.6528
11296TIP3   OH255378   6.374   1.125   0.738 -0.1607  0.4642  0.3119
11296TIP3    H155379   6.449   1.181   0.755  0.8612 -0.6849 -0.2385
11296TIP3    H255380   6.397   1.078   0.658 -1.9493  0.8702 -0.4959
11297TIP3   OH255381   6.483   5.693  10.774  0.5485  0.1753 -0.2297
11297TIP3    H155382   6.484   5.739  10.858  0.1088  1.0821 -0.7077
11297TIP3    H255383   6.429   5.748  10.717  0.2561 -0.7890 -0.9079
11298TIP3   OH255384   6.460   5.914   4.466  0.4127  0.1578 -0.0731
11298TIP3    H155385   6.524   5.979   4.438 -1.5062  2.6923  1.0389
11298TIP3    H255386   6.376   5.947   4.435 -0.9857 -0.3454  2.7953
11299TIP3   OH255387   6.809   2.450  15.128  0.3697 -0.2235  0.1677
11299TIP3    H155388   6.800   2.358  15.104  0.8935 -0.8516  2.1739
11299TIP3    H255389   6.858   2.489  15.056 -1.2085 -1.1148 -1.4760
11300TIP3   OH255390   0.329   2.517  16.360  0.2225  0.4906  0.7096
11300TIP3    H155391   0.377   2.600  16.355 -1.1658  1.2817  0.0099
11300TIP3    H255392   0.398   2.450  16.357  1.2547  1.5219 -2.3128
11301TIP3   OH255393   2.481   0.577  12.113  0.1033  0.1451 -0.4534
11301TIP3    H155394   2.559   0.609  12.157 -1.0447 -0.2853  2.1235
11301TIP3    H255395   2.507   0.494  12.073  1.0275  0.1361  0.1548
11302TIP3   OH255396   0.806   2.355   1.027  0.5669  0.7309  0.6358
11302TIP3    H155397   0.845   2.350   0.940 -2.8178  0.2105 -1.0451
11302TIP3    H255398   0.803   2.449   1.046  0.2058  0.9501 -0.4226
11303TIP3   OH255399   2.482   6.052  16.873 -0.0196 -0.2779  0.1213
11303TIP3    H155400   2.470   5.958  16.879 -0.1309 -0.3827 -1.3610
11303TIP3    H255401   2.398   6.085  16.840 -0.5215  0.5466  2.0682
11304TIP3   OH255402   0.556   1.801  13.199  0.0985 -0.3758  0.1451
11304TIP3    H155403   0.619   1.729  13.205  0.0082 -0.7104 -2.2561
11304TIP3    H255404   0.474   1.762  13.228  0.5379 -0.5222  1.2480
11305TIP3   OH255405   1.320   4.218   4.469  0.4057  0.0497  0.1497
11305TIP3    H155406   1.414   4.208   4.452  0.4918  0.6723  0.2423
11305TIP3    H255407   1.291   4.284   4.406  0.0243 -0.1585  0.1072
11306TIP3   OH255408   4.912   3.883   4.640 -0.5666 -0.1364 -0.2082
11306TIP3    H155409   4.914   3.820   4.568 -0.8883 -2.9440  2.0727
11306TIP3    H255410   4.819   3.897   4.657 -0.5306 -1.1037  0.9099
11307TIP3   OH255411   2.898   1.804   3.929  0.2701  0.2992 -0.7702
11307TIP3    H155412   2.845   1.736   3.970 -0.0148  0.9131 -0.1102
11307TIP3    H255413   2.926   1.766   3.845  0.6312 -0.8545 -0.1403
11308TIP3   OH255414   2.823   4.012   6.552  0.5671  0.1985 -0.4586
11308TIP3    H155415   2.775   4.049   6.478  0.3679  1.3244  0.2142
11308TIP3    H255416   2.902   4.066   6.560 -0.0478  0.9528  0.9401
11309TIP3   OH255417   0.339   2.512  11.218  0.0839  0.1830 -0.1564
11309TIP3    H155418   0.373   2.422  11.215  0.5642  0.3042 -4.9286
11309TIP3    H255419   0.257   2.504  11.267  1.8351 -1.9991  2.7924
11310TIP3   OH255420   6.168   1.592  14.844 -0.1383 -0.2659  0.2957
11310TIP3    H155421   6.086   1.627  14.879 -1.4744 -1.6531 -1.2369
11310TIP3    H255422   6.235   1.655  14.870 -2.1303  2.5988 -0.9753
11311TIP3   OH255423   3.780   2.552  11.509 -0.1304  0.2462 -0.4662
11311TIP3    H155424   3.846   2.492  11.475  1.4717  1.6185  0.0698
11311TIP3    H255425   3.800   2.559  11.602 -0.4378  1.3925 -0.4696
11312TIP3   OH255426   4.440   0.936  11.651  0.7673 -0.5926  0.0762
11312TIP3    H155427   4.411   0.854  11.691  2.0813 -1.5207 -0.7599
11312TIP3    H255428   4.474   0.909  11.565  2.7002  0.5811  0.4220
11313TIP3   OH255429   4.618   4.369   4.809 -0.3642 -0.1590 -0.0197
11313TIP3    H155430   4.611   4.380   4.714 -1.5582 -1.1832 -0.0703
11313TIP3    H255431   4.703   4.326   4.822 -1.1833 -2.1525 -0.8599
11314TIP3   OH255432   0.453   3.158  11.161  0.1994 -0.0635  0.2971
11314TIP3    H155433   0.446   3.068  11.193  1.4703 -0.9431 -1.6826
11314TIP3    H255434   0.485   3.208  11.237  0.1901 -1.4199  1.2378
11315TIP3   OH255435   4.383   2.605  11.964 -0.0387 -0.2460  0.2103
11315TIP3    H155436   4.442   2.628  12.036 -2.1437  0.5786  1.7908
11315TIP3    H255437   4.398   2.672  11.898 -0.9592  1.5381  1.7090
11316TIP3   OH255438   5.447   2.796  13.583  0.0031 -0.0887  0.1579
11316TIP3    H155439   5.412   2.816  13.497  0.6099 -0.8840 -0.2884
11316TIP3    H255440   5.519   2.736  13.566 -0.0651 -0.4985  1.2414
11317TIP3   OH255441   6.516   4.395  14.327 -0.2684  0.3708 -0.1648
11317TIP3    H155442   6.446   4.339  14.294  0.2048  0.9101 -2.2958
11317TIP3    H255443   6.470   4.468  14.370 -0.9142 -0.6727  0.9631
11318TIP3   OH255444   3.174   5.797  15.534 -0.5130 -0.4872  0.6372
11318TIP3    H155445   3.202   5.887  15.518 -2.1206 -0.0027  0.3206
11318TIP3    H255446   3.146   5.795  15.625  0.8470 -1.0607  1.0623
11319TIP3   OH255447   2.155   5.296   5.090 -0.0641  0.1641  0.0789
11319TIP3    H155448   2.211   5.344   5.028 -1.1785  2.1472  0.5340
11319TIP3    H255449   2.143   5.210   5.050  0.5799  0.8408 -1.6568
11320TIP3   OH255450   2.639   4.465  11.292 -0.2191  0.7100  0.1160
11320TIP3    H155451   2.550   4.500  11.290 -0.2797  0.5844 -2.3508
11320TIP3    H255452   2.653   4.428  11.205  1.0653 -2.4214  1.4931
11321TIP3   OH255453   2.950   1.076   6.044  0.2401 -0.0792  0.3633
11321TIP3    H155454   2.995   1.121   5.973 -0.5349 -1.2951 -0.9614
11321TIP3    H255455   2.880   1.135   6.071 -0.8568 -0.4741 -1.4480
11322TIP3   OH255456   6.136   2.501   2.598  0.0456 -0.0907 -0.1441
11322TIP3    H155457   6.084   2.577   2.572 -0.2927  0.2143  1.3302
11322TIP3    H255458   6.160   2.518   2.689 -0.9597 -2.2156  0.5806
11323TIP3   OH255459   6.634   5.662   2.513  0.6208 -0.0064  0.1397
11323TIP3    H155460   6.547   5.664   2.474 -0.1346  1.4272  1.7588
11323TIP3    H255461   6.625   5.710   2.595  2.3252 -2.1335  1.6890
11324TIP3   OH255462   4.447   0.214   3.461 -0.0556  0.4734  0.3824
11324TIP3    H155463   4.357   0.183   3.457 -0.7110  2.2566  0.5226
11324TIP3    H255464   4.474   0.196   3.552 -0.4805  0.5156  0.5186
11325TIP3   OH255465   5.112   6.050  14.294  0.1447  0.1792 -0.8183
11325TIP3    H155466   5.204   6.077  14.297 -0.4674  2.3833  0.2725
11325TIP3    H255467   5.091   6.046  14.201  1.4316 -0.8598 -1.1039
11326TIP3   OH255468   2.065   0.719   4.371 -0.4232  0.0685  0.3275
11326TIP3    H155469   2.139   0.659   4.364 -0.1351  0.3495  0.8704
11326TIP3    H255470   2.043   0.720   4.465 -1.6565 -0.6460  0.0757
11327TIP3   OH255471   2.283   2.978  14.129  0.0623  0.1001 -0.4621
11327TIP3    H155472   2.205   3.032  14.129  0.5507  0.8192 -0.8742
11327TIP3    H255473   2.325   2.995  14.213 -0.6681 -0.9772  0.1576
11328TIP3   OH255474   2.186   4.501   4.857 -0.0397 -0.1469  0.4586
11328TIP3    H155475   2.253   4.487   4.925 -1.0034 -2.1799  1.0692
11328TIP3    H255476   2.107   4.462   4.894 -1.3355  1.2806 -0.6849
11329TIP3   OH255477   2.561   6.484   5.333  0.4444  0.5198  0.2536
11329TIP3    H155478   2.527   6.395   5.320  2.1744  0.2973 -4.3093
11329TIP3    H255479   2.655   6.471   5.347  0.5597  1.6132  0.5284
11330TIP3   OH255480   5.218   2.389  12.240  0.5621 -0.1228 -0.1681
11330TIP3    H155481   5.293   2.389  12.301  0.8757 -1.0597 -0.5369
11330TIP3    H255482   5.251   2.434  12.162 -0.2954  2.4477  0.8393
11331TIP3   OH255483   3.062   4.912   1.418  0.6270  0.1857  0.0711
11331TIP3    H155484   3.131   4.852   1.392  1.0937 -0.7037  2.9765
11331TIP3    H255485   3.100   4.999   1.406  1.9572 -0.2702  0.7689
11332TIP3   OH255486   2.832   1.636  10.534 -0.1876 -0.4250  0.5774
11332TIP3    H155487   2.828   1.677  10.447  0.5264 -1.8208 -0.1510
11332TIP3    H255488   2.867   1.704  10.591  0.8937  0.0201 -0.5714
11333TIP3   OH255489   4.984   0.631   4.229 -0.3020 -0.3663 -0.0282
11333TIP3    H155490   5.034   0.708   4.255 -0.4325  0.0939 -1.0934
11333TIP3    H255491   5.004   0.566   4.296  0.7546  0.2056  0.2345
11334TIP3   OH255492   3.890   0.445  16.456  0.1188 -0.5436 -0.1620
11334TIP3    H155493   3.813   0.470  16.405  1.4043  2.2182 -0.9314
11334TIP3    H255494   3.921   0.364  16.414 -1.0092 -0.3847 -1.3589
11335TIP3   OH255495   0.755   0.937   4.166 -0.4558  0.2369 -0.6500
11335TIP3    H155496   0.757   0.885   4.246  0.3895  0.0994 -0.7507
11335TIP3    H255497   0.774   1.026   4.194 -1.1358  0.3653 -0.5783
11336TIP3   OH255498   4.834   5.735   6.100 -0.1262  0.1308 -0.2476
11336TIP3    H155499   4.800   5.823   6.085  0.6655  0.4792 -0.0498
11336TIP3    H255500   4.895   5.745   6.173  0.8104 -0.3570 -0.9374
11337TIP3   OH255501   0.348   6.611   1.140  0.5589  0.7626 -0.1256
11337TIP3    H155502   0.305   6.659   1.069 -0.0899 -1.6393 -1.4868
11337TIP3    H255503   0.311   6.523   1.135  1.9989 -0.0431  1.9405
11338TIP3   OH255504   3.407   3.521  11.112  0.3204  0.4652  0.6751
11338TIP3    H155505   3.457   3.495  11.035 -0.7192  0.4504 -0.0114
11338TIP3    H255506   3.449   3.474  11.184  4.3727  3.9816  1.0331
11339TIP3   OH255507   2.674   5.327  15.872 -0.5192 -0.2656  0.0459
11339TIP3    H155508   2.768   5.312  15.881 -0.3750 -0.2762 -1.3243
11339TIP3    H255509   2.666   5.388  15.799 -1.4921  1.1325  1.2570
11340TIP3   OH255510   1.534   1.808  13.667  0.1424 -0.3999 -0.0430
11340TIP3    H155511   1.517   1.900  13.688  0.6368 -0.3148  0.0031
11340TIP3    H255512   1.534   1.764  13.752  0.4784 -0.3432 -0.0135
11341TIP3   OH255513   3.985   0.375  16.150 -0.0535  0.1189  0.1067
11341TIP3    H155514   3.954   0.445  16.093 -0.2640  2.7008  3.1159
11341TIP3    H255515   4.080   0.373  16.137 -0.1507  0.2823 -0.6694
11342TIP3   OH255516   0.759   1.740  14.001  0.0212 -0.6126  0.1171
11342TIP3    H155517   0.827   1.808  13.991 -1.9723  1.2537 -1.8307
11342TIP3    H255518   0.764   1.689  13.920 -0.4393 -0.9262  0.2833
11343TIP3   OH255519   0.633   4.940   3.685  0.0223  0.2299  0.3966
11343TIP3    H155520   0.645   4.849   3.657 -1.3828  0.4339 -1.0209
11343TIP3    H255521   0.546   4.941   3.726 -0.3753  1.0898 -0.4263
11344TIP3   OH255522   6.834   5.778   1.496 -0.3204 -0.0822  0.1547
11344TIP3    H155523   6.916   5.826   1.485 -0.0343 -0.7233 -0.6208
11344TIP3    H255524   6.858   5.697   1.540 -0.8111  0.4847  1.5044
11345TIP3   OH255525   1.928   6.106   2.760  0.5380  0.9145 -0.3543
11345TIP3    H155526   1.837   6.137   2.754  0.3392  0.0727 -3.4880
11345TIP3    H255527   1.924   6.034   2.823 -0.6173  1.8935  0.7548
11346TIP3   OH255528   2.026   4.323  13.432  0.0535 -0.7780  0.0696
11346TIP3    H155529   1.954   4.355  13.378  1.9315  2.1653 -0.9498
11346TIP3    H255530   2.103   4.330  13.375  1.3675 -2.7742  1.4577
11347TIP3   OH255531   3.921   5.920  14.229 -0.3533 -0.4219 -0.0884
11347TIP3    H155532   3.863   5.933  14.154 -1.4674 -0.3161  0.7656
11347TIP3    H255533   3.871   5.862  14.287  0.2415 -0.0152  0.8367
11348TIP3   OH255534   5.545   0.031   6.623 -0.2909 -0.6590  0.6823
11348TIP3    H155535   5.513  -0.053   6.656 -1.6898 -0.7114 -0.6994
11348TIP3    H255536   5.632   0.013   6.589 -0.7583 -1.6850 -0.0253
11349TIP3   OH255537   1.997   0.314   6.205  0.1092 -0.2884  0.3254
11349TIP3    H155538   2.011   0.313   6.300  1.1093 -2.4685  0.2057
11349TIP3    H255539   2.083   0.331   6.168 -0.5026  1.9167 -0.2260
11350TIP3   OH255540   5.924   3.132  13.288 -0.1908  0.3368  0.0052
11350TIP3    H155541   5.912   3.160  13.379 -1.0004 -0.4354  0.1572
11350TIP3    H255542   5.985   3.058  13.294  0.2438  0.6756 -0.1585
11351TIP3   OH255543   2.423   4.294   1.974 -0.2982  0.1227 -0.2424
11351TIP3    H155544   2.356   4.360   1.992  0.2975  0.5790  0.3501
11351TIP3    H255545   2.426   4.240   2.053  1.3381  1.2685  0.5507
11352TIP3   OH255546   0.339   6.363   4.402 -0.8412  0.1702 -0.2898
11352TIP3    H155547   0.287   6.364   4.482 -0.0362  0.5766  0.2388
11352TIP3    H255548   0.390   6.282   4.407 -0.9275  0.1000 -0.4930
11353TIP3   OH255549   5.083   1.822   4.056  0.3648  0.3695 -0.5424
11353TIP3    H155550   5.137   1.901   4.060  0.7937  0.1240 -1.2896
11353TIP3    H255551   4.995   1.854   4.035  0.2560  0.7556  0.4884
11354TIP3   OH255552   5.382   5.199   3.027 -0.1290 -0.5821  0.1718
11354TIP3    H155553   5.474   5.185   3.048 -0.2245 -1.5402 -0.0089
11354TIP3    H255554   5.336   5.123   3.065 -1.4866  1.9200  4.1970
11355TIP3   OH255555   4.707   0.930  15.313  0.0660  0.5080  0.2621
11355TIP3    H155556   4.719   0.843  15.276 -1.9211 -0.7170  2.2302
11355TIP3    H255557   4.790   0.949  15.357  0.2112 -0.8629  0.6408
11356TIP3   OH255558   5.704   3.009  11.737  0.0858  0.3970 -0.3744
11356TIP3    H155559   5.741   2.992  11.651  0.0828 -0.2749 -0.2469
11356TIP3    H255560   5.774   2.987  11.798 -0.7320 -1.6225 -0.0972
11357TIP3   OH255561   3.588   4.478  16.059 -0.5867 -0.1565  0.1922
11357TIP3    H155562   3.608   4.530  16.136  1.3753 -0.4594 -0.0505
11357TIP3    H255563   3.553   4.541  15.996 -0.0295  0.5091  0.5402
11358TIP3   OH255564   2.643   1.078   3.358 -0.4546  0.0440  0.4759
11358TIP3    H155565   2.586   1.154   3.363  0.1511  0.5388  0.0248
11358TIP3    H255566   2.721   1.109   3.313 -1.3465 -1.5384 -2.3731
11359TIP3   OH255567   4.128   6.520   3.760  0.2894  0.4154 -0.9234
11359TIP3    H155568   4.108   6.533   3.667  1.5315  2.7223 -0.9495
11359TIP3    H255569   4.058   6.566   3.806 -0.6756 -1.2566 -0.6484
11360TIP3   OH255570   4.581   1.366  14.735  0.8014  0.1843 -0.2389
11360TIP3    H155571   4.631   1.446  14.752  0.8871  0.4973 -1.8180
11360TIP3    H255572   4.551   1.338  14.821  2.4343  0.8164  0.5837
11361TIP3   OH255573   3.771   1.519  15.136  0.4751  0.5322 -0.2171
11361TIP3    H155574   3.825   1.484  15.206 -0.9029 -0.6215  0.3294
11361TIP3    H255575   3.734   1.442  15.092 -4.1524  1.0207  2.2008
11362TIP3   OH255576   6.089   3.815  11.696  0.4725 -0.0554 -0.1804
11362TIP3    H155577   6.156   3.846  11.634  0.3592  2.0092  0.6760
11362TIP3    H255578   6.006   3.828  11.650  0.4628  0.3709 -0.0434
11363TIP3   OH255579   6.069   0.664   0.397  0.3614 -0.0911 -0.1766
11363TIP3    H155580   6.081   0.684   0.490  0.3841 -0.4155 -0.1081
11363TIP3    H255581   5.975   0.643   0.390  0.4069 -0.2996 -0.1799
11364TIP3   OH255582   2.436   1.417   4.092 -0.3650 -0.3504  0.1172
11364TIP3    H155583   2.524   1.408   4.129  1.0595  2.2782 -2.2585
11364TIP3    H255584   2.431   1.351   4.023  0.8127  1.0982 -1.4271
11365TIP3   OH255585   5.072   5.439  12.666  0.0195 -0.1116 -0.0148
11365TIP3    H155586   5.105   5.400  12.747 -0.7256  0.9825  0.8505
11365TIP3    H255587   5.057   5.365  12.608 -1.1083 -1.1271  1.4683
11366TIP3   OH255588   3.464   0.946  14.632 -0.1172 -0.3739  0.3468
11366TIP3    H155589   3.383   0.899  14.648 -0.6658  0.3866 -0.1119
11366TIP3    H255590   3.445   1.036  14.658  0.1563  0.0921 -1.0018
11367TIP3   OH255591   2.416   6.411  13.804  0.2144  0.1948  0.1728
11367TIP3    H155592   2.401   6.334  13.859 -1.1149  1.1092  1.1311
11367TIP3    H255593   2.404   6.379  13.714  1.8661 -1.1890  0.3889
11368TIP3   OH255594   5.471   3.402   2.693 -0.4510 -0.1101 -0.0663
11368TIP3    H155595   5.408   3.387   2.762 -0.1752 -0.3575  0.1328
11368TIP3    H255596   5.433   3.472   2.640 -1.1126 -0.5789 -0.2224
11369TIP3   OH255597   3.582   1.244   1.721  0.0313 -0.2044 -0.4532
11369TIP3    H155598   3.652   1.201   1.771 -0.4731  0.5394  0.9691
11369TIP3    H255599   3.617   1.252   1.632  1.3088 -0.8435 -0.0362
11370TIP3   OH255600   2.016   2.219  16.692 -0.6008 -0.4865  0.1790
11370TIP3    H155601   2.001   2.201  16.599 -1.6962  0.2799  0.1828
11370TIP3    H255602   2.046   2.136  16.728 -0.3397 -0.8448 -0.8179
11371TIP3   OH255603   3.645   4.650  12.395 -0.1320  0.6996 -0.5744
11371TIP3    H155604   3.616   4.659  12.486  0.5724  4.3589 -0.5523
11371TIP3    H255605   3.564   4.656  12.344 -0.3270  1.0435 -0.2333
11372TIP3   OH255606   1.943   1.932  15.445  0.1260  0.2495 -0.2809
11372TIP3    H155607   2.015   1.880  15.480 -0.9420 -2.1679 -1.4204
11372TIP3    H255608   1.979   1.975  15.367  1.0726  1.4817  0.7849
11373TIP3   OH255609   5.379   0.640   0.322 -0.0305 -0.3367  0.1214
11373TIP3    H155610   5.355   0.583   0.249  1.3568 -1.1552  0.2579
11373TIP3    H255611   5.397   0.725   0.282  1.1369 -0.8866 -0.5827
11374TIP3   OH255612   1.278   2.561   0.610  0.3719 -0.0165  0.3733
11374TIP3    H155613   1.320   2.642   0.584  0.9463 -0.8449 -1.4508
11374TIP3    H255614   1.347   2.495   0.605 -1.0947 -1.5737 -3.4315
11375TIP3   OH255615   0.488   3.147  12.858  0.2405  0.5989 -0.4079
11375TIP3    H155616   0.547   3.194  12.799  0.9595  1.9130  1.2845
11375TIP3    H255617   0.527   3.060  12.866  0.1736  0.4314 -1.7875
11376TIP3   OH255618   6.390   1.797  15.867 -0.1667  0.6167 -0.5180
11376TIP3    H155619   6.382   1.728  15.801  0.9530 -1.3409  1.2479
11376TIP3    H255620   6.441   1.865  15.824 -1.6934  0.6310 -2.4762
11377TIP3   OH255621   2.912   4.620   0.668 -0.1216 -0.4750  0.3373
11377TIP3    H155622   2.918   4.671   0.749 -0.6698 -0.4240  0.3471
11377TIP3    H255623   2.883   4.533   0.696 -0.5189 -0.3948  0.1686
11378TIP3   OH255624   6.169   6.662   3.444  0.4023 -0.0312  0.1023
11378TIP3    H155625   6.114   6.713   3.384 -0.3838  0.2557  1.0500
11378TIP3    H255626   6.147   6.571   3.424  3.4179 -0.2772 -3.1679
11379TIP3   OH255627   2.474   2.766  11.623 -0.1549  0.1701 -0.0045
11379TIP3    H155628   2.538   2.738  11.689  2.3275  1.0202 -1.8824
11379TIP3    H255629   2.487   2.706  11.550 -0.6641  1.0733 -0.8653
11380TIP3   OH255630   2.946   3.885  13.748 -0.4272 -0.1505 -0.0193
11380TIP3    H155631   2.920   3.962  13.699  0.3922  0.3352  0.2907
11380TIP3    H255632   2.871   3.864  13.802 -1.0108 -0.1546 -0.8103
11381TIP3   OH255633   6.737   2.148   6.348 -0.2793  0.7783 -0.2475
11381TIP3    H155634   6.774   2.063   6.324  2.2248  1.7772 -0.3272
11381TIP3    H255635   6.751   2.155   6.442 -0.0699  1.2526 -0.3087
11382TIP3   OH255636   4.762   4.724  14.221  0.0329  0.7669 -0.8521
11382TIP3    H155637   4.847   4.763  14.242 -0.1335  0.7655 -0.1532
11382TIP3    H255638   4.700   4.770  14.277 -0.2425 -0.1177 -0.4107
11383TIP3   OH255639   2.212   2.043   1.855 -0.6237 -0.3313 -0.1863
11383TIP3    H155640   2.272   1.976   1.889  0.1490 -0.0151 -0.8933
11383TIP3    H255641   2.127   2.000   1.854 -0.3880 -0.8570  0.6520
11384TIP3   OH255642   1.533   5.633  16.300  0.3399 -0.2262 -0.3756
11384TIP3    H155643   1.515   5.578  16.377  0.5246 -0.5071 -0.5342
11384TIP3    H255644   1.456   5.621  16.244  0.8814 -1.1932 -0.9171
11385TIP3   OH255645   2.858   4.127   0.022  0.0556 -0.2347  0.3333
11385TIP3    H155646   2.887   4.120   0.113  1.8942  0.2039 -0.1784
11385TIP3    H255647   2.806   4.207   0.019  0.6535  0.1815  0.8554
11386TIP3   OH255648   4.830   0.555  15.556 -0.0138  0.4096  0.3210
11386TIP3    H155649   4.909   0.592  15.517  0.1582 -1.1147 -0.8504
11386TIP3    H255650   4.782   0.516  15.483  0.6856 -3.2623  1.6146
11387TIP3   OH255651   0.656   0.760  17.045  0.3934 -0.1999  0.4595
11387TIP3    H155652   0.676   0.797  16.959  0.0110  2.2185  1.3291
11387TIP3    H255653   0.704   0.678  17.048  0.3680 -0.3770 -2.0662
11388TIP3   OH255654   6.398   1.307  12.260  0.5804  0.4465 -0.1845
11388TIP3    H155655   6.386   1.276  12.170 -1.8586 -0.0670  0.2523
11388TIP3    H255656   6.386   1.229  12.314 -0.7928  1.2421  0.7019
11389TIP3   OH255657   0.121   0.531  13.720  1.0411  0.5899  0.5208
11389TIP3    H155658   0.077   0.503  13.801  1.8607  0.7780  1.0388
11389TIP3    H255659   0.108   0.458  13.660  0.8443  0.2377  0.9791
11390TIP3   OH255660   0.581   3.617   3.896  0.4466 -0.4566  0.2253
11390TIP3    H155661   0.670   3.651   3.909  0.5247 -1.1138  1.5877
11390TIP3    H255662   0.582   3.532   3.939 -1.8085  0.9821  3.5598
11391TIP3   OH255663   5.431   0.226   4.681 -0.0550  0.3533  0.3582
11391TIP3    H155664   5.396   0.310   4.653 -2.0573 -0.9142 -1.1713
11391TIP3    H255665   5.505   0.209   4.622  0.0690  0.8117  0.3780
11392TIP3   OH255666   6.408   4.650   1.472 -0.1866  0.0984 -0.0774
11392TIP3    H155667   6.393   4.600   1.392 -0.0395  1.3484 -0.9185
11392TIP3    H255668   6.460   4.725   1.444 -4.0566  3.2112  0.1920
11393TIP3   OH255669   6.810   0.178  14.914 -0.5773 -0.2876  0.5836
11393TIP3    H155670   6.764   0.127  14.980 -1.4721 -0.7558 -0.3737
11393TIP3    H255671   6.903   0.167  14.935 -0.8181 -1.0852  1.2746
11394TIP3   OH255672   5.039   5.509  16.761 -0.1246  0.1006  0.2908
11394TIP3    H155673   5.104   5.510  16.690  0.1255  0.2550  0.5211
11394TIP3    H255674   4.967   5.563  16.728 -0.4552 -0.6593 -0.2553
11395TIP3   OH255675   2.091   6.660  12.688  0.3366 -0.4887 -0.4191
11395TIP3    H155676   2.021   6.723  12.672  0.7354  0.1355  0.2372
11395TIP3    H255677   2.057   6.601  12.755  1.8088  2.2892  3.1252
11396TIP3   OH255678   1.321   2.877   0.192  0.0284  0.2142  0.2360
11396TIP3    H155679   1.323   2.890   0.097  0.7997  0.6118  0.3015
11396TIP3    H255680   1.313   2.965   0.228  1.8874  0.2737  0.5889
11397TIP3   OH255681   4.214   2.154  10.826  0.5270  0.0648  0.0926
11397TIP3    H155682   4.246   2.226  10.881 -0.1691  0.6294 -0.2244
11397TIP3    H255683   4.135   2.189  10.784 -0.1612 -1.0817  0.3783
11398TIP3   OH255684   6.003   2.794   2.614 -0.0546 -0.5979 -0.2451
11398TIP3    H155685   6.097   2.780   2.623 -0.0385 -2.0245 -1.9715
11398TIP3    H255686   5.995   2.873   2.561  0.0879  0.4981  1.2946
11399TIP3   OH255687   3.247   1.216  16.348 -0.3034 -0.2365  0.4819
11399TIP3    H155688   3.277   1.186  16.263 -0.2661  0.2581  0.3158
11399TIP3    H255689   3.158   1.181  16.356 -0.6520  0.4808 -0.1609
11400TIP3   OH255690   3.737   4.585  15.803 -0.1981  0.2557  0.2924
11400TIP3    H155691   3.642   4.592  15.791 -0.2126 -1.6338 -1.3589
11400TIP3    H255692   3.774   4.635  15.731  0.1199  1.4824  1.2705
11401TIP3   OH255693   1.415   0.065  16.747 -0.2061  0.3160 -1.0180
11401TIP3    H155694   1.405   0.157  16.771 -0.8765 -0.0609  0.2354
11401TIP3    H255695   1.456   0.067  16.660  2.1017  1.7464  0.0216
11402TIP3   OH255696   1.550   5.148   4.780  0.2200 -0.4619 -0.3840
11402TIP3    H155697   1.565   5.085   4.851  0.8310 -1.4538 -1.3683
11402TIP3    H255698   1.574   5.101   4.700  0.5027  0.9575 -1.1689
11403TIP3   OH255699   0.879   2.056   0.992  0.7360  0.0854  0.2122
11403TIP3    H155700   0.826   1.979   0.971 -0.2778  0.5001  1.1506
11403TIP3    H255701   0.888   2.101   0.909  1.9734 -1.4002 -0.5127
11404TIP3   OH255702   4.317   5.337  12.337  0.3801  0.3305  0.2395
11404TIP3    H155703   4.410   5.336  12.316  0.6651  0.4903  1.4107
11404TIP3    H255704   4.310   5.398  12.410 -0.9111  1.6947 -0.9732
11405TIP3   OH255705   3.698   1.528  14.366 -0.3225 -0.4422 -0.2251
11405TIP3    H155706   3.623   1.581  14.338 -0.6315 -0.5578  0.3584
11405TIP3    H255707   3.731   1.572  14.444 -0.2678 -0.8223 -0.0280
11406TIP3   OH255708   0.146   3.800  11.671  0.1316 -0.2326  0.2274
11406TIP3    H155709   0.066   3.790  11.723 -0.5767 -0.7673 -0.9197
11406TIP3    H255710   0.216   3.801  11.736 -0.7949  0.2163  1.2629
11407TIP3   OH255711   6.320   1.562   3.166 -0.7164  0.1225 -0.2600
11407TIP3    H155712   6.290   1.622   3.234  0.0622  1.3869 -1.0091
11407TIP3    H255713   6.300   1.606   3.084  1.3197  0.1068 -0.8081
11408TIP3   OH255714   2.983   0.943  13.443 -0.0793 -0.3790 -0.0653
11408TIP3    H155715   2.900   0.983  13.416 -0.6731 -0.3534  1.6687
11408TIP3    H255716   2.997   0.873  13.379 -0.5147  0.7264 -1.4183
11409TIP3   OH255717   1.178   3.067   5.930 -0.4338  0.2926 -0.1587
11409TIP3    H155718   1.259   3.016   5.919 -1.2252 -0.6470 -2.1358
11409TIP3    H255719   1.150   3.086   5.840 -1.5971  1.9312  0.5241
11410TIP3   OH255720   0.839   3.303   5.883  0.6041  0.3566 -0.4745
11410TIP3    H155721   0.788   3.336   5.809 -0.4498  1.3727  0.6459
11410TIP3    H255722   0.859   3.381   5.935 -0.9672 -0.5698  1.6776
11411TIP3   OH255723   4.839   5.883   1.889  0.4017 -0.5363  0.0276
11411TIP3    H155724   4.842   5.965   1.840 -2.0171  0.6933  1.7298
11411TIP3    H255725   4.846   5.815   1.823  1.5950  1.0216 -1.5257
11412TIP3   OH255726   3.298   5.926  12.927 -0.0165  0.4553 -0.4871
11412TIP3    H155727   3.252   5.974  12.996 -0.7121  0.5364 -0.9973
11412TIP3    H255728   3.342   5.855  12.973  0.0543  0.8790  0.1232
11413TIP3   OH255729   0.832   3.314  16.069 -0.8183  0.2469 -0.5579
11413TIP3    H155730   0.821   3.409  16.076 -2.4496  0.1735 -1.7399
11413TIP3    H255731   0.926   3.302  16.057 -0.5072  1.6565  0.2602
11414TIP3   OH255732   1.256   1.854   0.741 -0.5854  0.0307 -0.7718
11414TIP3    H155733   1.335   1.876   0.692  0.8528 -0.7377  1.0641
11414TIP3    H255734   1.216   1.782   0.692 -0.4689  0.7721 -1.9998
11415TIP3   OH255735   2.222   1.596   4.107 -0.4601 -0.6269 -0.1346
11415TIP3    H155736   2.169   1.583   4.029  1.1158  0.9246 -1.5533
11415TIP3    H255737   2.292   1.531   4.099  0.1198  0.0211 -0.4353
11416TIP3   OH255738   4.118   3.568   3.043  0.3227  0.3088 -0.3698
11416TIP3    H155739   4.133   3.493   2.985  0.9912  1.1542 -1.3184
11416TIP3    H255740   4.205   3.604   3.058  0.1197  0.3108  0.9124
11417TIP3   OH255741   1.549   5.154   3.174 -0.2187 -0.2101  0.2691
11417TIP3    H155742   1.467   5.141   3.128 -1.5936  0.9754  2.2563
11417TIP3    H255743   1.560   5.249   3.179  0.8548 -0.3338  0.7473
11418TIP3   OH255744   1.702   6.515  14.434  0.2363  0.0480  0.4761
11418TIP3    H155745   1.767   6.583  14.412 -0.0001  0.2901  0.5220
11418TIP3    H255746   1.650   6.506  14.355 -0.7813  1.1022  0.9959
11419TIP3   OH255747   4.620   6.079  14.856 -0.0532 -0.4890  0.0156
11419TIP3    H155748   4.613   6.073  14.951 -1.3543  0.2193 -0.0063
11419TIP3    H255749   4.695   6.024  14.833  0.0432 -0.9622  1.4078
11420TIP3   OH255750   2.227   6.768  12.403 -0.0383  0.0924  0.3717
11420TIP3    H155751   2.191   6.716  12.475  0.5227  0.0416  0.6193
11420TIP3    H255752   2.192   6.856  12.418  0.3518  0.1653  0.9144
11421TIP3   OH255753   1.281   0.241  14.878 -0.0769 -0.0945  0.0177
11421TIP3    H155754   1.309   0.333  14.870 -0.1906 -0.1460 -1.2932
11421TIP3    H255755   1.185   0.245  14.871 -0.0471 -0.3461 -0.6435
11422TIP3   OH255756   3.177   3.760  14.144  0.1563 -0.6129 -0.1979
11422TIP3    H155757   3.128   3.723  14.070  0.3417 -0.2167 -0.5158
11422TIP3    H255758   3.256   3.706  14.150 -0.9152 -2.1605  1.1739
11423TIP3   OH255759   5.732   5.167   2.819 -0.0593  0.1617  0.4472
11423TIP3    H155760   5.703   5.148   2.907 -0.7063  1.5475  0.5581
11423TIP3    H255761   5.728   5.083   2.773 -2.8540 -0.0148  0.8471
11424TIP3   OH255762   0.231   4.451   5.463  0.0269  0.5004 -0.0629
11424TIP3    H155763   0.229   4.380   5.527 -1.5830  1.9046  1.5532
11424TIP3    H255764   0.281   4.521   5.506 -0.7591  1.3328 -0.4626
11425TIP3   OH255765   2.241   3.682   3.545  0.1392 -0.1944 -0.1809
11425TIP3    H155766   2.235   3.661   3.452  0.4238 -1.2739  0.0235
11425TIP3    H255767   2.218   3.774   3.551 -3.4483 -0.8910 -0.9337
11426TIP3   OH255768   1.031   5.324   0.644  0.4715 -0.2511  0.0400
11426TIP3    H155769   1.073   5.272   0.712  0.8696  0.0072 -0.0069
11426TIP3    H255770   1.103   5.358   0.591  0.1828 -0.1783 -0.3154
11427TIP3   OH255771   2.540   3.146   3.166 -1.0133 -0.3970 -0.3704
11427TIP3    H155772   2.498   3.063   3.143 -1.2300 -0.2526 -0.5067
11427TIP3    H255773   2.575   3.132   3.254 -2.1350 -0.2451  0.1231
11428TIP3   OH255774   4.285   3.889   4.746 -0.2896 -0.0283 -0.3781
11428TIP3    H155775   4.358   3.950   4.759 -0.8581  0.6643 -0.3604
11428TIP3    H255776   4.249   3.876   4.834 -1.6288  1.4859 -0.6474
11429TIP3   OH255777   6.334   0.526  15.066 -0.1982 -0.0854 -0.1772
11429TIP3    H155778   6.330   0.496  15.156 -1.0713 -1.3026 -0.5902
11429TIP3    H255779   6.386   0.459  15.021 -0.7336 -0.1034 -0.7846
11430TIP3   OH255780   5.926   4.810   5.957 -0.7597 -0.1499 -0.1419
11430TIP3    H155781   5.918   4.885   6.016 -2.0120 -0.4906  0.1521
11430TIP3    H255782   5.938   4.735   6.015  1.3359 -0.1319 -0.4557
11431TIP3   OH255783   3.588   5.557  11.106 -0.1462  0.6393  0.1743
11431TIP3    H155784   3.505   5.517  11.079 -0.9749  2.1668  0.3593
11431TIP3    H255785   3.611   5.615  11.033  0.8982  0.0669  0.0260
11432TIP3   OH255786   0.840   0.712   4.304 -0.6756  0.1800  0.3803
11432TIP3    H155787   0.759   0.692   4.352 -0.1527  0.9552  1.6503
11432TIP3    H255788   0.908   0.713   4.372  0.7321 -2.1174 -0.8704
11433TIP3   OH255789   1.480   6.767  14.388  0.4876 -0.0137  0.1069
11433TIP3    H155790   1.570   6.796  14.371  0.2925 -0.1319 -1.2262
11433TIP3    H255791   1.472   6.684  14.341 -0.3944  0.1174  0.0041
11434TIP3   OH255792   2.769   1.955   1.620  0.3208 -0.2404 -0.1424
11434TIP3    H155793   2.694   1.916   1.665  0.8183 -1.2575 -0.1859
11434TIP3    H255794   2.788   1.895   1.548  1.2099 -0.0153 -0.1035
11435TIP3   OH255795   1.870   6.180  16.687  0.1866 -0.2261 -0.0643
11435TIP3    H155796   1.896   6.207  16.775  3.3949  1.3775 -1.3598
11435TIP3    H255797   1.841   6.089  16.698  0.2755 -0.0208  2.6356
11436TIP3   OH255798   0.094   6.033   4.684 -0.0567 -0.0831  0.1941
11436TIP3    H155799   0.107   6.086   4.762 -0.1119 -0.8762  0.7572
11436TIP3    H255800  -0.000   6.017   4.680  0.0781 -1.1235  0.7170
11437TIP3   OH255801   2.675   1.578  16.010 -0.4936 -0.2650  0.3223
11437TIP3    H155802   2.729   1.555  15.934  0.2987  1.2601  0.3772
11437TIP3    H255803   2.624   1.499  16.028  1.4824 -1.6664  0.0708
11438TIP3   OH255804   0.439   2.050  13.839 -0.5879 -0.1653 -0.0771
11438TIP3    H155805   0.396   2.007  13.765 -1.7100  0.9708 -0.1190
11438TIP3    H255806   0.367   2.076  13.897  0.1830  0.2058  0.7407
11439TIP3   OH255807   1.583   6.416  16.511  0.1278 -1.0567 -0.9175
11439TIP3    H155808   1.586   6.500  16.464 -0.3119  0.2266  1.1724
11439TIP3    H255809   1.664   6.371  16.485  0.7255  0.3379 -1.5848
11440TIP3   OH255810   2.194   5.025   0.931 -0.3794 -0.2409 -0.6690
11440TIP3    H155811   2.243   4.950   0.897 -0.5130 -0.5856 -0.1195
11440TIP3    H255812   2.104   4.992   0.942 -0.6786  0.3009 -1.3923
11441TIP3   OH255813   1.067   0.949   2.841 -0.4077  0.6155 -0.0648
11441TIP3    H155814   1.006   0.896   2.892  1.7682  0.3695  2.5302
11441TIP3    H255815   1.041   1.040   2.859 -0.9502  0.4943 -0.2416
11442TIP3   OH255816   4.147   6.195   2.836 -0.2184  0.1583  0.6981
11442TIP3    H155817   4.136   6.285   2.806  0.0017 -0.1685 -0.4504
11442TIP3    H255818   4.217   6.199   2.901  2.8887  0.3380 -2.3436
11443TIP3   OH255819   0.044   1.703   0.885  0.2957 -0.0151  0.2439
11443TIP3    H155820   0.039   1.608   0.889  0.5514 -0.0066  0.8206
11443TIP3    H255821   0.099   1.721   0.809 -0.0397 -0.3159 -0.0748
11444TIP3   OH255822   0.063   1.830   5.170  0.4022 -0.2999  0.0863
11444TIP3    H155823   0.026   1.742   5.175 -1.8842  0.5631 -0.2369
11444TIP3    H255824   0.089   1.840   5.079 -1.1021 -0.0274 -0.3391
11445TIP3   OH255825   0.112   3.632   0.925  0.2916  0.5453 -0.6175
11445TIP3    H155826   0.198   3.593   0.909  0.2135 -0.8402  1.8206
11445TIP3    H255827   0.077   3.650   0.837  2.7857  0.5908 -1.6774
11446TIP3   OH255828   5.647   0.986   2.513  0.4467  0.5978 -0.1162
11446TIP3    H155829   5.729   0.945   2.541 -0.5541 -0.5999  1.2020
11446TIP3    H255830   5.599   0.916   2.469  0.1131  1.2815 -0.8531
11447TIP3   OH255831   6.347   5.315   0.545  0.2269 -0.4356  0.2523
11447TIP3    H155832   6.314   5.396   0.505  1.1182 -0.7091 -1.0975
11447TIP3    H255833   6.420   5.344   0.600  0.9397 -0.3892 -0.7157
11448TIP3   OH255834   0.384   0.788   5.578 -0.1929 -0.2578  0.1713
11448TIP3    H155835   0.416   0.704   5.612  1.1892  0.0154 -0.3516
11448TIP3    H255836   0.335   0.827   5.650  0.8206 -0.6644  1.1137
11449TIP3   OH255837   3.197   1.762   5.682  0.3216  0.1139  0.0121
11449TIP3    H155838   3.141   1.696   5.641  1.3625 -0.1717 -1.0118
11449TIP3    H255839   3.247   1.799   5.609  0.1619  1.6462  0.6522
11450TIP3   OH255840   5.871   5.908   0.362 -0.4641  0.2730  0.3799
11450TIP3    H155841   5.916   5.826   0.384  0.7654  0.9044  0.2698
11450TIP3    H255842   5.923   5.976   0.404 -0.7953  1.0997 -0.5304
11451TIP3   OH255843   5.946   0.052  16.064 -0.0484  0.3051 -0.2755
11451TIP3    H155844   5.857   0.083  16.080 -0.9833 -2.5825  0.7340
11451TIP3    H255845   6.002   0.122  16.100 -1.9125  1.4566  0.5673
11452TIP3   OH255846   4.068   6.475  12.412  0.2588 -0.2635  0.2098
11452TIP3    H155847   4.092   6.477  12.504  4.7537  1.3640 -0.7252
11452TIP3    H255848   4.091   6.387  12.382  1.2264 -0.0136  0.1880
11453TIP3   OH255849   2.147   5.412   2.993  0.2616 -0.2719 -0.1814
11453TIP3    H155850   2.162   5.326   2.954 -0.0782 -0.4591  0.0932
11453TIP3    H255851   2.053   5.414   3.011  0.5681 -0.6513  1.6653
11454TIP3   OH255852   2.252   5.191  12.841 -0.4223 -0.1093  0.3935
11454TIP3    H155853   2.279   5.100  12.849 -0.1390 -0.5104 -3.5266
11454TIP3    H255854   2.325   5.241  12.878  0.2036 -1.3993  0.9609
11455TIP3   OH255855   3.203   3.839  16.597 -0.2412 -0.7182 -0.0454
11455TIP3    H155856   3.116   3.848  16.558 -0.4290 -0.1473  0.4967
11455TIP3    H255857   3.226   3.927  16.626 -0.6866 -1.3462  2.3836
11456TIP3   OH255858   4.466   3.660  12.424  0.1593  0.2526 -0.2537
11456TIP3    H155859   4.371   3.652  12.416  0.1461  0.1080  0.0434
11456TIP3    H255860   4.501   3.584  12.378  0.1114 -0.0472  0.2022
11457TIP3   OH255861   0.247   2.253   1.899 -0.0935  0.0701  0.3035
11457TIP3    H155862   0.272   2.344   1.917  0.8354  0.1754 -1.3087
11457TIP3    H255863   0.218   2.219   1.983  2.9686  0.7879  1.7971
11458TIP3   OH255864   0.987   2.145  11.347  0.7162 -0.3679  0.2881
11458TIP3    H155865   0.934   2.116  11.422  0.4375  0.4486  0.4221
11458TIP3    H255866   0.929   2.139  11.272  0.4590  0.4289  0.4181
11459TIP3   OH255867   3.240   2.109  12.257 -0.4506 -0.3657  0.6020
11459TIP3    H155868   3.203   2.094  12.344 -0.2650  2.3970  1.2530
11459TIP3    H255869   3.334   2.095  12.267 -0.2186  1.4759  1.3062
11460TIP3   OH255870   2.189   2.646   4.593  0.4997  0.5799 -0.5270
11460TIP3    H155871   2.200   2.715   4.528 -0.9789  1.1470 -0.2024
11460TIP3    H255872   2.141   2.688   4.664 -0.4945 -0.8046 -0.3504
11461TIP3   OH255873   2.141   2.385  11.962 -0.4826 -0.6333 -0.3402
11461TIP3    H155874   2.208   2.349  12.020  0.6702  1.0887 -0.5553
11461TIP3    H255875   2.063   2.333  11.982  0.1539 -0.8392  1.9721
11462TIP3   OH255876   6.506   1.151   3.768 -0.2038 -0.1644 -0.4691
11462TIP3    H155877   6.473   1.190   3.850 -2.1835  0.7456 -1.6129
11462TIP3    H255878   6.457   1.069   3.760  2.2446 -1.8754  0.7308
11463TIP3   OH255879   0.377   0.461  12.675  0.0213  0.0049 -0.0861
11463TIP3    H155880   0.410   0.550  12.690  1.9879 -0.9663  1.8342
11463TIP3    H255881   0.285   0.473  12.651  0.6823  2.6331 -1.7172
11464TIP3   OH255882   2.056   3.448  16.245 -0.4908 -0.2684  0.0368
11464TIP3    H155883   2.071   3.542  16.233 -1.3511 -0.1408 -0.0597
11464TIP3    H255884   1.965   3.442  16.272  0.0500 -0.9348  1.8477
11465TIP3   OH255885   1.796   1.058   4.465 -0.0703  0.4939 -0.2346
11465TIP3    H155886   1.716   1.007   4.477 -1.4309  2.5869  0.0355
11465TIP3    H255887   1.837   1.060   4.551  0.6919 -1.1461 -0.5144
11466TIP3   OH255888   4.481   5.446   1.185 -0.2959 -0.3980 -0.3393
11466TIP3    H155889   4.551   5.446   1.251  0.5441  0.5071 -1.1993
11466TIP3    H255890   4.420   5.513   1.216 -0.5519 -0.8720  0.1820
11467TIP3   OH255891   3.686   3.198   0.010 -0.5431  0.7875  0.0659
11467TIP3    H155892   3.778   3.188   0.033 -0.6168 -0.3929 -0.1221
11467TIP3    H255893   3.683   3.186  -0.085 -0.6757  2.4903 -0.1805
11468TIP3   OH255894   0.502   6.678  12.951 -0.2983  0.3562  0.1244
11468TIP3    H155895   0.434   6.738  12.982 -0.2306  0.0933  0.8175
11468TIP3    H255896   0.479   6.594  12.992 -0.2095 -0.0094 -0.5699
11469TIP3   OH255897   5.127   1.486   1.281 -0.0108 -0.3646  0.0612
11469TIP3    H155898   5.209   1.518   1.245  0.4028 -1.4379  0.0180
11469TIP3    H255899   5.151   1.409   1.332 -0.9456 -0.4920  0.3297
11470TIP3   OH255900   4.804   4.445   4.365 -0.8399  0.2494  0.1898
11470TIP3    H155901   4.895   4.444   4.395 -0.2125 -0.3234 -1.6271
11470TIP3    H255902   4.795   4.530   4.320 -1.2343  0.3460  0.4482
11471TIP3   OH255903   5.021   1.109   3.610 -0.2191 -0.2052  0.4389
11471TIP3    H155904   5.063   1.115   3.524 -0.2978 -0.6289  0.3697
11471TIP3    H255905   5.035   1.018   3.638 -1.1771 -0.3822  0.3741
11472TIP3   OH255906   0.283   6.618  15.400 -0.1430  0.4245  0.6102
11472TIP3    H155907   0.259   6.544  15.456  1.3661 -0.2749  0.3915
11472TIP3    H255908   0.370   6.596  15.367 -0.1272  1.7931 -0.3598
11473TIP3   OH255909   0.335   3.637  14.818  0.2969  0.5323 -0.0333
11473TIP3    H155910   0.352   3.627  14.724 -2.1126  1.5772 -0.6695
11473TIP3    H255911   0.397   3.578  14.860  0.3304 -1.2522 -2.3733
11474TIP3   OH255912   5.033   6.744  10.811 -0.4061 -0.3840  0.6192
11474TIP3    H155913   5.083   6.779  10.737  1.3018 -0.7482  1.5419
11474TIP3    H255914   4.950   6.792  10.809  0.2597  0.7881 -0.5411
11475TIP3   OH255915   6.172   3.130   6.076 -0.4402  0.1692 -0.0791
11475TIP3    H155916   6.229   3.111   6.151  0.1160 -1.1981 -0.8062
11475TIP3    H255917   6.230   3.170   6.012 -0.4820 -0.3945 -0.4788
11476TIP3   OH255918   0.816   4.413  15.624 -0.1039  0.0431 -0.7667
11476TIP3    H155919   0.846   4.406  15.714 -2.5563 -1.4395  0.0335
11476TIP3    H255920   0.776   4.500  15.618 -0.4408 -0.0708 -0.2322
11477TIP3   OH255921   4.026   1.770  15.962 -0.2762  0.4675  0.1860
11477TIP3    H155922   4.113   1.783  15.998 -0.0049  2.6050 -1.0784
11477TIP3    H255923   3.971   1.747  16.038  1.4094 -1.4622  0.9240
11478TIP3   OH255924   3.546   0.327   3.147 -0.7050 -0.2626 -0.3908
11478TIP3    H155925   3.600   0.308   3.224  0.1430 -1.0595 -1.1687
11478TIP3    H255926   3.606   0.319   3.073 -1.5785  0.2177 -1.1716
11479TIP3   OH255927   3.053   3.900  15.955  0.3726 -0.3557 -0.0340
11479TIP3    H155928   3.085   3.819  15.916  2.3043  1.0950 -1.7108
11479TIP3    H255929   2.958   3.896  15.944  0.5936 -1.4800 -2.0064
11480TIP3   OH255930   5.000   5.483   0.802  0.3985  1.1618 -0.0388
11480TIP3    H155931   5.084   5.528   0.794  0.9095  0.4547  1.1131
11480TIP3    H255932   5.019   5.392   0.779  0.0591  0.8974  0.6977
11481TIP3   OH255933   0.367   4.977   5.481  0.2591  0.0552  0.4904
11481TIP3    H155934   0.340   5.052   5.534  1.7072  1.1558 -0.2744
11481TIP3    H255935   0.456   4.957   5.509  0.5789 -0.1700 -0.6072
11482TIP3   OH255936   6.836   2.136  16.486 -0.0042  0.7011 -0.5618
11482TIP3    H155937   6.821   2.228  16.465 -0.1904  0.2794 -2.4667
11482TIP3    H255938   6.929   2.122  16.470  0.4971  0.9862  1.7079
11483TIP3   OH255939   3.233   3.409   4.773  0.2043 -0.4155  0.3062
11483TIP3    H155940   3.225   3.389   4.866 -2.1111 -1.1953  0.0003
11483TIP3    H255941   3.243   3.504   4.770 -0.4417 -0.2980  1.3301
11484TIP3   OH255942   3.054   6.548   2.040  0.4161  0.4365 -0.6093
11484TIP3    H155943   3.143   6.551   2.006 -0.0247 -1.1960 -2.0725
11484TIP3    H255944   2.999   6.535   1.962 -0.9131 -0.5321  0.4381
11485TIP3   OH255945   2.484   0.908  13.297  0.0636 -0.3727  0.2546
11485TIP3    H155946   2.466   0.816  13.317  0.7285 -0.5656 -0.0118
11485TIP3    H255947   2.431   0.927  13.220 -0.0683 -0.5357  0.3047
11486TIP3   OH255948   1.926   3.223   3.053  0.4420  0.3176 -0.7882
11486TIP3    H155949   1.935   3.182   2.967 -1.0657 -0.2067 -0.7173
11486TIP3    H255950   1.840   3.196   3.084  0.3734  1.6628  0.2784
11487TIP3   OH255951   6.062   4.392  17.189 -0.6818  0.0329 -0.2020
11487TIP3    H155952   6.016   4.325  17.139 -1.6464  0.4497  0.1049
11487TIP3    H255953   5.996   4.459  17.206  0.4269  1.4240 -1.1329
11488TIP3   OH255954   1.580   0.973  16.485  0.2264  0.2044 -0.2687
11488TIP3    H155955   1.589   1.002  16.575 -1.1454 -0.0190 -0.0311
11488TIP3    H255956   1.646   0.904  16.475 -0.9547 -1.2181  1.2277
11489TIP3   OH255957   6.809   2.997   1.976  0.0870  0.1335  0.0940
11489TIP3    H155958   6.758   3.076   1.996  0.0682  0.1877 -0.1623
11489TIP3    H255959   6.900   3.024   1.987  0.0268 -0.6349  3.0359
11490TIP3   OH255960   2.061   6.382  12.403  0.2678 -0.1260 -0.8639
11490TIP3    H155961   2.042   6.387  12.309 -1.5784 -2.7617 -0.7565
11490TIP3    H255962   1.975   6.388  12.445  0.9772  0.1373  0.6085
11491TIP3   OH255963   0.191   2.531   1.252  0.2881 -0.5454  0.4116
11491TIP3    H155964   0.098   2.510   1.239 -0.0545  0.3014  1.3444
11491TIP3    H255965   0.212   2.591   1.181  0.3081 -1.2638 -0.1959
11492TIP3   OH255966   4.858   3.059  16.318  0.1488  0.1018 -0.0517
11492TIP3    H155967   4.950   3.083  16.306  1.0503 -2.6003  0.8345
11492TIP3    H255968   4.833   3.101  16.400  0.5461  0.8838 -0.3187
11493TIP3   OH255969   5.937   0.790  13.715 -0.8743 -0.0977 -0.1574
11493TIP3    H155970   5.913   0.861  13.773 -0.2429  0.8270 -0.9962
11493TIP3    H255971   5.964   0.719  13.773 -0.8277  0.5943  0.6764
11494TIP3   OH255972   6.479   1.220  14.707 -0.4691  0.0332  0.0241
11494TIP3    H155973   6.413   1.262  14.652 -1.0345  2.5122  2.3800
11494TIP3    H255974   6.436   1.141  14.741 -1.0728 -0.0244 -0.8412
11495TIP3   OH255975   0.673   5.977  11.814 -0.2752  0.1974 -0.1101
11495TIP3    H155976   0.737   6.012  11.876 -0.6482  1.4254 -0.3881
11495TIP3    H255977   0.659   6.048  11.752  0.0746 -1.0001 -1.6133
11496TIP3   OH255978   5.294   1.180  12.206 -0.3204 -0.0163 -0.2596
11496TIP3    H155979   5.285   1.176  12.302 -1.4241 -0.9278 -0.3786
11496TIP3    H255980   5.388   1.172  12.191 -0.0799  0.6400  0.7665
11497TIP3   OH255981   0.089   3.026  15.741 -0.8692  0.1751  0.0957
11497TIP3    H155982   0.022   2.958  15.751 -1.9843  0.9922 -1.4995
11497TIP3    H255983   0.042   3.102  15.708  0.1195  2.1996  2.9192
11498TIP3   OH255984   2.682   4.335   0.073  0.0556 -0.1343  0.0522
11498TIP3    H155985   2.693   4.373   0.160 -0.0538 -0.9986  0.4523
11498TIP3    H255986   2.607   4.276   0.082  0.5453 -0.8400 -0.4137
11499TIP3   OH255987   3.645   4.909   2.455 -0.0601  0.4024 -0.4295
11499TIP3    H155988   3.667   4.969   2.527  1.4724 -1.6232  0.9177
11499TIP3    H255989   3.550   4.899   2.460 -0.0548  0.7858  0.9272
11500TIP3   OH255990   6.164   5.987  15.012  0.4465 -0.4075  0.6085
11500TIP3    H155991   6.235   5.986  15.076  0.6324 -3.2668  0.5012
11500TIP3    H255992   6.207   5.968  14.928 -0.1878 -0.0013  0.1850
11501TIP3   OH255993   1.860   1.517  11.880  0.8232  0.4102 -0.2538
11501TIP3    H155994   1.893   1.559  11.959 -2.3379  2.7863 -0.0003
11501TIP3    H255995   1.802   1.448  11.912 -1.0776  1.8771 -0.3340
11502TIP3   OH255996   6.179   5.492   4.260 -0.0884  0.0881  0.3270
11502TIP3    H155997   6.091   5.477   4.226 -0.2342 -2.4177  1.6071
11502TIP3    H255998   6.170   5.483   4.355  1.7594 -1.6409  0.3960
11503TIP3   OH255999   1.959   4.940   3.741  0.4089  0.2550 -0.3012
11503TIP3    H156000   1.904   4.917   3.666  0.7323 -1.7284  0.0126
11503TIP3    H256001   1.915   5.015   3.781 -0.3689  0.6594 -1.8165
11504TIP3   OH256002   4.074   5.925   1.038 -0.5023 -0.1271  0.1780
11504TIP3    H156003   4.163   5.900   1.011  0.1993  1.8944  0.4443
11504TIP3    H256004   4.064   5.888   1.125 -0.8728 -2.3866 -0.7470
11505TIP3   OH256005   2.657   4.908   0.151  0.2399  0.4566 -0.9239
11505TIP3    H156006   2.688   4.942   0.068  0.2112  0.1540 -1.0569
11505TIP3    H256007   2.603   4.979   0.187  0.3110  0.6137 -1.1265
11506TIP3   OH256008   5.825   3.628   5.026 -0.0982  0.1317  0.0556
11506TIP3    H156009   5.912   3.606   4.991  0.4492  1.2201  0.6748
11506TIP3    H256010   5.773   3.550   5.011  0.5000  0.0518 -1.8846
11507TIP3   OH256011   4.136   4.578   4.065 -0.3014  0.5425 -0.5106
11507TIP3    H156012   4.114   4.671   4.060 -1.1529  0.3193 -1.0326
11507TIP3    H256013   4.062   4.538   4.111  0.0652  0.1191 -0.2720
11508TIP3   OH256014   1.425   3.168   5.327  0.3796 -0.5097 -0.0119
11508TIP3    H156015   1.456   3.198   5.242 -0.0050  1.9280  0.6568
11508TIP3    H256016   1.370   3.239   5.360 -0.4198 -1.8820  1.7857
11509TIP3   OH256017   6.794   0.816   3.810 -0.3247 -0.2651  0.1754
11509TIP3    H156018   6.713   0.847   3.849 -1.1698 -3.4521  1.2172
11509TIP3    H256019   6.767   0.770   3.731  0.2595 -2.2917  1.0941
11510TIP3   OH256020   6.278   5.308  12.480  0.6240 -0.6881 -0.3879
11510TIP3    H156021   6.229   5.260  12.413  1.6662 -1.0323 -0.9257
11510TIP3    H256022   6.255   5.400  12.466  1.6874 -0.6311 -1.9758
11511TIP3   OH256023   6.540   5.294  11.165  0.0146  0.9396 -0.1206
11511TIP3    H156024   6.630   5.293  11.133  0.2168  2.0380  0.3622
11511TIP3    H256025   6.491   5.339  11.096 -0.8494 -2.3915 -1.9286
11512TIP3   OH256026   0.336   4.899  14.721 -0.1303 -0.4841  0.2483
11512TIP3    H156027   0.349   4.979  14.772  1.9967  0.8776 -2.1945
11512TIP3    H256028   0.421   4.883  14.680 -1.8276 -0.8977 -3.5606
11513TIP3   OH256029   5.888   0.611  12.605  0.3886  0.0871  0.1363
11513TIP3    H156030   5.846   0.612  12.691 -0.0251 -0.1117 -0.0649
11513TIP3    H256031   5.919   0.521  12.594  1.2876  0.3375  0.4812
11514TIP3   OH256032   2.165   6.046  12.911 -0.0485  0.2135 -0.4121
11514TIP3    H156033   2.174   6.097  12.991 -0.5437  0.7555 -0.6916
11514TIP3    H256034   2.135   5.960  12.940 -0.1877  0.3936 -0.0185
11515TIP3   OH256035   2.435   4.862  11.879 -0.4599  0.7898  0.4629
11515TIP3    H156036   2.397   4.946  11.903 -1.5388  0.5811 -0.4023
11515TIP3    H256037   2.359   4.808  11.855  0.2627 -0.2292  0.3986
11516TIP3   OH256038   5.938   5.945  11.996  0.5351 -0.3348 -0.2721
11516TIP3    H156039   5.992   5.873  11.964 -0.5714 -1.2531 -0.1175
11516TIP3    H256040   6.002   6.012  12.022  1.5441 -0.8055 -1.4220
11517TIP3   OH256041   2.522   2.774  14.215  0.0883 -0.1598 -0.9222
11517TIP3    H156042   2.553   2.722  14.290 -2.4645  0.1782  0.4912
11517TIP3    H256043   2.543   2.864  14.239 -0.5312 -0.0697 -0.7136
11518TIP3   OH256044   1.118   2.176  12.702  0.1853  0.2362  0.0739
11518TIP3    H156045   1.127   2.226  12.621  0.7038  1.1634  0.6868
11518TIP3    H256046   1.174   2.099  12.689  1.2519  0.9964  0.0134
11519TIP3   OH256047   2.647   5.316  11.389  0.3488 -0.5533  0.0245
11519TIP3    H156048   2.609   5.230  11.404 -0.0726 -0.0109  2.4171
11519TIP3    H256049   2.645   5.326  11.293 -0.8262 -2.6208 -0.2384
11520TIP3   OH256050   3.349   0.738   6.261  0.4797 -0.2800 -0.0969
11520TIP3    H156051   3.294   0.810   6.291 -0.2045  0.9136 -3.7256
11520TIP3    H256052   3.299   0.659   6.282 -0.8866  0.5719 -0.0250
11521TIP3   OH256053   4.189   0.735   5.968 -0.0689 -0.3522 -0.4529
11521TIP3    H156054   4.096   0.719   5.953 -0.4199  0.6619  0.4901
11521TIP3    H256055   4.197   0.741   6.063  0.5052  2.0203 -0.5780
11522TIP3   OH256056   1.119   5.341  12.370 -0.0029 -0.5972 -0.6134
11522TIP3    H156057   1.093   5.292  12.292 -0.2341 -1.7090  0.1363
11522TIP3    H256058   1.110   5.433  12.345  1.1223 -0.8981 -2.2970
11523TIP3   OH256059   2.299   2.401  13.265 -0.8692 -0.3491  0.2214
11523TIP3    H156060   2.242   2.394  13.189 -1.6249 -0.4044  0.7797
11523TIP3    H256061   2.312   2.311  13.295 -0.1474 -0.3724 -0.1418
11524TIP3   OH256062   2.591   6.771  14.108 -0.2279  0.1921 -0.0991
11524TIP3    H156063   2.661   6.820  14.150  1.0665  0.0821 -2.0264
11524TIP3    H256064   2.517   6.780  14.168  0.9788  1.5478  1.2805
11525TIP3   OH256065   1.729   0.263  11.512  0.5771 -0.3137 -0.1097
11525TIP3    H156066   1.821   0.237  11.519  0.9746  0.7937 -0.9273
11525TIP3    H256067   1.694   0.251  11.600  2.0461  1.1970  0.7420
11526TIP3   OH256068   2.262   5.431   2.130 -0.2927  0.0774 -0.1348
11526TIP3    H156069   2.223   5.450   2.045  0.8890  0.6088 -0.5858
11526TIP3    H256070   2.344   5.481   2.130 -1.2033  1.7548  2.1155
11527TIP3   OH256071   1.545   4.047   5.758  0.0704  0.2639 -0.2457
11527TIP3    H156072   1.572   3.956   5.770  0.2668  0.3648  0.0970
11527TIP3    H256073   1.503   4.049   5.672 -0.5592 -0.3010  0.0395
11528TIP3   OH256074   1.266   3.284   4.819 -0.6565 -0.2636  0.4290
11528TIP3    H156075   1.231   3.273   4.730 -1.4243 -0.2171  0.7152
11528TIP3    H256076   1.331   3.215   4.828  1.9774  1.7908 -1.3743
11529TIP3   OH256077   5.852   0.564  14.082  0.5936 -1.0418 -0.0542
11529TIP3    H156078   5.802   0.601  14.155  3.5061  0.4290  1.3333
11529TIP3    H256079   5.786   0.518  14.030 -1.9896 -0.2377  2.2415
11530TIP3   OH256080   6.546   2.591  12.274 -0.1149  0.1105  0.0180
11530TIP3    H156081   6.636   2.573  12.302  0.1228  1.4383  0.2176
11530TIP3    H256082   6.556   2.650  12.199 -0.8176  0.0095 -0.1644
11531TIP3   OH256083   5.142   6.408  12.517 -0.5390 -0.4307 -0.3448
11531TIP3    H156084   5.203   6.355  12.569 -1.0103  0.4541  1.1862
11531TIP3    H256085   5.074   6.347  12.490  0.0264 -1.0304 -0.4348
11532TIP3   OH256086   5.954   0.066   3.614 -0.6254 -0.2114 -0.4158
11532TIP3    H156087   5.880   0.104   3.661 -0.9071 -0.3280 -0.7567
11532TIP3    H256088   6.027   0.067   3.677 -1.0262 -0.4800  0.0556
11533TIP3   OH256089   3.423   0.540   3.012 -0.1711  0.0774  0.0298
11533TIP3    H156090   3.344   0.546   3.067 -0.6128 -1.4880 -0.3651
11533TIP3    H256091   3.455   0.451   3.027  0.7491  0.2511 -0.8457
11534TIP3   OH256092   3.346   4.007   1.367  0.5502 -0.3566 -0.3367
11534TIP3    H156093   3.295   4.084   1.393 -0.8705 -1.5254  0.5126
11534TIP3    H256094   3.296   3.932   1.402  3.1382 -1.5816  1.0108
11535TIP3   OH256095   6.145   6.682   5.871 -0.0944 -0.7856  0.4595
11535TIP3    H156096   6.066   6.732   5.892 -0.5255 -1.9696  1.7749
11535TIP3    H256097   6.216   6.733   5.910 -0.5212 -1.1504  1.7326
11536TIP3   OH256098   5.851   3.993  14.378  0.2423 -0.1202  0.0972
11536TIP3    H156099   5.902   4.013  14.456 -2.2154  0.7472  1.6028
11536TIP3    H256100   5.875   3.903  14.356  2.6147  0.3459  0.4543
11537TIP3   OH256101   5.568   3.672   3.983  0.5975  0.2248  0.6581
11537TIP3    H156102   5.519   3.682   3.901  1.7206  1.5644  0.0940
11537TIP3    H256103   5.564   3.579   4.003  0.0993 -0.0945 -0.8162
11538TIP3   OH256104   2.991   4.701  15.087 -0.5173  0.5819  0.2982
11538TIP3    H156105   2.971   4.783  15.132 -0.0742  1.0594 -0.3605
11538TIP3    H256106   3.042   4.650  15.151  0.4491  1.4155  0.2064
11539TIP3   OH256107   6.757   5.450   2.393  0.1299 -0.0769  0.0450
11539TIP3    H156108   6.721   5.527   2.437  0.5013  0.2798 -0.2659
11539TIP3    H256109   6.718   5.452   2.306  2.0632  1.2153 -0.8672
11540TIP3   OH256110   6.293   1.649   4.935 -0.6398 -0.3800 -0.2018
11540TIP3    H156111   6.373   1.682   4.896 -2.6057  1.9523 -2.6875
11540TIP3    H256112   6.282   1.701   5.015 -0.3081  0.2045 -0.5344
11541TIP3   OH256113   2.216   0.102  11.184  0.3642 -0.1654 -0.2351
11541TIP3    H156114   2.123   0.122  11.184  0.6694  1.4636 -1.1844
11541TIP3    H256115   2.245   0.124  11.273  0.0621  0.5760 -0.3108
11542TIP3   OH256116   1.953   6.254  11.118  0.5458  0.1109 -0.4436
11542TIP3    H156117   1.946   6.350  11.113 -1.7827 -0.0563 -1.1242
11542TIP3    H256118   1.881   6.221  11.065  0.1884 -2.0341  1.2189
11543TIP3   OH256119   1.053   6.364   6.407  0.2929  0.9295  0.3798
11543TIP3    H156120   1.070   6.393   6.497  1.9224  1.0977  0.0653
11543TIP3    H256121   0.999   6.286   6.416  2.1395 -0.2790  1.6380
11544TIP3   OH256122   3.213   1.384  14.585 -0.0432 -0.4427 -0.5120
11544TIP3    H156123   3.209   1.406  14.678 -0.2664 -1.4102 -0.2909
11544TIP3    H256124   3.174   1.460  14.541 -2.2542 -1.0162  0.3434
11545TIP3   OH256125   0.032   6.218  11.475  0.4300 -0.0131 -0.5023
11545TIP3    H156126  -0.017   6.137  11.459 -0.5007  0.5828 -0.7447
11545TIP3    H256127  -0.034   6.287  11.469  1.3773  0.8529 -1.2235
11546TIP3   OH256128   6.728   3.638  16.234  0.1962 -0.3287  0.5386
11546TIP3    H156129   6.674   3.614  16.310 -0.3771  0.4412  0.3866
11546TIP3    H256130   6.808   3.588  16.245 -1.7720 -4.1988 -0.9967
11547TIP3   OH256131   2.982   6.377   0.224  0.3055  0.1790  0.1269
11547TIP3    H156132   2.931   6.433   0.282  0.8808  1.6601 -0.7200
11547TIP3    H256133   3.044   6.333   0.282  1.1188  1.9090  0.6656
11548TIP3   OH256134   3.469   3.311  12.972  0.6153  0.4140  0.3176
11548TIP3    H156135   3.492   3.237  13.027 -1.7649 -0.6407  0.0142
11548TIP3    H256136   3.462   3.275  12.884 -0.9773  0.8541  0.2248
11549TIP3   OH256137   3.310   5.028   2.901  0.0313 -0.2008 -0.1550
11549TIP3    H156138   3.343   4.949   2.858  0.8335 -1.2919  2.2565
11549TIP3    H256139   3.351   5.027   2.988 -0.3093  2.6416  0.1530
11550TIP3   OH256140   2.132   3.179   2.686 -0.2276  0.4948 -0.2217
11550TIP3    H156141   2.043   3.207   2.667 -1.4264 -0.9342  2.6837
11550TIP3    H256142   2.157   3.227   2.765  1.5849  0.7899 -0.9128
11551TIP3   OH256143   1.562   5.145  17.203 -0.1541  0.5693  0.1750
11551TIP3    H156144   1.590   5.200  17.130  1.1273  1.3772  1.2338
11551TIP3    H256145   1.574   5.200  17.280 -0.0727 -0.7775  1.1438
11552TIP3   OH256146   0.535   3.304  11.711 -0.1517 -0.1046  0.1725
11552TIP3    H156147   0.449   3.329  11.746  0.2536  0.1208  1.0438
11552TIP3    H256148   0.530   3.209  11.701 -0.5480 -0.0765  0.0785
11553TIP3   OH256149   2.799   1.850   1.366  0.8409  0.7012 -0.0330
11553TIP3    H156150   2.810   1.884   1.277 -0.6312  2.1286  0.2793
11553TIP3    H256151   2.751   1.768   1.354 -1.5113  2.0531 -0.4894
11554TIP3   OH256152   0.677   2.246  15.600  0.5085  0.2694 -0.4026
11554TIP3    H156153   0.720   2.316  15.649 -0.4375  0.6325 -0.0701
11554TIP3    H256154   0.629   2.196  15.666  1.5402 -1.0000 -0.5678
11555TIP3   OH256155   0.641   6.238  14.070  0.2731  0.1796  0.4139
11555TIP3    H156156   0.604   6.165  14.120  0.6358  0.5706  1.2771
11555TIP3    H256157   0.728   6.206  14.043  0.0853 -0.0243  0.0493
11556TIP3   OH256158   3.493   2.366  10.890 -0.6792  0.2275  0.7445
11556TIP3    H156159   3.454   2.427  10.827  0.3649  1.8714  1.6082
11556TIP3    H256160   3.502   2.418  10.971  0.3536 -1.0466  1.4833
11557TIP3   OH256161   1.509   6.674  13.655 -0.3233  0.1219 -0.0148
11557TIP3    H156162   1.573   6.616  13.614 -0.1902 -0.2781  0.7488
11557TIP3    H256163   1.559   6.750  13.683 -0.6405  1.0417 -1.8037
11558TIP3   OH256164   1.824   4.206   5.628  0.1053 -0.5599 -0.5733
11558TIP3    H156165   1.804   4.173   5.540  1.2048 -0.0512 -1.0278
11558TIP3    H256166   1.848   4.128   5.677  0.1212 -0.7699 -0.9067
11559TIP3   OH256167   6.489   6.384  13.744 -0.4470  0.2162  0.3238
11559TIP3    H156168   6.413   6.351  13.696  0.1560 -1.1615  0.2878
11559TIP3    H256169   6.512   6.314  13.804  1.3259  0.2619 -0.2487
11560TIP3   OH256170   1.898   1.013   0.758 -0.3449 -0.4273 -0.0732
11560TIP3    H156171   1.934   0.968   0.835  0.3550  1.1330  0.5495
11560TIP3    H256172   1.809   1.035   0.783  0.0100  0.4354  0.4687
11561TIP3   OH256173   4.443   1.007  13.289  0.0419 -0.3007 -0.0966
11561TIP3    H156174   4.382   0.980  13.358  0.8878  0.1121  0.8390
11561TIP3    H256175   4.506   0.935  13.283  0.1592 -0.1909 -0.2047
11562TIP3   OH256176   5.586   2.337   3.060 -0.1367 -0.0233  0.1346
11562TIP3    H156177   5.591   2.420   3.109 -1.3927  0.1383  0.0170
11562TIP3    H256178   5.545   2.361   2.977  1.1340 -0.4673 -0.6595
11563TIP3   OH256179   2.163   0.106  16.499  0.2601  0.2502 -0.0936
11563TIP3    H156180   2.090   0.123  16.439  0.2321  2.1579  0.4276
11563TIP3    H256181   2.157   0.012  16.517 -1.6657  0.2305 -0.5699
11564TIP3   OH256182   2.654   2.674  14.442 -0.2710  0.3821 -0.4417
11564TIP3    H156183   2.733   2.725  14.463  0.2444  0.3937 -2.2193
11564TIP3    H256184   2.684   2.583  14.439 -0.6463  0.2308  0.2668
11565TIP3   OH256185   5.045   1.454   4.456 -0.0671  0.9006 -0.0852
11565TIP3    H156186   5.093   1.453   4.373  0.1676 -1.1078  0.0238
11565TIP3    H256187   4.953   1.462   4.431 -0.1916 -1.7349 -0.7312
11566TIP3   OH256188   3.235   1.921   2.733  0.2010  0.3082 -0.2348
11566TIP3    H156189   3.207   1.992   2.676  0.5209  0.8335  0.2610
11566TIP3    H256190   3.312   1.954   2.779 -1.0500  0.5897  1.8323
11567TIP3   OH256191   1.699   3.254   0.908 -0.0838  0.0537  0.2082
11567TIP3    H156192   1.728   3.345   0.901 -1.9249  0.7693  1.2213
11567TIP3    H256193   1.764   3.204   0.858  0.4020  2.0262 -1.2576
11568TIP3   OH256194   6.475   1.347  13.321 -0.0837  0.3405 -0.1093
11568TIP3    H156195   6.507   1.329  13.410  1.9097  1.2515 -0.5796
11568TIP3    H256196   6.391   1.389  13.335 -0.7522 -1.2896  1.2549
11569TIP3   OH256197   0.350   2.995  13.519  0.0262  0.0964 -0.3131
11569TIP3    H156198   0.335   3.090  13.518 -0.3942  0.1653  2.7435
11569TIP3    H256199   0.445   2.985  13.520  0.0946  0.3990 -1.7322
11570TIP3   OH256200   6.733   4.332  11.123 -0.1695 -0.0505 -0.0984
11570TIP3    H156201   6.780   4.338  11.206  0.7677 -0.0799 -0.6173
11570TIP3    H256202   6.704   4.241  11.117 -1.7898  0.3370  0.9980
11571TIP3   OH256203   1.939   6.220   1.008  0.2826 -0.3728  0.0209
11571TIP3    H156204   1.997   6.144   1.016  0.5321 -0.2261 -0.3603
11571TIP3    H256205   1.909   6.217   0.917 -1.7267 -1.4686  0.6462
11572TIP3   OH256206   2.750   2.593   2.794 -0.7678  0.8948 -0.0448
11572TIP3    H156207   2.706   2.591   2.709 -2.1438 -2.4798  0.5869
11572TIP3    H256208   2.780   2.503   2.808  4.7287  2.4635  0.5357
11573TIP3   OH256209   2.706   6.197   2.576  0.2239  0.2006  0.1472
11573TIP3    H156210   2.648   6.236   2.511  0.9320 -0.9704 -1.2635
11573TIP3    H256211   2.699   6.254   2.652 -1.8379  0.7527 -0.3925
11574TIP3   OH256212   1.817   4.456  13.308 -1.0604 -0.3147 -1.0440
11574TIP3    H156213   1.866   4.538  13.297 -1.1274  0.2419  1.9825
11574TIP3    H256214   1.725   4.482  13.299 -1.0792 -0.0366 -0.1332
11575TIP3   OH256215   2.293   5.769   0.402 -0.0558 -0.5910 -0.2097
11575TIP3    H156216   2.200   5.763   0.380  0.1952 -0.3352 -1.4373
11575TIP3    H256217   2.295   5.801   0.492 -1.1511 -0.6100 -0.1693
11576TIP3   OH256218   0.772   6.513   6.075  0.8037  0.6394  0.4398
11576TIP3    H156219   0.710   6.522   6.003  0.3441  2.2402  1.0071
11576TIP3    H256220   0.717   6.496   6.152  1.3468 -2.3428  0.2906
11577TIP3   OH256221   4.755   5.998  11.991 -0.1138  0.1847  0.9390
11577TIP3    H156222   4.796   6.084  11.983  1.4014 -0.5904  0.0066
11577TIP3    H256223   4.754   5.980  12.085  2.1073  0.0665  0.9858
11578TIP3   OH256224   1.902   4.421   2.755  0.1460 -0.1048  0.3371
11578TIP3    H156225   1.968   4.370   2.801 -0.6120  0.0365  1.6267
11578TIP3    H256226   1.949   4.499   2.724  0.9859 -0.8934 -0.4191
11579TIP3   OH256227   0.886   5.228   3.899 -0.1911  0.0255 -0.6664
11579TIP3    H156228   0.896   5.261   3.810 -2.0279  1.3655 -0.4451
11579TIP3    H256229   0.791   5.216   3.910 -0.0966  0.6791  1.3520
11580TIP3   OH256230   1.850   2.155  14.195 -0.0015  0.3432 -0.4588
11580TIP3    H156231   1.861   2.201  14.111  0.9887 -1.4385 -1.3640
11580TIP3    H256232   1.888   2.068  14.180 -0.5166 -0.2966  1.6155
11581TIP3   OH256233   0.346   0.188  12.782  0.3668  0.0113 -0.2613
11581TIP3    H156234   0.371   0.267  12.735  0.1760 -0.2857 -0.8725
11581TIP3    H256235   0.301   0.219  12.860 -0.1979  0.4941 -0.7735
11582TIP3   OH256236   1.566   0.127   2.078 -0.2706 -0.2137 -1.0440
11582TIP3    H156237   1.515   0.054   2.043 -0.2701 -0.2115 -1.0495
11582TIP3    H256238   1.638   0.086   2.125 -1.8759 -0.2878  1.4894
11583TIP3   OH256239   0.811   0.321   5.617 -0.7615 -0.3671  0.3062
11583TIP3    H156240   0.720   0.350   5.616 -0.5686  0.3503  1.6071
11583TIP3    H256241   0.841   0.337   5.707  1.2193  1.2419 -0.5582
11584TIP3   OH256242   3.043   5.464   4.253 -0.3403  0.0171 -0.0483
11584TIP3    H156243   3.031   5.538   4.313 -1.3648 -0.6759  0.6296
11584TIP3    H256244   3.027   5.386   4.307  1.4437 -0.7512 -0.5697
11585TIP3   OH256245   2.124   5.365   5.787 -0.6837 -0.2917  0.2272
11585TIP3    H156246   2.128   5.299   5.719 -0.4002 -1.1210  1.0241
11585TIP3    H256247   2.152   5.446   5.744  0.2069 -0.9458 -0.4576
11586TIP3   OH256248   0.928   3.656  16.672 -0.0376  0.1093 -0.6944
11586TIP3    H156249   0.948   3.741  16.633 -0.0672  0.1123 -0.7038
11586TIP3    H256250   0.835   3.662  16.694 -0.2259 -0.1984 -1.3882
11587TIP3   OH256251   2.881   6.183   0.789 -0.2706 -0.2166 -0.0531
11587TIP3    H156252   2.900   6.275   0.805  2.1129 -0.8317  1.0654
11587TIP3    H256253   2.872   6.145   0.876  1.6309 -1.5430 -0.3866
11588TIP3   OH256254   2.626   3.679  12.122 -0.4492  0.1897 -0.0244
11588TIP3    H156255   2.633   3.596  12.075 -2.5350 -0.3151  0.4710
11588TIP3    H256256   2.641   3.746  12.055 -0.5501 -0.5678 -0.8134
11589TIP3   OH256257   5.822   0.645  16.195 -0.4442 -0.4578 -0.3039
11589TIP3    H156258   5.906   0.690  16.189  0.0028 -1.3593 -0.8976
11589TIP3    H256259   5.844   0.554  16.214 -1.3575 -0.3621  1.3796
11590TIP3   OH256260   0.308   3.604  13.522 -0.5570  0.4713  0.2548
11590TIP3    H156261   0.395   3.644  13.520 -0.2482 -0.1461  1.0260
11590TIP3    H256262   0.292   3.586  13.614 -0.9501 -0.6131 -0.0136
11591TIP3   OH256263   5.195   0.048  11.950 -0.5582  0.7091  0.2642
11591TIP3    H156264   5.260   0.031  12.019  0.1001 -1.1622 -0.7417
11591TIP3    H256265   5.246   0.085  11.878 -0.7269 -0.1123 -0.2817
11592TIP3   OH256266   1.439   0.734  13.275  0.2962  0.2144  0.0320
11592TIP3    H156267   1.458   0.647  13.242  0.1065 -0.1653  0.9002
11592TIP3    H256268   1.524   0.769  13.303  0.4211  0.4445 -0.6135
11593TIP3   OH256269   2.344   6.329   0.577 -0.0107 -0.3502 -0.2061
11593TIP3    H156270   2.422   6.380   0.597 -0.5800  0.2787  0.4539
11593TIP3    H256271   2.357   6.246   0.622 -0.5269  0.4298  1.4487
11594TIP3   OH256272   1.312   5.236   1.413 -0.1827  0.1909  0.2969
11594TIP3    H156273   1.318   5.162   1.472  3.5819  0.6313  0.6965
11594TIP3    H256274   1.291   5.311   1.469 -1.0110 -0.0682  0.3445
11595TIP3   OH256275   5.162   4.946   4.713 -0.0719 -0.6912  0.0957
11595TIP3    H156276   5.097   4.979   4.650  0.0209  0.5463  0.6299
11595TIP3    H256277   5.110   4.896   4.776 -0.6027  0.7284  0.8155
11596TIP3   OH256278   2.748   1.743   4.982 -0.0644 -0.1608  0.0610
11596TIP3    H156279   2.751   1.661   4.933 -1.9964  0.6874 -1.6633
11596TIP3    H256280   2.822   1.794   4.949 -0.0305 -0.4726 -0.3507
11597TIP3   OH256281   0.412   3.968  14.841 -0.5074 -0.2884  0.6166
11597TIP3    H156282   0.478   3.909  14.805 -1.4732 -0.0769 -1.7003
11597TIP3    H256283   0.460   4.048  14.864  0.0479 -0.0323 -1.2987
11598TIP3   OH256284   4.951   5.450  12.036  0.2204 -0.4979  0.0589
11598TIP3    H156285   5.000   5.393  11.976 -0.9967  1.0929 -2.6050
11598TIP3    H256286   5.007   5.526  12.048 -0.1324 -0.1906 -0.2196
11599TIP3   OH256287   2.504   3.875  16.712  0.1803 -0.2035  0.3097
11599TIP3    H156288   2.562   3.906  16.643  0.1007  0.7665  0.6676
11599TIP3    H256289   2.499   3.948  16.774 -1.9823 -0.0086 -0.0536
11600TIP3   OH256290   4.385   1.230   1.957 -0.3788  0.1545 -0.2168
11600TIP3    H156291   4.456   1.241   1.893 -0.7602  1.2646 -0.4547
11600TIP3    H256292   4.314   1.189   1.907  0.2377 -1.4444  0.1402
11601TIP3   OH256293   5.077   1.051  14.131  0.7932  0.3332  0.0710
11601TIP3    H156294   5.047   1.135  14.166 -0.0665 -0.3054  0.8980
11601TIP3    H256295   5.067   0.989  14.203 -0.7544 -0.9593 -1.1710
11602TIP3   OH256296   2.311   5.216  15.076  0.2740 -0.5794 -0.1648
11602TIP3    H156297   2.360   5.214  14.994 -0.6142 -0.3114 -0.7252
11602TIP3    H256298   2.232   5.266  15.055 -0.1362 -0.8135  0.7600
11603TIP3   OH256299   3.365   1.302  14.349 -0.6366 -0.5593 -0.4760
11603TIP3    H156300   3.365   1.359  14.273 -0.1392  1.1077  0.7169
11603TIP3    H256301   3.306   1.345  14.411  1.4582 -0.0924  1.3090
11604TIP3   OH256302   4.729   5.993  13.731 -0.1295  0.3371  0.1422
11604TIP3    H156303   4.635   5.986  13.747 -0.4948  1.1805 -1.4144
11604TIP3    H256304   4.744   6.087  13.719  0.0985 -0.0214 -3.6215
11605TIP3   OH256305   0.978   4.082  11.344  0.2554 -0.1134 -0.6164
11605TIP3    H156306   0.890   4.089  11.307  0.1821  1.2857 -0.2147
11605TIP3    H256307   1.035   4.125  11.280  0.1932  1.8542  0.5742
11606TIP3   OH256308   5.237   3.604  16.916  0.0223  0.0312  0.3858
11606TIP3    H156309   5.155   3.607  16.866 -0.0795  0.3546  0.5704
11606TIP3    H256310   5.218   3.652  16.996  0.7350  1.1577 -0.0926
11607TIP3   OH256311   6.807   4.460  16.832 -0.3477 -0.2796  0.4151
11607TIP3    H156312   6.770   4.442  16.745 -2.0433 -0.2945  1.0921
11607TIP3    H256313   6.742   4.516  16.874 -0.2648 -1.4534  2.1897
11608TIP3   OH256314   3.555   2.953  11.111 -0.2458 -0.4945  0.1459
11608TIP3    H156315   3.575   2.914  11.026  1.1151 -1.5098  0.9011
11608TIP3    H256316   3.502   2.886  11.156  1.6238 -1.3247  1.2306
11609TIP3   OH256317   2.225   0.041  11.509 -0.1591 -0.3202 -0.5762
11609TIP3    H156318   2.169  -0.026  11.548 -1.7768  0.7413 -0.9711
11609TIP3    H256319   2.306   0.039  11.560 -0.7767 -1.5041  0.3828
11610TIP3   OH256320   3.451   6.385   3.511 -0.0092  0.8205 -0.4242
11610TIP3    H156321   3.419   6.296   3.506 -1.3545  1.3154 -1.0877
11610TIP3    H256322   3.539   6.382   3.473  1.5646 -0.8735  2.9028
11611TIP3   OH256323   0.898   5.926   5.361 -0.4412  0.1117  0.0787
11611TIP3    H156324   0.984   5.890   5.381 -0.8185  0.0885  1.8765
11611TIP3    H256325   0.887   5.913   5.267  2.0094  1.2505 -0.4273
11612TIP3   OH256326   3.831   2.208  12.886 -0.3339  0.1031 -0.0884
11612TIP3    H156327   3.818   2.159  12.967 -1.2878 -0.3372 -0.4910
11612TIP3    H256328   3.915   2.175  12.851 -0.0527  0.1071  0.5801
11613TIP3   OH256329   5.985   1.948   4.106  0.2945 -0.0561  0.8270
11613TIP3    H156330   5.900   1.912   4.079  1.3766 -1.8285 -0.4689
11613TIP3    H256331   5.972   1.974   4.197 -1.8266  0.4197  0.4498
11614TIP3   OH256332   6.030   2.195   1.513 -0.0062  0.1533 -0.0034
11614TIP3    H156333   5.984   2.257   1.458  1.1749  0.3891 -0.7669
11614TIP3    H256334   5.992   2.110   1.491 -2.7597  0.6633  2.1878
11615TIP3   OH256335   5.555   3.882   5.862 -0.2728  0.3948 -0.6414
11615TIP3    H156336   5.486   3.815   5.853 -1.0470  0.9190  1.0957
11615TIP3    H256337   5.510   3.957   5.901  0.8384  1.5498 -1.5108
11616TIP3   OH256338   2.499   3.210  16.674 -0.0554  0.1653 -0.0040
11616TIP3    H156339   2.484   3.117  16.692 -0.9118  0.0602 -1.1049
11616TIP3    H256340   2.577   3.232  16.725  0.6806 -1.3793 -0.3851
11617TIP3   OH256341   5.611   2.490  11.578 -0.2561 -0.1704 -0.1035
11617TIP3    H156342   5.561   2.571  11.563  0.0767 -0.1237 -1.1154
11617TIP3    H256343   5.604   2.443  11.495 -0.7356 -1.3563  0.5997
11618TIP3   OH256344   5.004   6.042   0.338 -0.2822 -0.4319 -0.8498
11618TIP3    H156345   4.928   6.063   0.392 -0.9091  1.6490 -2.3882
11618TIP3    H256346   5.001   5.947   0.329 -1.5018 -0.6034  0.7891
11619TIP3   OH256347   0.987   0.719   5.074  0.5088  0.3351  0.2173
11619TIP3    H156348   0.949   0.631   5.080  1.4911 -0.1998 -0.8562
11619TIP3    H256349   1.050   0.723   5.146  1.9492 -0.6508 -0.9225
11620TIP3   OH256350   0.801   3.044   5.949 -0.1678 -0.3483  0.2283
11620TIP3    H156351   0.826   3.136   5.939  1.1912 -0.8730 -1.8622
11620TIP3    H256352   0.809   3.028   6.043 -0.9737  1.7853  0.7297
11621TIP3   OH256353   3.375   3.585  16.083  0.3274  0.1731 -0.0490
11621TIP3    H156354   3.435   3.511  16.093 -2.1031 -1.9779 -0.2409
11621TIP3    H256355   3.373   3.603  15.989 -1.0550 -1.4169 -0.3790
11622TIP3   OH256356   2.991   4.539   2.247  0.5630 -0.4726  0.0738
11622TIP3    H156357   2.927   4.505   2.310 -0.3229 -0.7079 -0.9264
11622TIP3    H256358   3.076   4.515   2.285  0.0553 -0.6963  1.1272
11623TIP3   OH256359   6.066   2.440   2.121  0.2894 -1.5569 -0.5642
11623TIP3    H156360   5.984   2.401   2.090  0.5005 -1.6965 -0.9604
11623TIP3    H256361   6.082   2.398   2.205 -1.8977  1.0420  1.3153
11624TIP3   OH256362   1.516   6.050  10.452  0.5601  0.2224 -0.2306
11624TIP3    H156363   1.432   6.017  10.422  0.2974 -0.6919  1.3840
11624TIP3    H256364   1.495   6.104  10.529  1.1992  2.4229 -1.5124
11625TIP3   OH256365   5.194   4.535  16.168  0.3903 -0.1332 -0.3246
11625TIP3    H156366   5.203   4.441  16.181 -1.0220 -0.2729 -0.1559
11625TIP3    H256367   5.215   4.572  16.254 -2.4159 -0.5857  0.6610
11626TIP3   OH256368   5.264   2.678   4.714  0.5154  0.3639 -0.0963
11626TIP3    H156369   5.334   2.740   4.693  0.5772  0.9462  1.6950
11626TIP3    H256370   5.185   2.732   4.719  0.0617 -0.1596 -1.2389
11627TIP3   OH256371   2.071   0.403  13.020  0.1815  0.1437  0.0730
11627TIP3    H156372   2.069   0.495  12.996  0.6984  0.5676  1.5223
11627TIP3    H256373   2.052   0.402  13.114 -1.5032 -1.3794 -0.2334
11628TIP3   OH256374   1.418   4.740   2.944  0.1042  0.0002  0.1585
11628TIP3    H156375   1.467   4.801   2.999 -0.4190 -0.8186  1.5772
11628TIP3    H256376   1.431   4.654   2.985 -0.1480 -0.6702 -1.1168
11629TIP3   OH256377   6.635   3.434  12.856  0.4771  0.2171  0.6621
11629TIP3    H156378   6.562   3.480  12.896  0.4119  1.3621 -0.6746
11629TIP3    H256379   6.649   3.357  12.911 -3.2289 -1.3257 -0.2726
11630TIP3   OH256380   1.670   4.392  14.088 -0.3633 -0.0835  0.0716
11630TIP3    H156381   1.633   4.372  14.001 -1.0225  0.2377  0.2722
11630TIP3    H256382   1.667   4.487  14.094  2.0851  0.0969 -0.5851
11631TIP3   OH256383   4.700   1.346   3.203 -0.0690 -0.3035  0.3235
11631TIP3    H156384   4.646   1.369   3.127  0.4306 -1.4022 -0.3825
11631TIP3    H256385   4.645   1.286   3.254 -1.3725  2.2808  2.1660
11632TIP3   OH256386   4.744   4.355  12.626 -0.2019 -0.0062 -0.1342
11632TIP3    H156387   4.839   4.352  12.634 -0.2405 -0.1956  0.2843
11632TIP3    H256388   4.712   4.332  12.713 -0.6298  0.1701 -0.2420
11633TIP3   OH256389   4.171   0.249  15.735 -0.3202 -0.4377  0.3171
11633TIP3    H156390   4.254   0.271  15.692 -0.2892 -0.5568  0.3163
11633TIP3    H256391   4.191   0.173  15.790  0.0724  0.7977  1.9475
11634TIP3   OH256392   6.520   0.331  11.994  0.5307 -0.1855  0.4973
11634TIP3    H156393   6.604   0.301  11.961 -1.4053 -2.1513 -3.2852
11634TIP3    H256394   6.516   0.424  11.969  1.0947 -0.3980 -0.3968
11635TIP3   OH256395   4.618   0.148   0.242 -0.4395  0.2922  0.3450
11635TIP3    H156396   4.626   0.109   0.155 -0.9619  0.3627  0.2637
11635TIP3    H256397   4.635   0.241   0.229 -2.7526  0.7154 -0.0936
11636TIP3   OH256398   6.797   3.672   3.097 -0.6411 -1.0566 -0.0065
11636TIP3    H156399   6.798   3.651   3.003 -0.4643 -0.4428 -0.1462
11636TIP3    H256400   6.878   3.634   3.131 -0.3780 -0.7055 -0.2348
11637TIP3   OH256401   3.937   6.085  12.761 -0.5402  0.0707  0.2512
11637TIP3    H156402   3.957   6.170  12.802  2.9439 -1.1081  1.3974
11637TIP3    H256403   3.883   6.040  12.826 -0.8134  0.7272  0.4880
11638TIP3   OH256404   2.543   0.730  14.015  0.3142  0.1037 -0.2144
11638TIP3    H156405   2.635   0.727  14.041 -0.0090  0.5651  1.0389
11638TIP3    H256406   2.529   0.821  13.988 -0.0976  0.3809  0.8920
11639TIP3   OH256407   2.376   4.523  11.380 -0.4561  0.2527 -0.0731
11639TIP3    H156408   2.312   4.593  11.388  1.8111  2.5130 -0.2961
11639TIP3    H256409   2.431   4.531  11.458  0.0680 -1.0684 -0.2775
11640TIP3   OH256410   5.519   5.669  12.112 -0.4468 -0.3575  0.5597
11640TIP3    H156411   5.526   5.612  12.035 -2.2854  2.1147 -1.6801
11640TIP3    H256412   5.582   5.739  12.096 -0.6382  0.0345  1.4544
11641TIP3   OH256413   2.448   4.522  14.133 -0.3714  0.5212 -0.3518
11641TIP3    H156414   2.542   4.511  14.149 -0.3163  1.4489  0.0621
11641TIP3    H256415   2.444   4.595  14.071 -0.7723 -0.3422 -1.3672
11642TIP3   OH256416   5.958   3.699   3.088 -0.6110  0.5544 -0.5261
11642TIP3    H156417   5.951   3.777   3.033 -2.1288  0.5680 -0.3371
11642TIP3    H256418   6.002   3.730   3.167 -1.3118  1.2568 -0.3990
11643TIP3   OH256419   5.934   3.684   0.823  0.0853  0.0273 -0.5704
11643TIP3    H156420   5.997   3.613   0.832 -1.3894 -1.4030 -1.0593
11643TIP3    H256421   5.917   3.690   0.729 -1.3613 -0.4416 -0.3747
11644TIP3   OH256422   6.566   5.142   1.346 -0.1021 -0.4121  0.0076
11644TIP3    H156423   6.528   5.207   1.287  1.4505  0.1286 -0.4643
11644TIP3    H256424   6.640   5.188   1.386 -1.1127 -0.7692  2.4080
11645TIP3   OH256425   2.166   0.875   4.958  0.1571  0.2607  0.5837
11645TIP3    H156426   2.154   0.823   5.038  0.1453 -2.4080 -1.0452
11645TIP3    H256427   2.246   0.925   4.974  1.1553 -1.5570  1.6446
11646TIP3   OH256428   4.780   4.561   3.890 -0.1900  0.3091  0.2384
11646TIP3    H156429   4.855   4.527   3.940  0.2281 -0.5163 -0.8972
11646TIP3    H256430   4.808   4.554   3.799 -1.6648 -0.0453 -0.2141
11647TIP3   OH256431   2.640   1.435   3.156 -0.5552 -0.5990 -0.1062
11647TIP3    H156432   2.582   1.361   3.172 -3.1957  0.4252 -3.6032
11647TIP3    H256433   2.598   1.509   3.200  0.2697 -0.5265  0.5887
11648TIP3   OH256434   1.789   0.913   5.554 -0.3811  0.4067 -0.0529
11648TIP3    H156435   1.748   0.999   5.547  0.0048  0.5893 -0.1225
11648TIP3    H256436   1.783   0.890   5.646 -0.9397  0.2783 -0.1177
11649TIP3   OH256437   6.376   4.523   5.612 -0.5361 -0.4505  0.2081
11649TIP3    H156438   6.330   4.500   5.532  1.0319  0.3271 -0.9686
11649TIP3    H256439   6.459   4.477   5.607  0.5523  1.4017  0.2301
11650TIP3   OH256440   4.330   0.843   2.962  0.0859 -0.3945 -0.1748
11650TIP3    H156441   4.286   0.921   2.996 -1.2677 -0.9522 -0.6146
11650TIP3    H256442   4.277   0.815   2.888  0.4508 -1.8468  0.0782
11651TIP3   OH256443   2.530   4.663   0.284 -0.2951 -0.2988 -0.5721
11651TIP3    H156444   2.581   4.708   0.216  2.1681 -1.8179  0.1158
11651TIP3    H256445   2.440   4.690   0.269  0.6070  2.0879 -2.2890
11652TIP3   OH256446   6.569   1.410  13.965 -0.1547 -0.0700  0.5863
11652TIP3    H156447   6.551   1.332  13.912 -0.3595  0.7496 -0.5877
11652TIP3    H256448   6.552   1.483  13.906 -0.8809  0.8990  1.9471
11653TIP3   OH256449   6.258   4.463   3.769 -1.2291 -0.0067 -0.2714
11653TIP3    H156450   6.280   4.378   3.731 -2.4726  0.6347 -2.7049
11653TIP3    H256451   6.198   4.443   3.840 -0.8771 -1.2047 -0.2914
11654TIP3   OH256452   4.829   2.464   0.757  0.3101 -0.0478  0.4777
11654TIP3    H156453   4.848   2.549   0.796  0.6786 -0.3302  0.9159
11654TIP3    H256454   4.735   2.451   0.771 -0.1036  1.0153 -1.0408
11655TIP3   OH256455   0.999   6.809  12.105  0.3305  0.7459  0.3566
11655TIP3    H156456   1.026   6.882  12.050  0.6497  1.7954  1.8246
11655TIP3    H256457   1.065   6.805  12.174 -0.9183  0.5938  1.6083
11656TIP3   OH256458   2.307   1.153   1.897  0.4186  0.3240 -0.4846
11656TIP3    H156459   2.336   1.081   1.953 -1.7682 -0.1277  0.1813
11656TIP3    H256460   2.372   1.157   1.827  0.2462 -2.8170 -0.9894
11657TIP3   OH256461   1.504   6.685  13.996  0.0896 -0.2250 -0.3519
11657TIP3    H156462   1.556   6.707  13.918 -0.1385  0.9761 -0.1875
11657TIP3    H256463   1.453   6.765  14.014  0.9769 -0.0505  1.6866
11658TIP3   OH256464   0.093   5.044   3.304  0.4865  0.1650 -0.3036
11658TIP3    H156465   0.020   5.050   3.242  1.3107 -0.1326 -1.3359
11658TIP3    H256466   0.153   5.113   3.276  1.0664 -0.2541 -0.1154
11659TIP3   OH256467   2.354   6.744   3.508  0.3772 -0.3322  0.1217
11659TIP3    H156468   2.432   6.762   3.560  0.4179 -1.6376  0.5391
11659TIP3    H256469   2.361   6.652   3.484  0.3848  0.2131 -2.2650
11660TIP3   OH256470   3.058   2.682  16.446  0.0364  0.0856 -0.3874
11660TIP3    H156471   3.149   2.664  16.472  0.1329 -0.9716 -1.3603
11660TIP3    H256472   3.029   2.601  16.404 -0.9310  0.8541 -1.2517
11661TIP3   OH256473   4.469   5.126   5.337  0.3567 -0.3678 -0.1988
11661TIP3    H156474   4.410   5.107   5.264  0.2847 -0.0358 -0.2282
11661TIP3    H256475   4.556   5.102   5.304  0.0327 -2.6425  0.4958
11662TIP3   OH256476   4.963   0.786  11.481  0.2778  0.2403 -0.3479
11662TIP3    H156477   4.987   0.714  11.422  0.8443 -1.0557  1.3802
11662TIP3    H256478   4.909   0.745  11.548 -1.0823  1.8502 -0.4150
11663TIP3   OH256479   0.010   2.234  12.288  0.2560  0.1696  0.2951
11663TIP3    H156480  -0.064   2.245  12.228  0.5083 -1.1600 -0.2824
11663TIP3    H256481   0.004   2.310  12.346 -0.3923  1.1441 -0.9811
11664TIP3   OH256482   6.412   2.353  15.482 -0.5888  0.0659 -0.1778
11664TIP3    H156483   6.388   2.361  15.389 -1.6306 -0.2618  0.0483
11664TIP3    H256484   6.330   2.362  15.529  0.0891  1.4233  0.8140
11665TIP3   OH256485   1.496   3.967   3.098 -0.3821  0.1120 -0.1638
11665TIP3    H156486   1.521   3.918   3.176 -0.9462  0.7824  0.4431
11665TIP3    H256487   1.420   3.920   3.064 -0.0716 -0.2427 -0.3848
11666TIP3   OH256488   4.842   6.113  16.146 -0.1902  0.3331  0.1322
11666TIP3    H156489   4.858   6.106  16.240 -0.6473 -0.1388  0.1757
11666TIP3    H256490   4.885   6.036  16.109  0.9398  1.0874 -0.1719
11667TIP3   OH256491   0.464   0.971  15.554  0.8020 -0.8974 -0.5618
11667TIP3    H156492   0.526   0.899  15.567  0.4990 -1.1954 -0.7465
11667TIP3    H256493   0.515   1.050  15.570  1.1043 -1.1595 -0.2185
11668TIP3   OH256494   1.284   4.528  15.173  0.3421  0.7552  0.0253
11668TIP3    H156495   1.243   4.606  15.209  1.4107  1.9060 -1.1344
11668TIP3    H256496   1.216   4.461  15.175 -0.1454  1.2047  2.5415
11669TIP3   OH256497   0.512   1.506   4.884 -0.4311 -0.0012  0.8168
11669TIP3    H156498   0.562   1.550   4.953  0.1582  0.4927  0.0871
11669TIP3    H256499   0.575   1.494   4.813 -0.9720 -0.7110  0.4476
11670TIP3   OH256500   5.252   3.380  15.233  0.6546  0.4894  0.0758
11670TIP3    H156501   5.307   3.321  15.181  0.6899 -0.6550  1.3437
11670TIP3    H256502   5.169   3.383  15.185  1.1388  0.6135 -0.7869
11671TIP3   OH256503   6.040   2.230   0.182 -0.1922  0.6586 -0.8033
11671TIP3    H156504   5.947   2.225   0.203  0.0140 -1.7878 -0.2217
11671TIP3    H256505   6.043   2.216   0.087 -0.3789  0.0195 -0.7193
11672TIP3   OH256506   1.863   4.272  10.928  0.6572 -0.3674  0.2247
11672TIP3    H156507   1.838   4.351  10.881 -0.6069  0.4230  2.0796
11672TIP3    H256508   1.941   4.240  10.883  1.8654  2.5445  0.0514
11673TIP3   OH256509   6.580   4.323   4.867 -0.0652  0.1967 -0.3959
11673TIP3    H156510   6.521   4.374   4.923  1.5440 -0.3106  1.9047
11673TIP3    H256511   6.523   4.263   4.820 -1.4732  0.0961  1.3322
11674TIP3   OH256512   1.569   1.511   1.124 -0.5154  0.2650  0.1520
11674TIP3    H156513   1.601   1.427   1.156 -1.5007 -0.8944 -1.7197
11674TIP3    H256514   1.479   1.493   1.097 -1.5440  2.5077  1.8057
11675TIP3   OH256515   2.583   1.593   3.847  0.2465 -0.8003 -0.2294
11675TIP3    H156516   2.502   1.573   3.800  0.0610 -0.1258 -0.2202
11675TIP3    H256517   2.553   1.641   3.925  0.5493 -1.8190  0.5349
11676TIP3   OH256518   0.050   2.433  16.409 -0.5184  0.0330  0.2326
11676TIP3    H156519   0.017   2.405  16.324 -0.2435  0.2613  0.0526
11676TIP3    H256520   0.133   2.475  16.391  0.2520 -1.1967  0.7639
11677TIP3   OH256521   0.743   0.741   2.795 -0.3674  0.4117  0.2276
11677TIP3    H156522   0.672   0.686   2.761 -1.4671  1.4786  0.6840
11677TIP3    H256523   0.811   0.737   2.728 -0.7456 -0.8456 -0.1074
11678TIP3   OH256524   5.385   2.066   1.945 -0.2517  0.2655 -0.0666
11678TIP3    H156525   5.305   2.089   1.896 -0.7413  1.2592  1.1343
11678TIP3    H256526   5.386   1.970   1.945 -0.4021  0.2300 -1.7154
11679TIP3   OH256527   6.597   2.287   1.048 -0.1739 -0.0235 -0.3389
11679TIP3    H156528   6.590   2.257   0.957  0.4098 -1.6874  0.1280
11679TIP3    H256529   6.547   2.223   1.098 -1.3594  1.4610  0.4422
11680TIP3   OH256530   0.857   3.234   4.709  0.0371 -0.2088 -0.2093
11680TIP3    H156531   0.809   3.177   4.769 -0.4450 -1.5863 -1.8314
11680TIP3    H256532   0.834   3.202   4.622  0.7843  1.6611 -1.1546
11681TIP3   OH256533   2.609   5.137  13.119  0.0325 -0.2090  0.3199
11681TIP3    H156534   2.648   5.195  13.184 -0.1192  0.3270 -0.0556
11681TIP3    H256535   2.680   5.122  13.055 -0.3632  0.7883 -0.3777
11682TIP3   OH256536   2.653   1.897  10.546  0.1534  1.0665  0.3036
11682TIP3    H156537   2.628   1.985  10.574  0.6660  1.3800 -0.2051
11682TIP3    H256538   2.736   1.909  10.500  0.2255  0.3177  0.2241
11683TIP3   OH256539   5.902   6.178  15.287  0.2382 -0.0575  0.2374
11683TIP3    H156540   5.861   6.243  15.345 -0.5332 -0.3717  0.0515
11683TIP3    H256541   5.829   6.137  15.241  0.6993 -1.1459  0.4356
11684TIP3   OH256542   2.955   2.576  13.862 -0.2916  0.0217 -0.0963
11684TIP3    H156543   2.893   2.571  13.789  0.3342 -0.9849 -0.5774
11684TIP3    H256544   2.902   2.600  13.937 -0.9341  1.2175 -0.8950
11685TIP3   OH256545   0.147   0.718  12.862 -0.1377  0.1722 -0.1183
11685TIP3    H156546   0.140   0.638  12.914 -0.8941 -0.1505 -0.6950
11685TIP3    H256547   0.239   0.743  12.869 -0.0578 -0.3097  0.7018
11686TIP3   OH256548   6.250   3.622  14.180  0.6383  0.2558  0.3969
11686TIP3    H156549   6.195   3.687  14.223  1.5477 -0.3365  2.6009
11686TIP3    H256550   6.258   3.652  14.090  0.1910  2.6336  1.1009
11687TIP3   OH256551   2.290   6.277  13.484  0.3281 -0.1175  0.4627
11687TIP3    H156552   2.355   6.215  13.450  0.5227  1.0243 -1.3761
11687TIP3    H256553   2.332   6.363  13.476 -0.8705  0.5033  0.5845
11688TIP3   OH256554   2.756   0.613   2.579  0.4233  0.9267 -0.0881
11688TIP3    H156555   2.797   0.675   2.639  0.4593  0.6634  0.1635
11688TIP3    H256556   2.819   0.542   2.572  1.8905  2.3752 -2.9465
11689TIP3   OH256557   0.787   4.378  12.010  0.5902  0.1353 -0.2483
11689TIP3    H156558   0.834   4.460  11.994  1.7645 -0.5434 -0.3847
11689TIP3    H256559   0.800   4.361  12.103  0.0905  0.2441 -0.1552
11690TIP3   OH256560   2.766   0.560  12.995 -0.6519 -0.1469  0.5951
11690TIP3    H156561   2.820   0.500  12.944 -1.3209  0.0771 -0.4086
11690TIP3    H256562   2.819   0.639  13.002 -1.3567  0.6045 -1.6372
11691TIP3   OH256563   2.494   4.407   6.194  0.1727 -0.0812  0.2518
11691TIP3    H156564   2.454   4.368   6.116  0.3464  2.5404 -1.2544
11691TIP3    H256565   2.523   4.332   6.246  1.0383 -1.9747 -2.7190
11692TIP3   OH256566   5.062   1.413   2.390  0.1604 -0.3263 -0.2512
11692TIP3    H156567   5.062   1.409   2.294 -1.3463  1.9176 -0.4285
11692TIP3    H256568   4.983   1.464   2.412  0.4756 -0.7600  2.1826
11693TIP3   OH256569   6.039   2.713   2.090 -0.3133 -0.2261 -0.4530
11693TIP3    H156570   6.006   2.665   2.014  2.5054  0.1171 -2.0434
11693TIP3    H256571   6.064   2.645   2.152 -0.8541 -0.5917 -0.6274
11694TIP3   OH256572   6.394   3.471   3.796  0.5021  0.3028  0.3033
11694TIP3    H156573   6.440   3.512   3.870 -2.1910 -0.1512  2.4001
11694TIP3    H256574   6.312   3.521   3.789  1.3859  1.5365 -3.7046
11695TIP3   OH256575   0.846   2.258  12.215  0.4275  0.5026  0.1686
11695TIP3    H156576   0.906   2.189  12.187 -0.3851 -0.0214 -0.3141
11695TIP3    H256577   0.776   2.212  12.261  0.9737  1.2179  1.7856
11696TIP3   OH256578   4.570   4.150   3.809  0.1610 -0.4465 -0.4362
11696TIP3    H156579   4.531   4.077   3.761  1.0691 -1.0395 -0.2998
11696TIP3    H256580   4.515   4.225   3.788 -1.5912 -1.4066  0.4493
11697TIP3   OH256581   3.485   5.057   0.337  0.3144  0.4156  0.2916
11697TIP3    H156582   3.577   5.034   0.326  0.9125  2.8380 -0.2153
11697TIP3    H256583   3.476   5.077   0.431 -0.0172 -0.9122  0.5712
11698TIP3   OH256584   3.092   1.767  11.628 -0.2579  0.0132  0.1840
11698TIP3    H156585   3.133   1.846  11.663  1.7455 -1.2339  0.8583
11698TIP3    H256586   3.088   1.708  11.703 -0.4970 -0.9777 -0.5968
11699TIP3   OH256587   4.317   1.931   4.840 -0.1574 -0.1320  0.4411
11699TIP3    H156588   4.282   1.886   4.763  1.2822 -2.7856  1.1815
11699TIP3    H256589   4.410   1.941   4.822 -0.2471  1.6425  0.7963
11700TIP3   OH256590   5.366   6.064   6.311 -0.4229  0.1162 -0.2431
11700TIP3    H156591   5.349   6.005   6.384 -0.8901  1.3393  0.6881
11700TIP3    H256592   5.441   6.116   6.338  0.1960 -0.2475 -1.1906
11701TIP3   OH256593   6.449   3.440   1.888  0.0115  0.2435 -0.2735
11701TIP3    H156594   6.453   3.439   1.984  1.0041  1.4366 -0.2755
11701TIP3    H256595   6.369   3.393   1.867 -0.7901  0.9033  1.1871
11702TIP3   OH256596   5.232   4.551  12.127 -0.2701 -0.6007 -0.5248
11702TIP3    H156597   5.191   4.620  12.075 -0.7055 -0.9926 -0.7009
11702TIP3    H256598   5.303   4.519  12.071  0.6999  0.4833  0.0158
11703TIP3   OH256599   5.111   6.320   3.292  0.6298  0.5001 -0.2156
11703TIP3    H156600   5.064   6.308   3.209  1.0065 -1.9037 -0.1601
11703TIP3    H256601   5.202   6.337   3.265  0.7065 -0.0464 -0.3222
11704TIP3   OH256602   4.977   3.559  12.909  0.0333  0.0566 -0.3856
11704TIP3    H156603   4.884   3.539  12.908 -0.4743  1.9831  1.1862
11704TIP3    H256604   4.982   3.654  12.900  1.8516  0.0020 -0.4498
11705TIP3   OH256605   6.762   4.428  10.770 -0.8582 -0.1193 -0.2052
11705TIP3    H156606   6.746   4.333  10.776 -0.5873 -0.2467 -1.3608
11705TIP3    H256607   6.848   4.436  10.730 -0.9277  0.6265 -0.2215
11706TIP3   OH256608   0.169   3.652  12.933  0.2057  1.2007  0.8249
11706TIP3    H156609   0.150   3.717  13.000  0.3207  1.4489  0.6195
11706TIP3    H256610   0.263   3.638  12.938  0.0847  0.5489  1.3195
11707TIP3   OH256611   1.024   4.278  11.834  0.5562  0.1510  0.7225
11707TIP3    H156612   0.984   4.245  11.754  1.2913 -1.6374  1.0478
11707TIP3    H256613   0.964   4.250  11.904 -0.5200  2.4266  0.7742
11708TIP3   OH256614   2.314   2.909  15.707 -0.1652 -0.0975 -0.3159
11708TIP3    H156615   2.288   2.994  15.670 -1.4374 -0.0502  0.6039
11708TIP3    H256616   2.376   2.931  15.775  2.2742 -0.1913 -2.3692
11709TIP3   OH256617   4.837   5.135   1.098 -0.0083 -0.2916  0.2792
11709TIP3    H156618   4.795   5.215   1.067  2.4410  0.8456 -0.3736
11709TIP3    H256619   4.800   5.120   1.185  0.3043  2.2767  0.9414
11710TIP3   OH256620   5.743   2.350  13.889  0.2643 -0.5017  0.1428
11710TIP3    H156621   5.773   2.411  13.822 -1.3484 -0.3363 -0.4764
11710TIP3    H256622   5.789   2.378  13.969  1.0373  0.2633 -0.5461
11711TIP3   OH256623   5.089   5.029   6.206  0.1715  0.5478 -0.1285
11711TIP3    H156624   5.036   5.004   6.282  0.7088 -0.6849 -0.1331
11711TIP3    H256625   5.072   4.960   6.141  1.1389  0.5710 -0.4279
11712TIP3   OH256626   4.644   0.291   5.919 -0.3977  0.3152 -0.0463
11712TIP3    H156627   4.676   0.333   5.999 -0.6177  0.7574 -0.1855
11712TIP3    H256628   4.689   0.338   5.848  0.4687 -0.6500 -0.1617
11713TIP3   OH256629   1.687   6.493   0.762  0.0453  0.1159  0.7746
11713TIP3    H156630   1.714   6.472   0.673 -2.6113  1.9374 -0.5819
11713TIP3    H256631   1.625   6.424   0.785 -0.7012  0.6692  0.4475
11714TIP3   OH256632   1.090   6.771   6.822 -0.1598  0.1055 -0.5445
11714TIP3    H156633   1.169   6.821   6.844 -0.8738  1.4303 -0.8340
11714TIP3    H256634   1.053   6.819   6.748 -2.1417  0.5327  0.6625
11715TIP3   OH256635   5.885   4.084  16.849 -0.2335  0.1754  0.2839
11715TIP3    H156636   5.963   4.132  16.820 -1.6446  2.6031  0.3112
11715TIP3    H256637   5.839   4.063  16.768  0.3716 -1.2525  0.2689
11716TIP3   OH256638   4.067   5.753  11.716 -0.0604  0.2104  0.2839
11716TIP3    H156639   4.133   5.815  11.685  0.2186 -0.8778 -1.4020
11716TIP3    H256640   4.108   5.667  11.709 -0.5480 -0.2473  2.3083
11717TIP3   OH256641   0.816   0.617  13.779  0.2814  0.1895 -0.1743
11717TIP3    H156642   0.880   0.556  13.744  2.4949  1.3268  1.6454
11717TIP3    H256643   0.733   0.590  13.741  1.5121 -2.6047 -1.0609
11718TIP3   OH256644   3.030   1.668   0.454  0.0872 -0.0465  0.2179
11718TIP3    H156645   2.953   1.647   0.401 -0.2701  0.6651  0.4475
11718TIP3    H256646   2.995   1.693   0.539  0.6514 -1.0114  0.7520
11719TIP3   OH256647   6.026   6.634   3.778  0.5375 -0.0640 -0.3782
11719TIP3    H156648   6.091   6.702   3.764  3.8510 -2.7619  0.6137
11719TIP3    H256649   5.964   6.673   3.840  1.1790  2.5904 -1.2679
11720TIP3   OH256650   2.346   0.666   5.795 -0.0096  0.0492 -0.3037
11720TIP3    H156651   2.404   0.593   5.776 -0.6053 -0.9831  1.5936
11720TIP3    H256652   2.258   0.629   5.793 -0.3935  0.9097 -0.1962
11721TIP3   OH256653   3.440   3.324  15.737 -0.3068  0.1036  0.1012
11721TIP3    H156654   3.422   3.377  15.815  2.4108  0.7287  0.4244
11721TIP3    H256655   3.396   3.241  15.753 -0.6983  0.6080  1.8220
11722TIP3   OH256656   3.736   3.696   3.268  0.0899 -0.0391  0.5738
11722TIP3    H156657   3.772   3.617   3.227  0.2150  0.1892  0.2355
11722TIP3    H256658   3.794   3.713   3.342  3.2029  2.5299 -2.1147
11723TIP3   OH256659   5.074   4.268   5.537  0.8479  0.2426  0.1163
11723TIP3    H156660   5.127   4.232   5.608 -0.1377  1.2677  1.4181
11723TIP3    H256661   5.093   4.362   5.537  1.9306  0.0813 -1.9680
11724TIP3   OH256662   1.754   0.057   4.382  0.0230  0.2381  0.0737
11724TIP3    H156663   1.693  -0.015   4.396 -0.9776  1.1266  0.3901
11724TIP3    H256664   1.840   0.019   4.401 -0.5839 -0.6067  1.3133
11725TIP3   OH256665   3.441   6.544   5.465  0.2149  0.3933 -0.1584
11725TIP3    H156666   3.406   6.557   5.553  1.0670 -0.6489  0.3711
11725TIP3    H256667   3.488   6.625   5.445  1.4706  0.0276  1.0920
11726TIP3   OH256668   4.304   0.468  11.455  1.0756 -0.1529 -0.2490
11726TIP3    H156669   4.336   0.379  11.442  0.6574 -0.4442  0.6299
11726TIP3    H256670   4.237   0.479  11.388 -0.3638 -1.2768  0.9394
11727TIP3   OH256671   6.212   2.953   2.082 -0.1392 -0.3060  0.0496
11727TIP3    H156672   6.167   3.004   2.015  0.8159 -0.5850 -0.8123
11727TIP3    H256673   6.155   2.878   2.096 -0.8434  0.2555  0.3018
11728TIP3   OH256674   0.696   2.956   0.641  0.1165  0.2469 -0.0309
11728TIP3    H156675   0.761   2.888   0.622 -0.0012  0.2505 -0.4521
11728TIP3    H256676   0.736   3.037   0.610 -0.8849 -0.0112 -2.1678
11729TIP3   OH256677   5.876   6.746   3.971 -0.6012 -0.1561  0.7850
11729TIP3    H156678   5.924   6.825   3.994 -3.2686  2.0578 -0.6030
11729TIP3    H256679   5.869   6.697   4.053  1.7222  0.6585  1.5386
11730TIP3   OH256680   3.597   4.101   0.201  0.0366 -0.2620  0.3009
11730TIP3    H156681   3.683   4.139   0.222 -0.2952  0.2924  0.6821
11730TIP3    H256682   3.535   4.150   0.255 -0.7033  0.3738 -1.0549
11731TIP3   OH256683   4.332   0.345  14.351  0.0051 -0.0249  0.2343
11731TIP3    H156684   4.420   0.378  14.368 -0.0017 -0.1867  0.5789
11731TIP3    H256685   4.295   0.407  14.288  0.4105 -0.0285 -0.0116
11732TIP3   OH256686   4.895   6.553   0.303  0.2763 -0.3063  0.8559
11732TIP3    H156687   4.832   6.530   0.371  0.0601 -0.2247  0.6835
11732TIP3    H256688   4.975   6.507   0.328  0.2899 -0.0285  1.3300
11733TIP3   OH256689   6.679   1.784   1.069  0.3885  0.3379  0.2531
11733TIP3    H156690   6.727   1.727   1.009  1.0102  1.0178  0.0932
11733TIP3    H256691   6.625   1.724   1.121 -0.0719 -0.2724 -0.8881
11734TIP3   OH256692   4.313   2.929   4.216  0.2656  0.4486  0.1762
11734TIP3    H156693   4.219   2.912   4.216  0.2633  0.4619  0.1250
11734TIP3    H256694   4.320   3.024   4.210  0.2490  0.6231  2.2156
11735TIP3   OH256695   2.098   6.110  15.175  0.2950  0.2437  0.6062
11735TIP3    H156696   2.084   6.096  15.081 -0.7452  2.0016  0.4524
11735TIP3    H256697   2.019   6.155  15.204  1.0679  0.6773  2.1072
11736TIP3   OH256698   4.914   2.350  15.741 -0.6596  0.1505  0.0274
11736TIP3    H156699   4.932   2.387  15.827 -0.4943  1.8762 -0.7084
11736TIP3    H256700   4.999   2.325  15.707 -0.1624  3.0611 -1.1484
11737TIP3   OH256701   5.400   5.315   6.629  0.0107  0.1828  0.7762
11737TIP3    H156702   5.492   5.290   6.632 -0.1634 -0.9947 -1.5355
11737TIP3    H256703   5.357   5.255   6.690  0.4657 -0.8723  0.0722
11738TIP3   OH256704   5.381   3.976   2.852  0.1787  0.4231 -0.3026
11738TIP3    H156705   5.311   3.948   2.793  0.8708  1.1143 -1.5002
11738TIP3    H256706   5.426   4.046   2.804  1.3579  0.3570  0.6592
11739TIP3   OH256707   2.544   4.338   3.799 -0.0506 -0.7112 -0.6921
11739TIP3    H156708   2.628   4.381   3.817 -0.7438  0.0951  0.8672
11739TIP3    H256709   2.507   4.387   3.726  0.0994  0.0264 -0.2819
11740TIP3   OH256710   4.439   4.143  12.880  0.0030  0.6246  0.1509
11740TIP3    H156711   4.360   4.176  12.922 -0.3749  0.9943 -0.8256
11740TIP3    H256712   4.469   4.214  12.824  1.7635  0.9760  1.4383
11741TIP3   OH256713   3.651   1.549   2.287  0.4742 -1.0575  0.4583
11741TIP3    H156714   3.735   1.507   2.307  0.2475 -1.6966  0.1017
11741TIP3    H256715   3.617   1.576   2.372  1.1532 -0.5660  0.5846
11742TIP3   OH256716   4.880   6.283   2.596 -0.0683  0.1686  0.3214
11742TIP3    H156717   4.846   6.194   2.591 -1.8739  0.8711 -0.9035
11742TIP3    H256718   4.929   6.296   2.515  0.8127  0.0751  0.8255
11743TIP3   OH256719   6.233   0.390  13.882  0.2932 -0.1877  0.4998
11743TIP3    H156720   6.185   0.337  13.946 -2.1977 -0.2699 -1.2740
11743TIP3    H256721   6.197   0.364  13.798  1.1273  2.2022 -0.6893
11744TIP3   OH256722   2.411   1.512  12.699  0.2814 -0.1632 -0.3940
11744TIP3    H156723   2.476   1.568  12.656  0.4162  1.0799  1.3225
11744TIP3    H256724   2.328   1.557  12.686 -0.1426 -1.3095 -1.8431
11745TIP3   OH256725   3.400   4.615  13.500  0.0203  0.1729 -0.0270
11745TIP3    H156726   3.461   4.688  13.492 -0.1592  0.3225 -0.0546
11745TIP3    H256727   3.414   4.563  13.421 -1.4127  1.3889 -1.1552
11746TIP3   OH256728   0.987   5.742  16.133  0.0942  0.3891  0.1359
11746TIP3    H156729   1.025   5.822  16.098  1.2944  0.3433  1.2459
11746TIP3    H256730   0.942   5.702  16.059  1.7427  0.7578 -1.1383
11747TIP3   OH256731   4.610   1.574  13.182 -0.2254 -0.6501 -0.2575
11747TIP3    H156732   4.573   1.647  13.233  1.2111  0.8568 -1.2649
11747TIP3    H256733   4.554   1.500  13.203 -1.0800  0.4582  1.7063
11748TIP3   OH256734   4.417   6.142   4.847  0.1256  0.5361 -0.2635
11748TIP3    H156735   4.455   6.071   4.795 -0.3037 -0.4168  0.6701
11748TIP3    H256736   4.368   6.195   4.784 -0.3760 -0.5814 -0.8406
11749TIP3   OH256737   0.748   4.781   0.112  0.8667 -0.3662 -0.0874
11749TIP3    H156738   0.807   4.710   0.086 -0.9131 -1.4828 -1.3394
11749TIP3    H256739   0.677   4.737   0.159  0.6424  0.8384  0.7266
11750TIP3   OH256740   0.461   1.680   3.487 -0.0303  0.9195 -0.8409
11750TIP3    H156741   0.481   1.602   3.435 -0.4948  0.3994 -0.2489
11750TIP3    H256742   0.450   1.750   3.422  2.4622  0.9943 -1.3029
11751TIP3   OH256743   1.368   4.341   2.328  0.6034  0.4463 -0.0639
11751TIP3    H156744   1.367   4.270   2.263  0.0948  0.7334 -0.3777
11751TIP3    H256745   1.433   4.314   2.392  0.4751 -0.2638 -0.2270
11752TIP3   OH256746   6.602   2.624  14.986 -0.3309 -0.2945  0.0354
11752TIP3    H156747   6.663   2.578  14.929  1.6384  2.8014 -0.5591
11752TIP3    H256748   6.642   2.618  15.073 -0.2523 -0.0126  0.0189
11753TIP3   OH256749   0.975   4.178   0.983 -0.0641  0.1854  0.3296
11753TIP3    H156750   0.911   4.204   1.049  0.7378  1.0236  0.7973
11753TIP3    H256751   1.048   4.239   0.994  1.6339 -1.8300  1.0423
11754TIP3   OH256752   4.722   6.511   3.117  0.6602 -0.2910 -0.3637
11754TIP3    H156753   4.795   6.448   3.121  1.4306  0.5622 -0.7429
11754TIP3    H256754   4.746   6.570   3.046 -0.3549  0.0776 -0.4047
11755TIP3   OH256755   3.259   4.488  16.985  0.5377 -0.0484 -0.1351
11755TIP3    H156756   3.337   4.488  17.041  0.7725 -0.7907 -0.4367
11755TIP3    H256757   3.258   4.575  16.946  0.7798  0.2305  0.4650
11756TIP3   OH256758   4.739   4.372   5.065 -0.4364  0.7286  0.5896
11756TIP3    H156759   4.718   4.349   5.155 -0.9615 -0.0882  0.2594
11756TIP3    H256760   4.672   4.330   5.012  0.6223  0.0967 -0.2907
11757TIP3   OH256761   6.069   1.029  13.182 -0.8919  0.0287 -0.1422
11757TIP3    H156762   6.110   1.067  13.260 -0.0706  0.9501 -1.0024
11757TIP3    H256763   6.139   0.983  13.137 -1.0262  0.7423 -1.0946
11758TIP3   OH256764   1.148   6.472  14.161 -0.5217  0.0913  0.3813
11758TIP3    H156765   1.114   6.549  14.206 -0.2432 -0.8305  2.2950
11758TIP3    H256766   1.072   6.416  14.148 -0.5474  0.2168 -0.0230
11759TIP3   OH256767   4.077   1.760   4.068  0.1609 -0.1677 -0.6022
11759TIP3    H156768   4.046   1.671   4.080 -1.1020  0.1053 -1.5263
11759TIP3    H256769   4.145   1.772   4.134 -0.5619 -1.3806  0.3937
11760TIP3   OH256770   1.027   4.365   4.779 -0.3668 -0.0722  0.3292
11760TIP3    H156771   0.936   4.334   4.776 -0.1595 -0.7705  0.8985
11760TIP3    H256772   1.078   4.293   4.740 -0.2056  1.0226 -1.6185
11761TIP3   OH256773   2.961   4.461  11.383  0.0368  0.6446 -0.0347
11761TIP3    H156774   2.961   4.395  11.313  0.4265  1.5940 -0.9463
11761TIP3    H256775   3.022   4.528  11.353 -0.7715  1.6992  0.6187
11762TIP3   OH256776   4.328   0.887   0.254 -0.0663 -0.3428 -0.2854
11762TIP3    H156777   4.260   0.859   0.192 -1.1617  2.2513 -0.3823
11762TIP3    H256778   4.409   0.854   0.216 -1.0371 -1.6293 -1.3527
11763TIP3   OH256779   1.019   5.496  11.720  0.4370  0.4323  0.0691
11763TIP3    H156780   0.958   5.436  11.678 -1.6239  0.9869  2.1046
11763TIP3    H256781   1.084   5.439  11.761 -1.0584 -0.4686  1.3124
11764TIP3   OH256782   2.643   6.589  12.890  0.2752  0.5142  0.1217
11764TIP3    H156783   2.634   6.603  12.984  0.9107  0.8536  0.1409
11764TIP3    H256784   2.561   6.621  12.853 -0.7830 -1.3463  0.7036
11765TIP3   OH256785   3.859   2.865   5.371  0.0231 -0.1692 -0.7647
11765TIP3    H156786   3.790   2.887   5.434  0.5271 -0.6009 -0.0380
11765TIP3    H256787   3.816   2.807   5.308 -0.2121 -0.6975 -0.1351
11766TIP3   OH256788   2.817   1.491  15.781 -0.0533  0.4549  0.2186
11766TIP3    H156789   2.792   1.547  15.708  0.8079  0.0247 -0.4241
11766TIP3    H256790   2.907   1.465  15.761 -0.8956 -2.3580 -0.2705
11767TIP3   OH256791   3.648   5.777  13.265  0.1026 -0.1331 -0.2323
11767TIP3    H156792   3.647   5.785  13.170  0.5422 -0.8163 -0.2997
11767TIP3    H256793   3.556   5.789  13.291 -0.1909 -0.9747 -0.8387
11768TIP3   OH256794   0.408   4.045   4.304  0.1655 -0.4288  0.1302
11768TIP3    H156795   0.471   4.110   4.334  0.4138 -1.1361  1.2420
11768TIP3    H256796   0.322   4.082   4.325  0.3323 -0.9405  1.9303
11769TIP3   OH256797   4.883   5.400  13.833 -0.0352  0.8440 -0.2777
11769TIP3    H156798   4.884   5.442  13.747  0.1246 -1.9134 -1.7205
11769TIP3    H256799   4.927   5.316  13.820  0.5951  0.5918  2.6743
11770TIP3   OH256800   4.120   6.754   2.972  0.8087  0.4598 -0.5313
11770TIP3    H156801   4.194   6.694   2.984  1.1494  0.9154 -0.3424
11770TIP3    H256802   4.127   6.816   3.044 -1.2958 -1.0259  1.0948
11771TIP3   OH256803   3.530   5.385  15.609  0.0592 -0.0503 -0.2038
11771TIP3    H156804   3.489   5.327  15.545  0.3220  0.0082 -0.4292
11771TIP3    H256805   3.624   5.376  15.591  0.0962  0.5205 -0.3078
11772TIP3   OH256806   4.646   1.148  12.099  0.7052  0.0657 -0.2228
11772TIP3    H156807   4.561   1.135  12.142  1.2355  1.6213  1.4141
11772TIP3    H256808   4.685   1.061  12.095  0.4800 -0.2082  2.2149
11773TIP3   OH256809   0.565   5.441  15.026 -0.2098 -0.1381  0.3881
11773TIP3    H156810   0.526   5.400  14.948 -0.4163 -0.5574  0.7044
11773TIP3    H256811   0.659   5.424  15.017 -0.3908 -1.7182  1.0780
11774TIP3   OH256812   4.539   5.307   5.046  0.2735  0.2124 -0.0839
11774TIP3    H156813   4.509   5.307   5.137 -3.5036  1.6447 -1.1435
11774TIP3    H256814   4.532   5.215   5.018  0.4775 -0.0736  0.7880
11775TIP3   OH256815   0.166   2.440   0.417 -0.3623 -0.1203  0.6532
11775TIP3    H156816   0.084   2.447   0.467 -1.6114  2.0386 -1.4545
11775TIP3    H256817   0.225   2.391   0.473 -3.2043 -2.0610  2.1499
11776TIP3   OH256818   6.337   0.927   3.714  1.0418  0.0357  0.2922
11776TIP3    H156819   6.323   0.839   3.751 -2.0703 -0.0063 -0.7350
11776TIP3    H256820   6.358   0.911   3.622  0.1266  0.3314  0.0197
11777TIP3   OH256821   5.137   3.371  13.692 -0.8069 -0.3125  0.3417
11777TIP3    H156822   5.088   3.332  13.765 -2.9526  1.7526  0.1366
11777TIP3    H256823   5.196   3.433  13.734  0.0018 -1.1148  0.4355
11778TIP3   OH256824   5.073   1.455  14.280 -0.2157  0.7048 -0.1260
11778TIP3    H156825   5.052   1.531  14.225 -2.5093  0.4302  0.2699
11778TIP3    H256826   5.009   1.389  14.255 -1.2173  0.4859  2.6995
11779TIP3   OH256827   0.882   2.614   3.315  0.0819  0.6696  0.3427
11779TIP3    H156828   0.821   2.688   3.316 -0.0843  0.5335  0.9082
11779TIP3    H256829   0.826   2.537   3.315  0.2200  0.5231  2.5070
11780TIP3   OH256830   0.329   3.126   3.464  0.4164  0.4923 -0.0113
11780TIP3    H156831   0.239   3.129   3.496  0.9492  1.3030  1.4865
11780TIP3    H256832   0.360   3.038   3.489  1.0664  1.3632  2.5365
11781TIP3   OH256833   2.730   4.954   6.439 -0.0978 -0.2190  0.0106
11781TIP3    H156834   2.681   5.034   6.457  0.6257  0.1232  0.5374
11781TIP3    H256835   2.780   4.974   6.360  0.1367 -0.1187  0.1820
11782TIP3   OH256836   0.981   0.185  15.361 -0.1975  0.3718  0.3285
11782TIP3    H156837   0.964   0.168  15.268  1.1463  0.7070  0.0054
11782TIP3    H256838   0.949   0.106  15.405  0.3296 -0.3527 -0.5511
11783TIP3   OH256839   3.282   5.306   6.813 -0.4816  0.2836 -0.3672
11783TIP3    H156840   3.338   5.277   6.741  1.2603  1.1362  0.5714
11783TIP3    H256841   3.279   5.401   6.805 -1.6030  0.2701 -0.2327
11784TIP3   OH256842   4.271   2.477  14.234  0.0039  0.4821  0.6583
11784TIP3    H156843   4.195   2.440  14.280  0.1796  2.8772  3.1698
11784TIP3    H256844   4.338   2.409  14.240 -1.6073 -1.3143 -0.7907
11785TIP3   OH256845   4.630   4.857  12.715 -0.0017 -0.3743  0.4848
11785TIP3    H156846   4.671   4.771  12.727 -0.3950 -0.4405  1.4583
11785TIP3    H256847   4.589   4.876  12.799 -1.7684 -0.2079 -0.3701
11786TIP3   OH256848   5.720   2.135   1.506 -0.0636 -0.3331 -0.0769
11786TIP3    H156849   5.771   2.180   1.573 -0.8706  0.2645  0.1426
11786TIP3    H256850   5.647   2.096   1.553 -1.9574  2.0357 -0.8381
11787TIP3   OH256851   2.923   6.094   0.469  0.2797  0.1208 -0.3577
11787TIP3    H156852   2.987   6.162   0.449 -1.4823  1.9238 -0.2121
11787TIP3    H256853   2.919   6.091   0.564  0.1901 -0.0247 -0.3653
11788TIP3   OH256854   0.666   3.724  12.475  0.4465  0.1491 -0.0065
11788TIP3    H156855   0.734   3.659  12.454  0.0800 -0.5727  0.9464
11788TIP3    H256856   0.712   3.790  12.528  0.7042  0.4022 -0.5369
11789TIP3   OH256857   6.060   1.384   0.644  0.4695 -0.2919  0.2672
11789TIP3    H156858   6.084   1.322   0.576  2.4865  0.9215 -0.2146
11789TIP3    H256859   6.031   1.330   0.717  2.0935 -1.8262 -0.1569
11790TIP3   OH256860   6.833   5.416  15.101  0.7118  0.3763 -0.3251
11790TIP3    H156861   6.822   5.462  15.185  0.3427  0.0558 -0.2001
11790TIP3    H256862   6.860   5.328  15.125  0.6476  0.2954 -0.5491
11791TIP3   OH256863   6.258   3.172   5.157 -0.1282  0.3817  0.0525
11791TIP3    H156864   6.330   3.212   5.206  2.3175 -1.6897 -1.5882
11791TIP3    H256865   6.254   3.083   5.189 -2.1676  0.5062  0.2403
11792TIP3   OH256866   4.219   3.406   2.589  0.4777 -0.7256 -0.4160
11792TIP3    H156867   4.215   3.494   2.553 -0.1447 -1.2209 -1.6450
11792TIP3    H256868   4.296   3.367   2.548 -0.1741 -1.2622 -1.1634
11793TIP3   OH256869   2.620   6.189  16.419 -0.4069  0.0053 -0.4949
11793TIP3    H156870   2.677   6.180  16.343  0.8907  1.9335  0.1725
11793TIP3    H256871   2.633   6.108  16.469  1.1234  0.0537 -0.7704
11794TIP3   OH256872   3.575   4.419   2.004 -0.2308 -0.5568  0.2976
11794TIP3    H156873   3.602   4.368   2.080  0.0321  0.8673  1.1957
11794TIP3    H256874   3.511   4.482   2.039  0.9398  1.0655 -0.3424
11795TIP3   OH256875   6.306   3.755  12.792  0.0288  0.1591 -0.0422
11795TIP3    H156876   6.363   3.832  12.798  0.5619 -0.1494 -0.8562
11795TIP3    H256877   6.279   3.737  12.882 -1.3828  2.2286  0.0058
11796TIP3   OH256878   6.169   3.371  12.337  0.5367  0.7608  0.1598
11796TIP3    H156879   6.233   3.335  12.397  1.5668  1.0481 -0.7429
11796TIP3    H256880   6.100   3.304  12.331  1.2899 -0.0336  0.2872
11797TIP3   OH256881   2.292   5.747  11.129  0.3433  0.3014  0.3148
11797TIP3    H156882   2.264   5.747  11.038  0.1857 -1.8250  0.2966
11797TIP3    H256883   2.274   5.835  11.161 -0.2642  0.8668 -1.5021
11798TIP3   OH256884   1.205   1.714   2.289  0.0195  0.3406  0.2319
11798TIP3    H156885   1.273   1.648   2.300 -0.5493 -0.8011 -2.2268
11798TIP3    H256886   1.135   1.687   2.348  0.0933 -0.8716 -0.2080
11799TIP3   OH256887   2.693   3.968   4.755 -0.2678 -0.4704 -0.2180
11799TIP3    H156888   2.736   3.891   4.719  1.7651 -0.4379  1.9146
11799TIP3    H256889   2.742   4.042   4.719  0.6438 -0.3841  1.1185
11800TIP3   OH256890   1.639   2.013  14.338 -0.5038 -0.7380  0.0959
11800TIP3    H156891   1.706   2.065  14.295 -1.1135  1.5414  1.7046
11800TIP3    H256892   1.681   1.928  14.352  1.6493  0.2373  0.0393
11801TIP3   OH256893   4.994   3.351   6.091 -0.2068 -0.0728  0.3386
11801TIP3    H156894   4.967   3.301   6.167  2.8171 -0.7145  1.0990
11801TIP3    H256895   4.993   3.442   6.120 -0.6653 -0.1614  0.6005
11802TIP3   OH256896   3.647   2.289  15.627 -0.2803  0.5208 -0.3267
11802TIP3    H156897   3.672   2.227  15.695 -1.3481 -0.3315 -0.6625
11802TIP3    H256898   3.713   2.358  15.630  1.4033 -1.0081 -0.4319
11803TIP3   OH256899   1.300   5.452  14.735 -0.3608 -0.2748  0.1356
11803TIP3    H156900   1.364   5.457  14.664  0.3432  2.7109  0.8357
11803TIP3    H256901   1.352   5.458  14.815 -1.4027  1.8995  0.7227
11804TIP3   OH256902   4.244   2.977   5.618 -0.2606  0.0097  0.0323
11804TIP3    H156903   4.166   3.016   5.657  0.0261 -0.3345  0.9669
11804TIP3    H256904   4.210   2.917   5.551 -0.7921 -0.0545  0.3524
11805TIP3   OH256905   6.352   4.792  16.274  0.1028 -0.7447  0.1594
11805TIP3    H156906   6.294   4.859  16.309  1.2580  0.3254  0.1061
11805TIP3    H256907   6.308   4.761  16.195  0.7267  1.8843 -1.3529
11806TIP3   OH256908   5.477   4.747   2.955  0.0452  0.0257 -0.0910
11806TIP3    H156909   5.480   4.772   2.863 -1.6030  1.9045  0.2840
11806TIP3    H256910   5.452   4.654   2.954  0.2716 -0.0388 -1.5259
11807TIP3   OH256911   2.587   6.001   4.530  0.1759  0.2153 -0.6700
11807TIP3    H156912   2.574   5.941   4.604 -1.3654 -0.7915 -1.7101
11807TIP3    H256913   2.635   5.950   4.466  1.9530  1.2445 -0.2378
11808TIP3   OH256914   3.494   1.152   0.495  0.3326  0.2413 -0.2357
11808TIP3    H156915   3.419   1.207   0.519  0.1600  0.3760 -1.0344
11808TIP3    H256916   3.565   1.215   0.478  0.2334  0.2061 -0.8109
11809TIP3   OH256917   4.641   1.489  11.598 -0.1346  0.4053 -0.2165
11809TIP3    H156918   4.629   1.406  11.551  0.8922  0.9239 -1.4606
11809TIP3    H256919   4.697   1.467  11.673  1.6598  0.2447 -1.5381
11810TIP3   OH256920   2.578   0.281   3.731 -0.1294 -0.4102  0.2430
11810TIP3    H156921   2.663   0.290   3.774  0.4674 -0.8227 -0.8050
11810TIP3    H256922   2.587   0.202   3.678 -0.7786  0.1750 -0.7599
11811TIP3   OH256923   0.793   6.634  12.530  0.0551 -0.4059 -0.3479
11811TIP3    H156924   0.808   6.701  12.597 -2.3772 -1.1989  1.0944
11811TIP3    H256925   0.714   6.589  12.558  0.4437 -2.5429 -2.3923
11812TIP3   OH256926   6.274   3.145   0.459 -0.0355  0.1155  0.0811
11812TIP3    H156927   6.357   3.108   0.487  0.5229  0.7593 -0.6596
11812TIP3    H256928   6.214   3.127   0.531  1.1488  1.0469  1.3622
11813TIP3   OH256929   3.477   3.049  12.462 -0.6887  0.7418  0.3488
11813TIP3    H156930   3.399   3.104  12.462 -0.4601  1.0795  0.9944
11813TIP3    H256931   3.512   3.057  12.373 -0.6556  1.6576  0.4307
11814TIP3   OH256932   5.555   3.262  13.574 -0.3157 -0.5389  0.4490
11814TIP3    H156933   5.464   3.273  13.545 -0.3217 -0.3633  0.5290
11814TIP3    H256934   5.588   3.188  13.524  0.6883  1.7156 -2.5025
11815TIP3   OH256935   0.162   4.386   4.898 -0.2467 -0.5289 -0.5502
11815TIP3    H156936   0.198   4.299   4.915 -0.3122 -0.6938 -1.2309
11815TIP3    H256937   0.151   4.390   4.803 -5.2367 -1.8433 -0.3350
11816TIP3   OH256938   4.935   2.363  15.419  0.3920 -0.3660 -0.3487
11816TIP3    H156939   4.942   2.270  15.440  0.6321 -0.0793  0.9750
11816TIP3    H256940   4.844   2.375  15.391 -0.0352 -0.7725  0.8059
11817TIP3   OH256941   0.675   1.695  15.050 -0.0817  0.2303  0.3160
11817TIP3    H156942   0.758   1.714  15.005 -0.8551  2.0339 -0.4176
11817TIP3    H256943   0.702   1.644  15.127  1.5392 -0.5877 -0.7310
11818TIP3   OH256944   4.759   0.404  13.570 -0.5485  0.2008 -0.3295
11818TIP3    H156945   4.853   0.418  13.585 -0.5617  1.0113 -0.9052
11818TIP3    H256946   4.756   0.346  13.494 -0.5142  0.5162 -0.5720
11819TIP3   OH256947   5.347   3.973   5.552 -1.0624 -0.3265 -0.1857
11819TIP3    H156948   5.432   3.938   5.525 -0.3649  1.4507 -0.4197
11819TIP3    H256949   5.283   3.930   5.495 -0.3820 -1.9540  0.2290
11820TIP3   OH256950   2.153   1.120   1.384  0.5487  0.8533  0.1030
11820TIP3    H156951   2.069   1.165   1.381  0.4915  0.7502  0.1424
11820TIP3    H256952   2.148   1.055   1.314  0.4391  0.5757  0.3635
11821TIP3   OH256953   4.303   6.077   6.033 -0.3585 -0.0684 -0.4970
11821TIP3    H156954   4.274   6.127   5.957 -1.2576 -0.6013 -0.5162
11821TIP3    H256955   4.245   6.104   6.104 -0.7090 -0.8881 -0.4508
11822TIP3   OH256956   5.096   6.336  13.492 -0.2405  0.3941 -0.1348
11822TIP3    H156957   5.172   6.355  13.547 -0.9169 -1.2947  1.5007
11822TIP3    H256958   5.025   6.386  13.532 -0.1898  1.3756 -1.2111
11823TIP3   OH256959   0.677   1.835  11.836  0.5198  0.4180 -0.5286
11823TIP3    H156960   0.726   1.840  11.918 -0.8321  1.1522  0.2828
11823TIP3    H256961   0.612   1.766  11.851  0.6745  0.1113 -1.2295
11824TIP3   OH256962   1.732   5.688   3.210  0.2995 -0.1799  0.3681
11824TIP3    H156963   1.729   5.691   3.115 -3.8075 -0.4448  0.3310
11824TIP3    H256964   1.701   5.773   3.239 -0.6061 -0.8384  1.4109
11825TIP3   OH256965   0.280   5.368   5.133 -0.0469 -0.3818  0.3773
11825TIP3    H156966   0.277   5.276   5.158  0.4306 -0.8044 -1.0609
11825TIP3    H256967   0.366   5.398   5.163 -0.7420  0.0148  2.1216
11826TIP3   OH256968   5.427   5.541   4.253 -0.0910  0.2751  0.3102
11826TIP3    H156969   5.449   5.449   4.267  0.5045 -0.3164 -3.6001
11826TIP3    H256970   5.511   5.585   4.243 -0.4276  0.7346 -0.5478
11827TIP3   OH256971   4.816   3.339   1.965  0.4308  0.6940  0.7678
11827TIP3    H156972   4.742   3.394   1.938  0.5047  0.1811 -0.5741
11827TIP3    H256973   4.837   3.288   1.887  2.1762  0.7913  1.1395
11828TIP3   OH256974   0.412   4.134  12.065  0.2570  0.0163 -0.1825
11828TIP3    H156975   0.353   4.059  12.055  0.2660 -0.0032 -0.0847
11828TIP3    H256976   0.373   4.186  12.135 -0.4598  0.7768 -1.1159
11829TIP3   OH256977   3.371   1.045   0.250 -0.0240  0.1985 -0.3043
11829TIP3    H156978   3.321   1.117   0.286  1.4599  1.1264 -0.0318
11829TIP3    H256979   3.462   1.073   0.255  0.4532 -0.8051 -2.1517
11830TIP3   OH256980   0.878   2.997  16.022  0.3742  0.2338 -0.2886
11830TIP3    H156981   0.935   3.072  16.002  1.8002 -0.6510  0.3000
11830TIP3    H256982   0.877   2.993  16.118 -2.7493  1.7222 -0.1300
11831TIP3   OH256983   5.197   1.328  16.176  0.4230  0.2593  0.0583
11831TIP3    H156984   5.211   1.236  16.196 -0.1745  0.3532  0.9371
11831TIP3    H256985   5.260   1.374  16.232 -0.6060  0.4752  1.0610
11832TIP3   OH256986   3.153   2.754   2.663 -0.1150  0.4199  0.5538
11832TIP3    H156987   3.078   2.747   2.723  0.1105  0.2227  0.8170
11832TIP3    H256988   3.193   2.838   2.685 -0.7530  0.9236 -0.1723
11833TIP3   OH256989   4.787   1.872  12.142  0.2936  0.5919  0.1903
11833TIP3    H156990   4.782   1.949  12.085 -1.0345  1.3718  1.2657
11833TIP3    H256991   4.868   1.884  12.191  0.2623  1.1417  0.1185
11834TIP3   OH256992   3.877   1.266   0.117 -0.3242  0.3093 -0.1312
11834TIP3    H156993   3.883   1.361   0.111  0.3811  0.3416  0.8967
11834TIP3    H256994   3.910   1.245   0.204 -3.3349 -0.6294  0.9285
11835TIP3   OH256995   0.142   3.366   2.916 -0.2723  0.1318 -0.1257
11835TIP3    H156996   0.100   3.440   2.872 -1.2398  0.4005  1.1776
11835TIP3    H256997   0.083   3.293   2.903 -0.0981 -0.0207 -0.0625
11836TIP3   OH256998   4.565   6.638   1.737  0.5840 -0.1972  0.7432
11836TIP3    H156999   4.490   6.688   1.768 -0.2710 -0.1428 -1.2570
11836TIP3    H257000   4.638   6.671   1.789 -0.3223  1.6235  0.9696
11837TIP3   OH257001   0.261   5.707  13.190 -0.3449 -0.1173 -0.0711
11837TIP3    H157002   0.183   5.717  13.245 -0.9654 -1.8249 -0.5698
11837TIP3    H257003   0.323   5.660  13.245 -0.6285 -1.0223 -0.5166
11838TIP3   OH257004   1.425   5.442  11.314  0.2286  0.1697  0.2317
11838TIP3    H157005   1.364   5.369  11.304  0.8764 -0.2811 -0.5068
11838TIP3    H257006   1.373   5.511  11.356 -0.9461 -0.0205 -0.8535
11839TIP3   OH257007   3.639   6.184   2.131 -0.1522 -0.2388 -0.2578
11839TIP3    H157008   3.582   6.182   2.053  0.0368 -1.1049 -0.3905
11839TIP3    H257009   3.621   6.101   2.175  0.8579 -0.4371 -0.1946
11840TIP3   OH257010   6.282   1.984   2.517  0.1456 -0.0184  0.5057
11840TIP3    H157011   6.212   1.930   2.481  1.1458 -0.3946 -0.9734
11840TIP3    H257012   6.239   2.064   2.547 -1.5087 -1.8557  3.5296
11841TIP3   OH257013   4.849   4.590  16.310  0.3452  0.2783 -0.8295
11841TIP3    H157014   4.883   4.595  16.399  1.0141  0.1609 -1.0718
11841TIP3    H257015   4.812   4.502  16.303 -1.3122  0.8843 -0.1161
11842TIP3   OH257016   1.973   5.659   5.728 -0.3494 -0.2840 -0.6022
11842TIP3    H157017   1.979   5.745   5.687 -2.1292  0.0006 -0.3492
11842TIP3    H257018   1.911   5.610   5.674  0.4597 -1.3572 -0.6089
11843TIP3   OH257019   0.246   4.851   4.283 -0.1710  0.3673 -0.0431
11843TIP3    H157020   0.338   4.877   4.280 -0.2020  0.3929 -0.9309
11843TIP3    H257021   0.223   4.833   4.192 -1.1553  0.7476  0.1193
11844TIP3   OH257022   6.602   3.952  16.395  0.8006 -0.1140  0.0413
11844TIP3    H157023   6.623   3.876  16.340  0.2685 -0.3588  0.1716
11844TIP3    H257024   6.544   4.005  16.341 -0.2843 -0.6921  0.5936
11845TIP3   OH257025   6.020   2.593   3.514  0.7386  0.1244 -0.1594
11845TIP3    H157026   6.074   2.671   3.502  0.4610  0.4742  0.7629
11845TIP3    H257027   6.060   2.547   3.589  0.4191 -0.1954 -0.1814
11846TIP3   OH257028   5.009   1.001  15.484 -0.0312 -0.3908  0.0594
11846TIP3    H157029   4.950   0.962  15.549 -0.2880  1.0234  0.7018
11846TIP3    H257030   4.976   1.090  15.471 -0.0360 -0.6630 -2.0961
11847TIP3   OH257031   6.264   3.883   3.696  0.2532  0.3502 -0.0855
11847TIP3    H157032   6.176   3.895   3.660  0.2667 -0.0613 -0.2509
11847TIP3    H257033   6.297   3.804   3.654  0.2123 -0.2292  0.9361
11848TIP3   OH257034   2.636   1.034  14.520  0.2875 -0.7247  0.6893
11848TIP3    H157035   2.552   1.076  14.538  0.6896  0.6262 -0.4731
11848TIP3    H257036   2.700   1.084  14.570  1.1199  1.7613 -2.5502
11849TIP3   OH257037   1.649   1.183   2.171 -0.0808  0.2819  0.5834
11849TIP3    H157038   1.735   1.215   2.196  0.6166 -1.1803  0.1560
11849TIP3    H257039   1.598   1.184   2.252  0.4172  0.9206  0.8915
11850TIP3   OH257040   3.997   4.017  12.524 -0.5182 -0.3292 -0.0198
11850TIP3    H157041   3.994   4.037  12.617 -0.5343  1.0621 -0.2924
11850TIP3    H257042   4.090   4.002  12.505 -0.3792  0.4700  0.0160
11851TIP3   OH257043   0.391   6.661  16.974 -0.1623 -0.7824  0.1202
11851TIP3    H157044   0.419   6.718  16.903  1.7134 -0.1912  1.2618
11851TIP3    H257045   0.299   6.642  16.955 -0.2576  0.9395 -1.3907
11852TIP3   OH257046   1.917   3.905  14.116 -0.1016  0.5910  0.6163
11852TIP3    H157047   1.977   3.886  14.044  0.7017  0.3786  1.3269
11852TIP3    H257048   1.904   3.821  14.160  0.1172  0.8761  1.2402
11853TIP3   OH257049   5.042   5.620  15.198  0.3479  0.4094  0.0388
11853TIP3    H157050   4.968   5.679  15.182  0.1309  0.2814  0.5461
11853TIP3    H257051   5.033   5.595  15.290  2.5445  2.5164  0.9476
11854TIP3   OH257052   3.644   2.564  14.985  0.5110  0.3436  0.7009
11854TIP3    H157053   3.603   2.568  14.899 -1.0998  1.7346  1.4457
11854TIP3    H257054   3.640   2.472  15.010  3.1334 -0.5040 -1.5931
11855TIP3   OH257055   1.718   6.220   2.507  0.4835 -0.3408  0.1521
11855TIP3    H157056   1.689   6.171   2.584 -0.9377 -0.8623 -0.6563
11855TIP3    H257057   1.776   6.288   2.541 -0.6053 -0.1528  1.7618
11856TIP3   OH257058   0.594   5.833  14.949 -0.0942  0.0148  0.6615
11856TIP3    H157059   0.598   5.800  15.039 -0.6355 -1.0683  0.3098
11856TIP3    H257060   0.589   5.754  14.895  0.1314  0.6545 -0.3184
11857TIP3   OH257061   4.094   4.101   4.730  0.5854 -0.0164  0.1185
11857TIP3    H157062   4.125   4.019   4.691 -1.1099 -1.1683  1.1023
11857TIP3    H257063   4.093   4.162   4.657  1.0904 -1.0830 -0.8242
11858TIP3   OH257064   3.108   4.945  10.609 -0.1866  0.0714  0.1892
11858TIP3    H157065   3.018   4.974  10.593 -0.8648 -0.5752  2.4123
11858TIP3    H257066   3.158   5.027  10.619 -0.8412  0.4577  0.3706
11859TIP3   OH257067   5.955   6.443   5.760 -0.1750  0.2758  0.2045
11859TIP3    H157068   5.984   6.431   5.850 -0.2539  0.9141  0.3201
11859TIP3    H257069   5.901   6.522   5.763  1.4447  1.4720 -0.7673
11860TIP3   OH257070   0.286   3.782  15.550  0.4858  0.4275  0.3265
11860TIP3    H157071   0.195   3.799  15.526  0.7528  1.6862  0.1416
11860TIP3    H257072   0.282   3.758  15.643 -0.1037 -0.2668  0.1278
11861TIP3   OH257073   5.748   5.016  12.794 -0.3093 -0.2977  0.4256
11861TIP3    H157074   5.672   5.074  12.785  0.0823  0.2662  0.6792
11861TIP3    H257075   5.712   4.933  12.824 -0.9673 -0.4079 -0.6335
11862TIP3   OH257076   0.146   5.027   0.627  0.2371 -0.2481  0.3765
11862TIP3    H157077   0.090   4.968   0.577  1.1056  0.1060 -1.0785
11862TIP3    H257078   0.127   5.006   0.719  0.9182 -3.2311 -0.0461
11863TIP3   OH257079   0.417   1.932   5.510 -0.6866  0.2442 -0.1084
11863TIP3    H157080   0.358   1.872   5.557  1.0480 -0.0970  1.7473
11863TIP3    H257081   0.391   1.922   5.418 -0.9280 -2.8823  0.1850
11864TIP3   OH257082   0.246   3.587  13.796 -0.3976 -0.0922  0.0762
11864TIP3    H157083   0.317   3.544  13.844 -1.2169 -1.4645  0.1086
11864TIP3    H257084   0.170   3.531  13.809 -0.7244 -0.4027 -2.5698
11865TIP3   OH257085   4.010   5.540   1.999 -0.0798  0.1051 -0.0682
11865TIP3    H157086   3.947   5.611   2.010 -0.7993 -0.3670 -0.9821
11865TIP3    H257087   4.005   5.490   2.081  0.4198  1.0865  0.5717
11866TIP3   OH257088   6.731   6.566   5.331 -0.0134 -0.6201  0.3712
11866TIP3    H157089   6.753   6.651   5.368 -2.0570 -1.2368  3.4082
11866TIP3    H257090   6.638   6.574   5.306 -0.6918 -2.2920  2.1099
11867TIP3   OH257091   4.667   2.186   3.903  0.1149  0.6155  0.1617
11867TIP3    H157092   4.702   2.269   3.871  2.3625 -0.6178 -0.8010
11867TIP3    H257093   4.673   2.193   3.999  1.0705  1.2557  0.0668
11868TIP3   OH257094   3.113   0.052  17.117 -0.0339  0.0186  0.4688
11868TIP3    H157095   3.127   0.136  17.074 -1.1405  1.2746  2.4252
11868TIP3    H257096   3.027   0.059  17.158 -0.0727 -2.0125  0.8578
11869TIP3   OH257097   6.166   5.225  12.226  0.1220 -0.5285  0.4966
11869TIP3    H157098   6.106   5.154  12.204  0.0205 -0.6607  1.1982
11869TIP3    H257099   6.109   5.299  12.247  0.2171 -0.4434  0.4569
11870TIP3   OH257100   1.717   0.545  12.063 -0.1261 -0.2882  0.6230
11870TIP3    H157101   1.647   0.602  12.094  0.2547  1.6490 -1.7200
11870TIP3    H257102   1.794   0.602  12.059 -0.1779 -0.1997 -3.6761
11871TIP3   OH257103   4.062   4.799  16.712  0.6470 -0.7686  0.0229
11871TIP3    H157104   4.115   4.823  16.789  0.7480  0.0519 -0.2907
11871TIP3    H257105   4.124   4.757  16.653  0.4599 -1.8963  0.5996
11872TIP3   OH257106   1.668   6.188   1.166 -0.1016  1.4193  0.2287
11872TIP3    H157107   1.674   6.148   1.253  0.7134  3.0775  0.9869
11872TIP3    H257108   1.752   6.169   1.125  0.1063  1.9076  0.4126
11873TIP3   OH257109   3.729   5.820  15.475  0.3404  0.2253 -0.3289
11873TIP3    H157110   3.634   5.829  15.481  0.1774 -0.4503 -1.5421
11873TIP3    H257111   3.758   5.903  15.436  0.4210  0.9589  1.2087
11874TIP3   OH257112   3.707   4.224   3.986 -0.2802  0.2551 -0.5256
11874TIP3    H157113   3.639   4.285   3.959 -1.1085 -0.4532 -0.1036
11874TIP3    H257114   3.660   4.143   4.005  0.9919 -1.1205 -2.8636
11875TIP3   OH257115   0.512   4.885  13.346  0.3441 -0.1734 -0.5453
11875TIP3    H157116   0.540   4.975  13.332  0.5649 -0.1395  0.0942
11875TIP3    H257117   0.585   4.831  13.314 -0.3706 -0.1833 -2.3060
11876TIP3   OH257118   1.082   4.678   1.231  0.3864  0.2463 -0.6427
11876TIP3    H157119   1.068   4.773   1.236  0.7535  0.4057 -2.1860
11876TIP3    H257120   1.139   4.666   1.155  1.4650 -1.1150  0.3317
11877TIP3   OH257121   6.335   4.553  15.295  0.6963  0.0322 -0.2103
11877TIP3    H157122   6.306   4.643  15.312  0.1359 -0.1735 -0.0721
11877TIP3    H257123   6.339   4.547  15.200  2.9858  0.9142 -0.2297
11878TIP3   OH257124   2.539   2.674   5.136 -0.3948  0.1141  0.3230
11878TIP3    H157125   2.584   2.752   5.168  0.2998 -0.2817  0.3309
11878TIP3    H257126   2.446   2.695   5.145 -0.2737 -0.0300  2.8418
11879TIP3   OH257127   4.550   2.580  14.792  1.0182  0.0566 -0.1333
11879TIP3    H157128   4.484   2.621  14.848  0.6941 -1.9360  1.0357
11879TIP3    H257129   4.503   2.509  14.748  1.3181  1.3875 -2.8458
11880TIP3   OH257130   0.933   5.761  15.249  0.0642 -0.0274 -0.2976
11880TIP3    H157131   0.880   5.793  15.322 -0.6725 -1.6384 -0.0759
11880TIP3    H257132   1.015   5.733  15.289  1.0367  2.2007 -0.6009
11881TIP3   OH257133   4.502   5.091   4.567 -0.0462  0.0209 -0.3472
11881TIP3    H157134   4.418   5.052   4.544  0.0764 -0.4073 -0.0853
11881TIP3    H257135   4.562   5.061   4.498 -0.1959  0.6738 -0.7721
11882TIP3   OH257136   2.162   2.895   2.319 -0.2865  0.0900 -0.4310
11882TIP3    H157137   2.240   2.903   2.374  0.4127  1.7405 -1.5563
11882TIP3    H257138   2.134   2.805   2.329  0.7248 -0.0623  1.3875
11883TIP3   OH257139   5.805   3.419   0.738 -0.3257 -0.0341 -0.6643
11883TIP3    H157140   5.759   3.469   0.806 -0.2063 -0.6222 -0.1427
11883TIP3    H257141   5.755   3.338   0.731  0.4824 -0.5750 -0.2658
11884TIP3   OH257142   2.743   1.171   0.607  0.4347  0.4849  0.3011
11884TIP3    H157143   2.665   1.172   0.551 -0.1174 -0.3973  1.0187
11884TIP3    H257144   2.813   1.143   0.549  0.0835  0.6270 -0.2021
11885TIP3   OH257145   2.608   3.879   1.267  0.1221 -0.0562  0.3052
11885TIP3    H157146   2.611   3.881   1.363  1.9547  0.0544  0.2886
11885TIP3    H257147   2.649   3.795   1.244  0.6003  0.3593 -0.3879
11886TIP3   OH257148   1.141   3.104   0.539 -0.3426  0.2383  0.2905
11886TIP3    H157149   1.197   3.026   0.536  0.5253  0.7482  1.9172
11886TIP3    H257150   1.082   3.094   0.465 -1.1359 -2.6269  1.1697
11887TIP3   OH257151   6.379   0.320  16.542 -0.6500  0.1276 -0.3443
11887TIP3    H157152   6.375   0.226  16.557  1.0300  0.1980  0.8198
11887TIP3    H257153   6.408   0.329  16.451 -0.0388 -0.4859 -0.2124
11888TIP3   OH257154   2.845   2.998  16.653  0.2008  0.4039  0.4080
11888TIP3    H157155   2.818   3.074  16.705  1.4752 -0.8634  3.1575
11888TIP3    H257156   2.788   2.927  16.684  1.1592 -0.4577  0.2420
11889TIP3   OH257157   6.369   5.346  12.990 -0.1963 -0.1684 -0.0510
11889TIP3    H157158   6.430   5.275  13.011 -0.8721 -0.7055  0.1150
11889TIP3    H257159   6.357   5.393  13.073 -0.3309 -0.3188  0.0161
11890TIP3   OH257160   5.621   2.541   5.711  0.3246 -0.3492 -0.4228
11890TIP3    H157161   5.579   2.572   5.630 -0.1415  0.4730  0.1181
11890TIP3    H257162   5.648   2.452   5.691 -3.2770 -1.6392 -0.2862
11891TIP3   OH257163   0.429   3.284   4.010  0.2161  0.2494 -0.0864
11891TIP3    H157164   0.511   3.297   3.964  0.7654 -1.8810  0.1634
11891TIP3    H257165   0.435   3.340   4.088  0.9511  0.9110 -0.6067
11892TIP3   OH257166   4.668   1.496   3.427  0.0547 -0.4682 -0.2610
11892TIP3    H157167   4.670   1.585   3.392  0.1425 -0.6143 -0.6275
11892TIP3    H257168   4.669   1.440   3.350 -0.4156 -0.7837 -0.0378
11893TIP3   OH257169   0.795   0.037  16.619 -0.2895  0.1992  0.4644
11893TIP3    H157170   0.782   0.019  16.712 -0.7808 -0.0773  0.3449
11893TIP3    H257171   0.870   0.097  16.616  1.6551 -2.0808  0.8469
11894TIP3   OH257172   2.509   5.618   5.238  0.0585  0.7940  0.4007
11894TIP3    H157173   2.483   5.526   5.234 -0.6685  0.9466  1.3014
11894TIP3    H257174   2.551   5.628   5.324  0.5063  1.2092  0.1404
11895TIP3   OH257175   1.445   0.298   6.652 -0.0450 -0.2009 -0.3922
11895TIP3    H157176   1.412   0.378   6.694  0.7542 -0.1490  0.1565
11895TIP3    H257177   1.519   0.272   6.706  0.2976 -0.7763 -1.1307
11896TIP3   OH257178   1.069   3.408  12.035  0.5702 -0.2689  0.7929
11896TIP3    H157179   1.018   3.343  11.988  0.7032  0.1572  0.0342
11896TIP3    H257180   1.011   3.439  12.104  0.2570 -0.6836  0.7195
11897TIP3   OH257181   3.375   3.396  12.470 -0.5505  0.0283  0.2896
11897TIP3    H157182   3.308   3.360  12.412 -0.3367  1.2253 -0.7696
11897TIP3    H257183   3.398   3.480  12.430  0.8028  0.1422  1.2224
11898TIP3   OH257184   3.094   4.748   2.519  0.0029 -0.1203 -0.1909
11898TIP3    H157185   3.156   4.816   2.547 -1.1863  0.9142  0.0025
11898TIP3    H257186   3.068   4.774   2.431  0.1166 -0.7621 -0.4206
11899TIP3   OH257187   4.930   5.786  14.482 -0.3031  0.0545  0.3014
11899TIP3    H157188   4.891   5.874  14.483 -0.4102  0.1465 -3.0962
11899TIP3    H257189   4.866   5.732  14.528 -3.4513  0.6914 -2.8679
11900TIP3   OH257190   3.818   4.623   2.448  0.5236  0.3366 -0.1717
11900TIP3    H157191   3.872   4.566   2.394  0.9766 -0.6411  1.2679
11900TIP3    H257192   3.795   4.696   2.389  1.6444 -0.2707 -1.4330
11901TIP3   OH257193   1.207   5.611   2.828 -0.2817  0.0101  0.0200
11901TIP3    H157194   1.161   5.634   2.747 -0.7778 -1.0444 -0.0183
11901TIP3    H257195   1.142   5.562   2.879  1.4546 -3.7717 -1.0756
11902TIP3   OH257196   1.618   1.013  14.002 -0.6472 -0.4506 -0.2347
11902TIP3    H157197   1.565   0.960  13.942 -1.0558 -0.5106  0.1758
11902TIP3    H257198   1.621   1.099  13.961 -1.9790 -0.1488  0.2686
11903TIP3   OH257199   4.578   1.164  12.489 -0.5100  0.2713  0.4365
11903TIP3    H157200   4.549   1.152  12.398  1.3324  0.8978 -0.2810
11903TIP3    H257201   4.635   1.089  12.506 -1.9905 -0.6233  1.6069
11904TIP3   OH257202   1.818   4.135   3.927  0.4416 -0.3151 -0.0328
11904TIP3    H157203   1.788   4.203   3.866 -0.8139  0.4182  1.3172
11904TIP3    H257204   1.779   4.054   3.893 -0.9758  0.2223  0.2495
11905TIP3   OH257205   5.344   3.118   4.858 -0.1852 -0.6684  0.1939
11905TIP3    H157206   5.292   3.198   4.853  0.8744  0.0790  0.8234
11905TIP3    H257207   5.413   3.130   4.793  0.2783 -0.8429  0.6471
11906TIP3   OH257208   4.378   5.712   4.415  0.1258  0.2771  0.0754
11906TIP3    H157209   4.372   5.695   4.321  1.1419 -0.3248  0.1061
11906TIP3    H257210   4.323   5.646   4.456 -0.8213  0.9328 -0.1191
11907TIP3   OH257211   0.644   4.572  15.015  0.1599 -0.1654  0.0651
11907TIP3    H157212   0.733   4.595  15.043 -0.9477  0.6734  3.2620
11907TIP3    H257213   0.624   4.492  15.063 -1.0682  0.0441 -0.0822
11908TIP3   OH257214   0.267   0.081  13.437  0.7544  0.2360  0.7461
11908TIP3    H157215   0.214   0.052  13.511  2.3567 -2.2868  1.0169
11908TIP3    H257216   0.341   0.127  13.477  0.1018  1.5264  0.5087
11909TIP3   OH257217   4.782   6.730  15.678 -0.5736 -0.2395 -0.0463
11909TIP3    H157218   4.820   6.816  15.664 -0.4217 -0.2517  0.2994
11909TIP3    H257219   4.710   6.725  15.614 -0.0291 -0.2035 -0.6736
11910TIP3   OH257220   3.511   4.632   4.724  0.6863 -0.7793 -0.5351
11910TIP3    H157221   3.559   4.594   4.651  1.6969 -0.7247  0.0773
11910TIP3    H257222   3.428   4.662   4.686  0.8894 -1.4066 -1.4987
11911TIP3   OH257223   3.948   6.318  12.944 -0.4553  0.7309 -0.0941
11911TIP3    H157224   3.977   6.245  12.999 -1.7522  0.2601  0.0055
11911TIP3    H257225   3.968   6.396  12.996 -1.0054  0.3287  0.7436
11912TIP3   OH257226   1.283   5.915  11.649 -0.1370 -0.0955 -0.1906
11912TIP3    H157227   1.239   5.979  11.593 -0.3700 -0.5288 -0.5030
11912TIP3    H257228   1.213   5.865  11.689  0.0123  0.4631  0.8077
11913TIP3   OH257229   2.644   2.857  13.920  0.5643 -0.8994  0.2147
11913TIP3    H157230   2.689   2.795  13.977  0.4066 -1.6805 -0.4964
11913TIP3    H257231   2.675   2.836  13.832 -0.0161 -0.4202 -0.1130
11914TIP3   OH257232   2.376   5.295   6.330  0.2480  0.8759 -0.0510
11914TIP3    H157233   2.358   5.334   6.416 -1.9735  0.8088 -0.4114
11914TIP3    H257234   2.447   5.234   6.346 -0.5279  0.3877  1.9074
11915TIP3   OH257235   2.930   5.086  17.154 -0.1497  0.6428  0.1324
11915TIP3    H157236   2.993   5.014  17.150 -0.9117 -0.0459  0.3293
11915TIP3    H257237   2.905   5.091  17.246  0.0181  1.2731  0.1468
11916TIP3   OH257238   2.473   1.576  13.602 -0.1996 -0.5144  0.5288
11916TIP3    H157239   2.462   1.657  13.651 -1.1260 -0.5256  0.3761
11916TIP3    H257240   2.413   1.514  13.644  0.6894 -1.2009  0.8034
11917TIP3   OH257241   5.653   1.673   1.475 -0.1024  0.1349 -0.6510
11917TIP3    H157242   5.645   1.586   1.436 -0.5996  0.0702 -0.4073
11917TIP3    H257243   5.741   1.702   1.451  0.0972 -0.4691 -0.6637
11918TIP3   OH257244   5.332   4.504   2.091  0.2123  0.2691  0.2475
11918TIP3    H157245   5.305   4.595   2.079 -0.2779  0.0085 -0.7238
11918TIP3    H257246   5.253   4.453   2.075  0.9385 -0.4273 -1.3898
11919TIP3   OH257247   6.575   5.053   4.445  0.0988  0.1137 -0.0912
11919TIP3    H157248   6.496   5.100   4.470  0.4517  1.1765 -0.8944
11919TIP3    H257249   6.646   5.106   4.481  0.4554 -1.4434  1.6515
11920TIP3   OH257250   5.666   6.176   4.930  0.0923 -0.2770 -0.0080
11920TIP3    H157251   5.715   6.113   4.878 -0.6740 -0.5556 -0.4061
11920TIP3    H257252   5.592   6.126   4.964  0.8989 -0.2549  1.8655
11921TIP3   OH257253   0.368   0.981   1.009 -0.1350  0.1691 -0.1511
11921TIP3    H157254   0.304   0.917   0.976  1.0507 -0.6637 -0.9162
11921TIP3    H257255   0.365   0.970   1.104 -1.5386  0.5731 -0.1236
11922TIP3   OH257256   3.415   0.553  14.131  0.0921 -0.0471 -0.0533
11922TIP3    H157257   3.477   0.606  14.179  1.4590 -1.0563 -0.6488
11922TIP3    H257258   3.356   0.517  14.198 -0.3281  1.4994  0.4338
11923TIP3   OH257259   0.073   1.443   2.317  0.4334 -0.5447  0.0978
11923TIP3    H157260   0.112   1.525   2.348 -0.9749  0.1241  0.1977
11923TIP3    H257261  -0.022   1.459   2.320  0.1455 -1.9976 -0.3920
11924TIP3   OH257262   6.578   5.824  11.388  0.0704  0.1461  0.5547
11924TIP3    H157263   6.635   5.894  11.357 -0.6920  0.9654  0.9356
11924TIP3    H257264   6.621   5.743  11.361  1.5469  0.7191  1.0804
11925TIP3   OH257265   2.403   4.992  13.232 -0.3089 -0.1083 -0.2534
11925TIP3    H157266   2.462   5.050  13.183 -0.9756 -0.5628 -1.6562
11925TIP3    H257267   2.315   5.020  13.206 -0.8682  1.6222  3.0135
11926TIP3   OH257268   4.825   0.345   5.700 -0.0680  0.2810 -0.2905
11926TIP3    H157269   4.858   0.344   5.610  0.6850 -0.0446 -0.0209
11926TIP3    H257270   4.840   0.256   5.732 -2.4777 -0.3117 -0.5866
11927TIP3   OH257271   6.755   2.703  12.779  0.2756 -0.3873  0.1806
11927TIP3    H157272   6.725   2.724  12.691 -1.1636 -1.0591  0.4798
11927TIP3    H257273   6.747   2.786  12.827 -2.4768 -0.7887  0.5864
11928TIP3   OH257274   6.739   6.266   1.374 -0.0085 -0.0781 -0.1641
11928TIP3    H157275   6.679   6.307   1.311 -0.2591  0.3270  0.3293
11928TIP3    H257276   6.682   6.233   1.443  0.2565 -0.6382 -0.2134
11929TIP3   OH257277   0.348   6.652   2.642  0.0369 -0.4892  0.0667
11929TIP3    H157278   0.268   6.692   2.676  0.8073  0.0851  1.2729
11929TIP3    H257279   0.354   6.685   2.552 -0.8115 -0.1437  0.1222
11930TIP3   OH257280   2.603   1.164   0.119 -0.1700 -0.1394 -0.4259
11930TIP3    H157281   2.510   1.171   0.097 -0.9012 -0.5235  2.1591
11930TIP3    H257282   2.616   1.071   0.139  0.5650  0.0345 -0.0505
11931TIP3   OH257283   0.747   5.488  12.917  0.2987 -0.1422  0.0260
11931TIP3    H157284   0.814   5.426  12.946 -1.1012 -2.2477 -0.9962
11931TIP3    H257285   0.739   5.550  12.990  3.1212  0.0824  0.2904
11932TIP3   OH257286   4.031   4.202  13.619  0.0707  0.3220 -0.2241
11932TIP3    H157287   3.936   4.214  13.626 -0.0126  0.1348 -0.8956
11932TIP3    H257288   4.067   4.290  13.620 -0.0881  0.3812  0.3221
11933TIP3   OH257289   5.771   3.245  15.520  0.0923  0.1678 -0.3576
11933TIP3    H157290   5.705   3.211  15.579  1.9723  0.8846  2.3545
11933TIP3    H257291   5.723   3.302  15.460 -1.7203  1.0924  1.8480
11934TIP3   OH257292   0.206   1.094  15.660  0.5140  0.1005 -0.1097
11934TIP3    H157293   0.229   1.166  15.601  3.5839  1.7178  2.7813
11934TIP3    H257294   0.280   1.033  15.653  0.5240 -0.0877  1.4236
11935TIP3   OH257295   6.085   1.747   5.320 -0.0932 -0.2840  0.0282
11935TIP3    H157296   6.065   1.808   5.391  2.3761 -0.8389  1.2809
11935TIP3    H257297   6.089   1.661   5.363  0.8012 -0.7201 -0.9043
11936TIP3   OH257298   5.646   6.073   1.320  0.7160  0.0778 -0.4516
11936TIP3    H157299   5.632   6.109   1.232  0.4309  0.0941 -0.4014
11936TIP3    H257300   5.696   6.140   1.366 -0.5018  0.7851 -0.1067
11937TIP3   OH257301   2.233   4.920   6.161 -0.0782  0.3241  0.2968
11937TIP3    H157302   2.204   4.925   6.252  0.8292  0.6279  0.5799
11937TIP3    H257303   2.152   4.910   6.111 -0.5788 -0.0079  1.1424
11938TIP3   OH257304   6.297   2.886   5.636  0.1121 -0.3272 -0.1727
11938TIP3    H157305   6.225   2.881   5.573  0.4432  2.4408 -0.9179
11938TIP3    H257306   6.343   2.803   5.627 -2.2742 -1.7158 -0.5045
11939TIP3   OH257307   2.501   1.308   5.455 -0.3252  0.4087 -0.4233
11939TIP3    H157308   2.584   1.302   5.503 -0.8298 -3.5069  0.3017
11939TIP3    H257309   2.436   1.327   5.522 -0.4058  0.2648 -0.4616
11940TIP3   OH257310   6.659   6.722   2.124  0.1553 -0.3784  0.0418
11940TIP3    H157311   6.747   6.691   2.100  0.1668 -2.1422  2.0681
11940TIP3    H257312   6.675   6.785   2.195 -0.1986 -0.3048  0.0557
11941TIP3   OH257313   0.590   3.129   2.849 -0.0131 -0.2023  0.2852
11941TIP3    H157314   0.523   3.189   2.816  0.7825  0.0856 -0.8542
11941TIP3    H257315   0.657   3.186   2.885  1.1019 -0.3129 -1.4768
11942TIP3   OH257316   0.609   3.018   3.900  0.1237 -0.0257 -0.1167
11942TIP3    H157317   0.623   3.083   3.832 -1.7148  1.6010  0.9602
11942TIP3    H257318   0.549   2.954   3.860  0.5498 -0.1246 -0.6100
11943TIP3   OH257319   4.499   3.659  12.744  1.0129 -0.2784  0.9527
11943TIP3    H157320   4.418   3.670  12.694  0.2916 -2.7008  1.4562
11943TIP3    H257321   4.507   3.740  12.793  0.0805  0.9040 -0.7278
11944TIP3   OH257322   5.663   5.569   1.865  0.0147 -0.5609 -0.3405
11944TIP3    H157323   5.686   5.523   1.946  0.9337 -1.2115 -0.9607
11944TIP3    H257324   5.656   5.661   1.891  0.6805 -0.7082  0.3942
11945TIP3   OH257325   5.435   1.495   4.448  0.4356  0.4052 -0.3787
11945TIP3    H157326   5.506   1.538   4.400  0.3216  1.1410  0.0977
11945TIP3    H257327   5.441   1.531   4.537 -0.2320  0.1107 -0.2106
11946TIP3   OH257328   5.652   1.619  15.114 -0.7907  0.2181 -0.1826
11946TIP3    H157329   5.720   1.657  15.060 -0.9653  0.0067 -0.5559
11946TIP3    H257330   5.699   1.561  15.174 -0.3362  2.2130  1.5131
11947TIP3   OH257331   3.686   4.118   4.285 -0.1524  0.0455 -0.5897
11947TIP3    H157332   3.660   4.209   4.272 -1.2075 -0.3901 -1.8052
11947TIP3    H257333   3.648   4.094   4.370 -0.0253  0.6856 -0.3503
11948TIP3   OH257334   2.732   5.858   2.372 -0.0944 -0.1685 -0.7412
11948TIP3    H157335   2.647   5.901   2.360 -0.9586 -1.1903  1.2578
11948TIP3    H257336   2.778   5.913   2.436 -1.2079 -2.0455  1.8304
11949TIP3   OH257337   2.792   5.342   3.685  0.0796 -0.0641 -0.1070
11949TIP3    H157338   2.742   5.420   3.713  1.1502  0.4252  0.5065
11949TIP3    H257339   2.883   5.372   3.682  0.5003 -1.2873  0.0949
11950TIP3   OH257340   5.253   4.167   5.743  0.3809  0.3721  0.2522
11950TIP3    H157341   5.269   4.135   5.832  0.1899  0.6374  0.3809
11950TIP3    H257342   5.277   4.093   5.687  1.5017  0.5503  0.4733
11951TIP3   OH257343   4.397   0.294  16.974 -0.7256  0.1190 -0.0903
11951TIP3    H157344   4.431   0.377  16.941 -2.3836  0.1497 -1.9428
11951TIP3    H257345   4.303   0.308  16.981 -0.9905 -1.4661 -0.0670
11952TIP3   OH257346   5.067   4.361   2.789  0.2324 -0.0972  0.9484
11952TIP3    H157347   5.026   4.442   2.758  1.7905  0.8885  1.3835
11952TIP3    H257348   5.034   4.294   2.729 -1.5866  0.7179  0.9626
11953TIP3   OH257349   3.451   2.118  15.506  0.0861 -0.4960  0.0189
11953TIP3    H157350   3.528   2.154  15.549  0.3324  1.2876 -1.7386
11953TIP3    H257351   3.485   2.048  15.450  0.1007 -1.1239  0.7902
11954TIP3   OH257352   2.157   5.671  15.415 -0.5314  0.4102  0.2252
11954TIP3    H157353   2.086   5.638  15.360  0.6858  0.5342 -1.5012
11954TIP3    H257354   2.167   5.762  15.389  0.8902  0.1322 -0.2882
11955TIP3   OH257355   6.837   1.227   0.008  0.0465 -0.3747  0.0244
11955TIP3    H157356   6.772   1.244  -0.060 -0.3047  0.9999  0.6585
11955TIP3    H257357   6.870   1.314   0.031  2.7295 -1.0811 -0.8309
11956TIP3   OH257358   1.963   5.147   4.848  0.1369 -0.6271  0.5775
11956TIP3    H157359   1.975   5.083   4.918  0.6209 -0.8721  0.2779
11956TIP3    H257360   2.051   5.177   4.828  0.1705 -1.6522 -0.9359
11957TIP3   OH257361   1.342   6.082   0.806  0.1738 -0.0884 -0.0859
11957TIP3    H157362   1.362   5.990   0.788  0.5090 -0.1562  0.6236
11957TIP3    H257363   1.385   6.130   0.736 -0.9567 -0.5398 -1.1277
11958TIP3   OH257364   0.393   2.352   4.892  0.5746  0.0295 -0.1654
11958TIP3    H157365   0.451   2.408   4.943  2.6071 -2.8551  1.0075
11958TIP3    H257366   0.340   2.306   4.958  0.7901 -1.2364 -0.8335
11959TIP3   OH257367   1.598   1.791  14.827 -0.0469  0.3482  0.4134
11959TIP3    H157368   1.642   1.709  14.849  0.1947  0.5479  0.6804
11959TIP3    H257369   1.665   1.844  14.783 -0.2742  0.3046  0.0053
11960TIP3   OH257370   6.661   2.464   5.479  0.2663 -0.2359  0.4539
11960TIP3    H157371   6.645   2.517   5.556  0.1120  1.2748 -0.5706
11960TIP3    H257372   6.609   2.385   5.493  0.3822 -0.0694  1.9575
11961TIP3   OH257373   6.554   4.682   5.861  0.2131  0.0862  0.6537
11961TIP3    H157374   6.514   4.595   5.855  0.0311  0.0950  1.5689
11961TIP3    H257375   6.559   4.712   5.770 -2.2301  0.2475  0.5092
11962TIP3   OH257376   5.673   4.416  14.429  0.1299  0.2117 -0.1963
11962TIP3    H157377   5.664   4.486  14.494  0.6706 -1.1199  1.4013
11962TIP3    H257378   5.766   4.416  14.406 -0.2544  1.4103 -1.8820
11963TIP3   OH257379   4.370   2.507  15.685 -0.2161 -0.2037  0.3101
11963TIP3    H157380   4.461   2.535  15.683 -0.5523  2.2458  4.8925
11963TIP3    H257381   4.373   2.415  15.710  0.8565 -1.0779 -2.6279
11964TIP3   OH257382   5.023   4.075   1.528  0.4117 -0.1492  0.1002
11964TIP3    H157383   5.065   4.070   1.614  0.2236 -0.8658  0.1569
11964TIP3    H257384   4.931   4.057   1.545  0.0666  1.3681 -0.0300
11965TIP3   OH257385   2.381   2.807  14.581 -0.1424 -0.4179  0.7327
11965TIP3    H157386   2.440   2.801  14.506 -0.7474  0.7444  0.1437
11965TIP3    H257387   2.385   2.720  14.622 -0.2778 -1.2661 -0.9812
11966TIP3   OH257388   3.859   4.360  15.917  0.4886 -0.1174  0.0424
11966TIP3    H157389   3.937   4.412  15.900  0.9940  0.0370  2.5503
11966TIP3    H257390   3.787   4.414  15.883  1.2341  1.0049  0.1947
11967TIP3   OH257391   3.216   0.086  11.650 -0.3514 -1.1038  0.4241
11967TIP3    H157392   3.161   0.079  11.572  0.5806 -1.5941 -0.2159
11967TIP3    H257393   3.290   0.027  11.633  1.3578  0.9085  0.3836
11968TIP3   OH257394   5.677   4.232  12.835 -0.5417  0.1946  0.0455
11968TIP3    H157395   5.668   4.137  12.827 -3.3704  0.0497  2.9927
11968TIP3    H257396   5.751   4.243  12.896 -1.4037 -0.2698  1.2172
11969TIP3   OH257397   2.282   6.065   1.244 -0.2219  0.0601 -0.1402
11969TIP3    H157398   2.281   6.108   1.330  1.8618  0.3762 -0.2316
11969TIP3    H257399   2.363   6.093   1.204 -0.7641 -0.7653 -1.9012
11970TIP3   OH257400   6.396   1.376  15.911  0.4759 -0.6541  0.0532
11970TIP3    H157401   6.319   1.395  15.965  0.3953  0.1033 -0.3153
11970TIP3    H257402   6.364   1.315  15.845  0.2607 -0.5674  0.0766
11971TIP3   OH257403   6.257   1.531   5.828  0.3855  0.6366 -0.2120
11971TIP3    H157404   6.340   1.505   5.870 -1.1028  0.0026  2.6023
11971TIP3    H257405   6.227   1.606   5.878 -2.0678 -0.8693  0.7800
11972TIP3   OH257406   4.202   5.946   5.270  0.3505  0.2187 -0.0662
11972TIP3    H157407   4.221   6.003   5.196  0.7755 -0.1396 -0.2325
11972TIP3    H257408   4.243   5.863   5.248 -1.3562 -0.5730 -0.4201
11973TIP3   OH257409   3.406   6.212   5.737  0.2513 -0.1911  0.4936
11973TIP3    H157410   3.359   6.144   5.786 -0.8603  0.4499  0.3332
11973TIP3    H257411   3.441   6.165   5.661  0.3361 -0.7877  0.8898
11974TIP3   OH257412   6.096   3.335   3.952  0.2840  0.2820  0.4848
11974TIP3    H157413   6.161   3.339   4.022  0.0337  0.1152  0.7262
11974TIP3    H257414   6.140   3.288   3.881  0.2572 -0.2610  0.8255
11975TIP3   OH257415   1.331   0.022  14.726 -0.0514  0.3908  0.5322
11975TIP3    H157416   1.307   0.017  14.633  0.9236 -0.4523  0.3141
11975TIP3    H257417   1.293   0.105  14.755 -1.7803 -0.0912 -0.1957
11976TIP3   OH257418   3.134   4.195  14.186  0.4950 -0.2592 -0.7584
11976TIP3    H157419   3.140   4.284  14.221  1.8644 -0.5535 -0.2188
11976TIP3    H257420   3.064   4.154  14.237  0.9920 -0.0094  0.1306
11977TIP3   OH257421   2.051   3.114  15.917  0.0808 -0.7237  0.0537
11977TIP3    H157422   1.984   3.046  15.926 -1.1557  0.6548  1.9272
11977TIP3    H257423   2.025   3.164  15.839 -0.0173 -1.2908 -0.2816
11978TIP3   OH257424   5.946   4.080   0.436 -0.4600 -0.1617 -0.4616
11978TIP3    H157425   5.930   4.161   0.485 -0.3077 -0.4448  0.0623
11978TIP3    H257426   5.953   4.013   0.503 -2.7466 -0.9898 -0.9681
11979TIP3   OH257427   4.508   1.310   0.106 -0.1490 -0.0916  0.5643
11979TIP3    H157428   4.503   1.259   0.186 -0.6044  1.0240  1.2791
11979TIP3    H257429   4.417   1.333   0.087  0.0428  0.4216  0.2505
11980TIP3   OH257430   5.703   5.246   4.396  0.1035 -0.5045 -0.9604
11980TIP3    H157431   5.640   5.174   4.386 -2.9876  1.5560  1.6062
11980TIP3    H257432   5.734   5.238   4.487  0.0605  1.0595 -0.7811
11981TIP3   OH257433   1.144   4.687   1.942  0.9160 -0.2948 -0.2643
11981TIP3    H157434   1.236   4.712   1.930  1.0239 -0.4253  0.2671
11981TIP3    H257435   1.096   4.769   1.942  0.9978 -0.2406 -0.8105
11982TIP3   OH257436   2.114   0.059   6.088 -0.1605  0.2966  0.0685
11982TIP3    H157437   2.093   0.047   6.180  2.7214 -1.8767  0.5835
11982TIP3    H257438   2.152   0.147   6.084 -2.1309  1.2315  0.4682
11983TIP3   OH257439   2.471   0.342   2.973 -0.1203 -0.2678  0.1492
11983TIP3    H157440   2.541   0.401   2.945 -1.5811  3.0503  2.7506
11983TIP3    H257441   2.507   0.297   3.049  0.1032 -0.7612 -0.2417
11984TIP3   OH257442   4.096   4.638   0.016  0.3094  0.0080 -0.4695
11984TIP3    H157443   4.078   4.623  -0.077 -1.3235  0.9036 -0.3350
11984TIP3    H257444   4.120   4.731   0.021 -3.3414  1.0413  0.4169
11985TIP3   OH257445   3.266   0.224  16.405  0.4078  0.5055  0.2147
11985TIP3    H157446   3.181   0.253  16.373 -1.6643 -1.4689  3.3473
11985TIP3    H257447   3.290   0.288  16.471 -0.1725 -0.4766  1.4154
11986TIP3   OH257448   3.752   5.284  14.291  0.0771  1.0807 -0.3738
11986TIP3    H157449   3.665   5.246  14.299  0.3348  0.3545 -1.0048
11986TIP3    H257450   3.807   5.232  14.350 -0.0219  1.9417  0.5253
11987TIP3   OH257451   3.416   4.577  17.185  0.6013 -0.5367  0.4763
11987TIP3    H157452   3.365   4.554  17.263 -2.4961 -0.1774 -1.3147
11987TIP3    H257453   3.427   4.672  17.190  1.9121 -0.7069  1.2749
11988TIP3   OH257454   0.412   2.810   2.476  0.1552 -0.1714  0.4281
11988TIP3    H157455   0.392   2.875   2.544 -1.7985  0.2293 -0.4691
11988TIP3    H257456   0.417   2.860   2.395 -0.0753 -0.9711 -0.0925
11989TIP3   OH257457   5.737   5.716  13.241 -0.8509 -0.0998 -0.2559
11989TIP3    H157458   5.815   5.770  13.256 -0.6673 -0.5533  0.4508
11989TIP3    H257459   5.749   5.681  13.152  0.3550 -1.1386  0.2868
11990TIP3   OH257460   1.335   3.206   4.402 -0.3606 -0.1278  0.0084
11990TIP3    H157461   1.309   3.198   4.310  0.9302 -0.0685 -0.3798
11990TIP3    H257462   1.406   3.270   4.401  0.3694 -0.9116  0.9178
11991TIP3   OH257463   2.764   6.723   1.541 -0.1938 -0.1597 -0.0138
11991TIP3    H157464   2.711   6.779   1.485  0.3360 -0.1208 -0.4881
11991TIP3    H257465   2.844   6.773   1.557 -0.6392  0.1376  1.3970
11992TIP3   OH257466   0.376   4.753   5.065 -0.5315  0.5382 -0.5499
11992TIP3    H157467   0.391   4.663   5.036  0.7863 -0.0424  1.6572
11992TIP3    H257468   0.316   4.790   5.000 -0.7610 -1.7781 -1.7576
11993TIP3   OH257469   0.132   3.767   2.310  0.0032  0.0861  1.6723
11993TIP3    H157470   0.212   3.719   2.333  0.7530  1.0193  1.0708
11993TIP3    H257471   0.149   3.857   2.338  0.1624  0.8337 -0.6336
11994TIP3   OH257472   5.672   1.707  14.111 -0.4328 -0.0891  0.0517
11994TIP3    H157473   5.691   1.800  14.129  0.1685 -0.2597  0.3331
11994TIP3    H257474   5.694   1.696  14.019 -0.9227  0.1528 -0.0944
11995TIP3   OH257475   1.713   2.000  11.733 -0.0147 -0.3921  0.3567
11995TIP3    H157476   1.701   1.957  11.818 -0.6050 -0.0786  0.4335
11995TIP3    H257477   1.706   2.094  11.752  1.1533 -0.2571  0.1673
11996TIP3   OH257478   1.163   1.088   4.692  0.1058 -0.2164 -0.3866
11996TIP3    H157479   1.152   0.993   4.698  0.2805 -0.3143 -1.3995
11996TIP3    H257480   1.073   1.122   4.685  0.0768 -0.3730 -0.7972
11997TIP3   OH257481   0.465   6.682   2.875  0.1172  0.1123  0.5082
11997TIP3    H157482   0.416   6.672   2.793  0.6657 -1.0976  0.3104
11997TIP3    H257483   0.466   6.777   2.890  2.1668  0.6677 -2.2295
11998TIP3   OH257484   3.014   4.938   3.453  0.2608  0.2246 -0.1960
11998TIP3    H157485   2.925   4.913   3.428  0.7815 -0.3704 -1.5860
11998TIP3    H257486   3.027   5.023   3.412 -0.6597  1.7890  2.5114
11999TIP3   OH257487   6.813   4.771   4.234 -0.0837 -0.7085 -0.1818
11999TIP3    H157488   6.888   4.823   4.263 -0.0412 -0.8868  0.0265
11999TIP3    H257489   6.832   4.749   4.143  0.5382 -1.5156  0.1319
12000TIP3   OH257490   4.755   2.011   2.069  0.3508  0.0067  0.6481
12000TIP3    H157491   4.686   2.005   2.135  0.3692 -0.3877  0.6342
12000TIP3    H257492   4.724   1.956   1.997  0.1178  0.8007  0.1295
12001TIP3   OH257493   3.677   0.462   2.590 -0.4854  0.0918 -0.5367
12001TIP3    H157494   3.689   0.544   2.638  0.2003  0.8636 -1.9561
12001TIP3    H257495   3.610   0.482   2.525  1.1128  0.2199 -2.2564
12002TIP3   OH257496   1.643   3.291  11.090  0.2799 -0.1509  0.0528
12002TIP3    H157497   1.580   3.225  11.119 -0.7018  1.7880  2.7073
12002TIP3    H257498   1.606   3.323  11.008 -0.4463 -1.2827 -0.1016
12003TIP3   OH257499   0.223   0.668   3.619 -0.6079  0.2020 -0.0056
12003TIP3    H157500   0.248   0.667   3.711  1.1754 -0.1669 -0.4624
12003TIP3    H257501   0.202   0.760   3.602  1.0790  0.6844  0.2889
12004TIP3   OH257502   3.145   2.000  13.580  0.5089 -0.0105 -0.1967
12004TIP3    H157503   3.064   2.002  13.632  0.3192 -2.8144 -0.2180
12004TIP3    H257504   3.123   2.045  13.499 -0.9907 -0.5114 -0.0959
12005TIP3   OH257505   3.561   5.022   1.805  0.2719  0.0317  0.0141
12005TIP3    H157506   3.547   5.108   1.766 -1.7300 -1.0107 -1.7686
12005TIP3    H257507   3.600   4.970   1.735  1.9314 -0.4421  1.2204
12006TIP3   OH257508   2.534   0.113   0.948  0.0413  0.0191 -0.6564
12006TIP3    H157509   2.575   0.195   0.920 -0.5786 -0.0630 -1.8599
12006TIP3    H257510   2.556   0.105   1.041 -0.3423  1.8250 -0.3817
12007TIP3   OH257511   0.909   3.938   0.216 -0.1631 -0.2079  0.0611
12007TIP3    H157512   0.977   3.871   0.210 -0.4384 -0.5626  0.8491
12007TIP3    H257513   0.881   3.951   0.125  0.6327 -0.3799 -0.2211
12008TIP3   OH257514   4.415   0.259   2.415  0.2410 -0.2204  0.9046
12008TIP3    H157515   4.484   0.324   2.424 -0.4118  0.7031 -0.4870
12008TIP3    H257516   4.343   0.305   2.371 -0.3299 -1.8170  0.0697
12009TIP3   OH257517   2.799   3.754   3.654  0.3747 -0.0970  0.0338
12009TIP3    H157518   2.715   3.724   3.620 -0.3062  0.4261  1.1769
12009TIP3    H257519   2.776   3.825   3.715  1.7887  1.4087 -1.0972
12010TIP3   OH257520   3.591   2.522  11.960  0.0592  0.2562  0.3146
12010TIP3    H157521   3.525   2.458  11.933  0.3057  0.1176  0.0300
12010TIP3    H257522   3.670   2.496  11.912  0.3294  0.3993  0.6802
12011TIP3   OH257523   4.765   6.033  12.334 -0.6410 -0.4620  0.2504
12011TIP3    H157524   4.772   6.128  12.334  0.0279 -0.4883  1.3933
12011TIP3    H257525   4.856   6.002  12.329 -0.8528 -1.0422 -0.2017
12012TIP3   OH257526   4.553   4.276   1.870 -0.2058  0.3063  1.1271
12012TIP3    H157527   4.622   4.209   1.870 -0.1555  0.3422 -0.0105
12012TIP3    H257528   4.595   4.353   1.909  0.2311  0.1570  0.9661
12013TIP3   OH257529   6.486   2.338   1.770  0.1048 -0.0997 -0.0147
12013TIP3    H157530   6.560   2.373   1.819 -0.5945  0.3704  0.7192
12013TIP3    H257531   6.414   2.397   1.790 -0.6369 -0.9217 -0.2160
12014TIP3   OH257532   3.859   0.396  15.169  0.0531 -0.6181 -0.6889
12014TIP3    H157533   3.853   0.306  15.139  1.3265 -1.2904  0.9258
12014TIP3    H257534   3.937   0.431  15.124 -0.4337 -0.3059 -1.3066
12015TIP3   OH257535   1.337   3.645   1.263  0.7201 -0.3534 -0.1768
12015TIP3    H157536   1.299   3.670   1.348 -0.1641  1.1542 -0.9749
12015TIP3    H257537   1.293   3.702   1.200  1.4230 -1.3993 -1.6478
12016TIP3   OH257538   6.349   4.141  13.848 -0.3496  0.2898 -0.2085
12016TIP3    H157539   6.306   4.207  13.795 -1.0297  0.1633  0.1719
12016TIP3    H257540   6.295   4.063  13.837 -0.3423  0.1889  0.4482
12017TIP3   OH257541   6.257   0.874   4.422 -0.2179  0.1972  0.6876
12017TIP3    H157542   6.340   0.837   4.452 -0.3854 -0.8378 -0.0728
12017TIP3    H257543   6.228   0.930   4.494  0.2584 -0.8206  1.6946
12018TIP3   OH257544   4.245   6.208  10.980 -0.3709 -0.1209 -0.2953
12018TIP3    H157545   4.274   6.192  11.070 -2.3881 -1.4491  0.2023
12018TIP3    H257546   4.149   6.213  10.987 -0.5448  0.1838 -2.3200
12019TIP3   OH257547   6.499   6.384  15.889  0.2902 -0.4200  0.4393
12019TIP3    H157548   6.501   6.391  15.984  2.2514  0.1055  0.4002
12019TIP3    H257549   6.533   6.296  15.870 -0.9224 -0.8652  0.2207
12020TIP3   OH257550   5.751   3.520   4.182  0.9492  1.0217 -0.2408
12020TIP3    H157551   5.813   3.458   4.219  0.5989  0.2673 -0.8681
12020TIP3    H257552   5.768   3.517   4.088 -0.6076  0.1157 -0.5354
12021TIP3   OH257553   0.318   0.299   3.886 -0.1086  0.1719 -0.7998
12021TIP3    H157554   0.281   0.373   3.839 -0.7753 -0.3745 -1.1427
12021TIP3    H257555   0.412   0.316   3.888 -0.3673  1.6583  0.2294
12022TIP3   OH257556   4.860   5.367   4.466 -0.3630  0.1762 -0.6033
12022TIP3    H157557   4.865   5.272   4.476 -0.3724  0.2970  0.7630
12022TIP3    H257558   4.777   5.382   4.419  0.1710 -0.5275 -1.8014
12023TIP3   OH257559   6.257   3.781   0.953 -0.3859 -1.1596  0.4561
12023TIP3    H157560   6.229   3.725   1.025 -0.0555 -0.4767  1.1262
12023TIP3    H257561   6.349   3.801   0.971 -0.4448 -0.5484  0.1363
12024TIP3   OH257562   2.882   4.138  15.818 -1.0409 -0.1931 -0.0100
12024TIP3    H157563   2.882   4.087  15.737  1.8545  0.4409 -0.5205
12024TIP3    H257564   2.794   4.174  15.823 -1.6275 -1.0829 -2.3347
12025TIP3   OH257565   1.214   1.304  14.932 -0.1340 -0.0175 -0.2470
12025TIP3    H157566   1.267   1.337  14.860  1.3500  2.3908  1.7500
12025TIP3    H257567   1.278   1.275  14.997 -1.3682 -0.6932  0.7038
12026TIP3   OH257568   1.421   3.653  14.043 -0.2636  0.2255  0.3955
12026TIP3    H157569   1.402   3.736  14.087 -0.6719 -0.3539  1.3279
12026TIP3    H257570   1.504   3.624  14.080  0.6098  0.8828 -0.9474
12027TIP3   OH257571   3.951   2.385  15.428 -0.1892  0.3012  0.1214
12027TIP3    H157572   4.036   2.370  15.470  0.1744  1.9308  0.0134
12027TIP3    H257573   3.897   2.427  15.494 -0.4630  0.5341 -0.2445
12028TIP3   OH257574   1.419   1.521  14.357 -0.0571 -0.2244 -0.0668
12028TIP3    H157575   1.447   1.446  14.305 -1.8864 -0.1118 -1.2876
12028TIP3    H257576   1.323   1.516  14.358 -0.1677 -0.0713  3.1024
12029TIP3   OH257577   0.787   3.705   4.035  0.5356 -0.0729 -0.1311
12029TIP3    H157578   0.869   3.658   4.018  0.5087 -0.3777  0.5749
12029TIP3    H257579   0.761   3.678   4.123  0.9338  1.8317  0.6242
12030TIP3   OH257580   5.483   3.149  10.749 -0.1247  0.3742  0.0907
12030TIP3    H157581   5.516   3.129  10.661  0.9030  0.0784  0.5172
12030TIP3    H257582   5.449   3.238  10.743 -0.1048  0.3403 -0.6138
12031TIP3   OH257583   5.456   2.571   6.221  0.0636  0.0690  1.1343
12031TIP3    H157584   5.397   2.610   6.286  1.0500  1.4574  1.2344
12031TIP3    H257585   5.506   2.644   6.187  0.5734 -0.8550 -0.1673
12032TIP3   OH257586   6.222   1.380   4.342 -0.0625  0.1518 -0.5312
12032TIP3    H157587   6.275   1.302   4.361  0.0838  0.5762  0.8534
12032TIP3    H257588   6.284   1.443   4.306  0.0278  0.0281 -0.5940
12033TIP3   OH257589   6.027   3.210  16.782  0.0765 -0.3521 -0.3976
12033TIP3    H157590   6.115   3.237  16.808 -0.0594 -2.3377  2.6436
12033TIP3    H257591   5.970   3.240  16.853 -1.3991 -0.8008 -1.3343
12034TIP3   OH257592   0.815   6.312  11.978  0.3669  0.3045  0.2036
12034TIP3    H157593   0.807   6.407  11.969  0.1952  0.3263  0.5495
12034TIP3    H257594   0.843   6.281  11.892  1.4826  0.7792  0.3925
12035TIP3   OH257595   3.977   4.735   0.265  0.2787 -0.7123  0.7824
12035TIP3    H157596   4.029   4.688   0.200  1.1896 -1.0131  1.6942
12035TIP3    H257597   4.021   4.820   0.274 -1.0312  0.1463 -0.4450
12036TIP3   OH257598   0.573   4.449   0.945 -0.1121  0.2904  0.1779
12036TIP3    H157599   0.626   4.529   0.949 -2.0057  1.5888  0.4786
12036TIP3    H257600   0.626   4.388   0.893  0.7104  2.2659 -1.4486
12037TIP3   OH257601   4.658   5.776   4.525 -0.1050 -0.6022  0.6515
12037TIP3    H157602   4.718   5.723   4.577 -0.4120 -1.6216 -0.0141
12037TIP3    H257603   4.572   5.736   4.539 -0.1864 -0.9266 -0.6720
12038TIP3   OH257604   5.054   0.304   3.663 -0.0862 -0.0287  0.2800
12038TIP3    H157605   5.009   0.269   3.587  0.2097 -0.3569  0.2546
12038TIP3    H257606   5.146   0.307   3.638 -0.0983  0.7408  0.2917
12039TIP3   OH257607   3.071   6.318  16.303  0.6527  0.0815 -0.1766
12039TIP3    H157608   3.025   6.401  16.293 -0.2872 -0.1907  1.6012
12039TIP3    H257609   3.054   6.271  16.221  0.1668  1.1358 -0.6939
12040TIP3   OH257610   2.192   1.281  11.640 -0.3653  0.4609 -1.5421
12040TIP3    H157611   2.258   1.350  11.641 -1.3637  1.4712  0.7747
12040TIP3    H257612   2.239   1.202  11.667 -0.2676  1.4735  1.6986
12041TIP3   OH257613   6.798   3.526  12.594  0.1775 -0.1151 -0.2146
12041TIP3    H157614   6.883   3.556  12.624 -0.5387  2.0746 -0.2408
12041TIP3    H257615   6.752   3.500  12.675 -0.5177  2.5207  0.3251
12042TIP3   OH257616   1.543   4.698  14.155 -0.2531 -0.1996  0.2235
12042TIP3    H157617   1.596   4.709  14.076 -0.2114  0.3924  0.3292
12042TIP3    H257618   1.525   4.787  14.184  0.0137 -0.4196  1.0719
12043TIP3   OH257619   4.880   0.979  11.276  0.4835  0.0193 -0.6210
12043TIP3    H157620   4.881   0.919  11.202 -0.4300  1.9218 -2.2788
12043TIP3    H257621   4.907   0.926  11.351 -2.1769 -2.9674 -1.5437
12044TIP3   OH257622   0.536   0.389   3.775 -0.0926 -0.2718  0.6057
12044TIP3    H157623   0.605   0.441   3.816 -0.5341 -0.2574  1.3354
12044TIP3    H257624   0.477   0.454   3.737  0.8451 -0.2915 -0.9823
12045TIP3   OH257625   4.938   2.266  12.930  0.1178  0.4253  0.2755
12045TIP3    H157626   4.850   2.248  12.898 -1.2638  1.6941  3.0213
12045TIP3    H257627   4.991   2.277  12.851 -2.0333 -0.9138 -1.4477
12046TIP3   OH257628   1.252   2.332  12.884  0.0343 -0.0129 -0.3540
12046TIP3    H157629   1.188   2.289  12.828 -1.4930 -0.6252  1.7442
12046TIP3    H257630   1.267   2.270  12.955  1.5686  0.9055  0.1509
12047TIP3   OH257631   0.864   3.961   5.070 -0.3422 -0.1225 -0.1076
12047TIP3    H157632   0.791   3.971   5.009 -0.6436 -2.6098 -0.2438
12047TIP3    H257633   0.935   3.924   5.017 -0.4833 -1.9564  0.9333
12048TIP3   OH257634   6.046   4.979  14.248  0.2553  0.6425  0.6901
12048TIP3    H157635   5.986   5.043  14.289 -1.5697 -1.0351  0.7758
12048TIP3    H257636   6.010   4.965  14.160  1.0284  0.2225  0.4304
12049TIP3   OH257637   6.424   1.139  16.089 -0.7146  0.1747 -0.7411
12049TIP3    H157638   6.439   1.232  16.077 -0.3128  0.0027 -1.6476
12049TIP3    H257639   6.511   1.102  16.101 -0.9937  0.1822  1.8648
12050TIP3   OH257640   6.488   6.285   5.178  0.5047  0.2053 -0.1350
12050TIP3    H157641   6.407   6.234   5.187  1.3890 -1.1029  0.6087
12050TIP3    H257642   6.554   6.234   5.224  2.1351  0.4596 -2.0922
12051TIP3   OH257643   1.081   5.696  13.714 -0.5701  0.5961  0.1893
12051TIP3    H157644   1.124   5.698  13.799  1.2726  4.2175 -0.6108
12051TIP3    H257645   1.148   5.666  13.653 -1.1883  0.1433 -0.2825
12052TIP3   OH257646   5.974   4.650   5.506 -0.3697 -0.1253  0.0940
12052TIP3    H157647   5.949   4.582   5.569 -2.1647 -1.6130 -2.0533
12052TIP3    H257648   5.969   4.606   5.421  0.4428  2.2013 -1.2388
12053TIP3   OH257649   4.041   4.901   4.808  0.1670 -0.2601  0.2861
12053TIP3    H157650   4.091   4.887   4.728 -0.3640  0.0716 -0.1126
12053TIP3    H257651   3.950   4.886   4.783  0.1064 -1.4822  1.1542
12054TIP3   OH257652   6.298   0.045   4.018 -0.0945 -0.3169 -0.5621
12054TIP3    H157653   6.247  -0.034   4.034 -0.1202 -0.4454 -1.2518
12054TIP3    H257654   6.279   0.101   4.093 -1.3710 -0.2899 -0.8873
12055TIP3   OH257655   6.037   3.315  14.420  0.1405 -0.8039 -0.7445
12055TIP3    H157656   6.117   3.339  14.467 -0.1466 -1.3472  0.0417
12055TIP3    H257657   5.988   3.262  14.482 -0.1620 -1.7066 -1.7255
12056TIP3   OH257658   5.706   4.864  16.375  0.1548  0.1313 -0.1081
12056TIP3    H157659   5.737   4.790  16.323  0.8835 -0.7292  1.4749
12056TIP3    H257660   5.676   4.825  16.456 -2.9672  1.2081 -0.6374
12057TIP3   OH257661   4.335   6.435  11.615 -0.2535  0.4093  0.6707
12057TIP3    H157662   4.268   6.486  11.569  0.2770  0.6243  0.1196
12057TIP3    H257663   4.418   6.463  11.575  0.0450 -0.9359  0.2749
12058TIP3   OH257664   0.150   1.302  11.353  0.3373 -0.6509 -1.0044
12058TIP3    H157665   0.066   1.274  11.316 -0.0212  0.3937 -1.0306
12058TIP3    H257666   0.207   1.225  11.346 -1.0323 -1.8649  0.3577
12059TIP3   OH257667   1.604   1.106   4.658 -0.0069 -0.2902 -0.4239
12059TIP3    H157668   1.696   1.126   4.673  0.5297 -2.1602 -0.8809
12059TIP3    H257669   1.562   1.191   4.646  1.0945  0.8106  2.6007
12060TIP3   OH257670   3.770   3.648  16.292  0.3381 -0.5034  0.1525
12060TIP3    H157671   3.738   3.566  16.253  4.5457 -2.3105 -0.0629
12060TIP3    H257672   3.732   3.717  16.237 -1.5148 -2.4127 -1.1322
12061TIP3   OH257673   5.013   5.883  12.958 -0.2409 -0.3741 -0.4442
12061TIP3    H157674   5.092   5.838  12.984  0.6239  1.5045  0.3820
12061TIP3    H257675   4.986   5.933  13.035  0.1946  2.2873 -1.8667
12062TIP3   OH257676   3.096   0.796  17.173 -0.3540  0.1322 -0.3141
12062TIP3    H157677   3.013   0.832  17.204 -1.0446 -0.3903 -1.4901
12062TIP3    H257678   3.106   0.713  17.220  1.1246  1.6248  2.2262
12063TIP3   OH257679   0.751   2.049   4.156 -0.5454  0.4678  0.1430
12063TIP3    H157680   0.764   2.087   4.069 -0.4791 -0.7929 -0.4176
12063TIP3    H257681   0.828   1.994   4.170 -1.2250 -0.4540  0.3682
12064TIP3   OH257682   4.699   2.957   2.567 -0.5395 -0.4437  0.0037
12064TIP3    H157683   4.644   2.887   2.601 -0.7776  0.2769  1.1406
12064TIP3    H257684   4.722   2.928   2.479 -2.3192 -0.9996 -0.3258
12065TIP3   OH257685   0.483   6.762   1.975 -0.0880  0.1110  0.0928
12065TIP3    H157686   0.558   6.718   1.936  0.5369  1.3118 -0.1043
12065TIP3    H257687   0.408   6.733   1.924  0.2941 -0.8038  0.0461
12066TIP3   OH257688   5.624   1.682  12.869  0.5290  0.6876 -0.0344
12066TIP3    H157689   5.559   1.618  12.896 -0.3419  1.4536 -0.2618
12066TIP3    H257690   5.655   1.722  12.951  1.7981 -0.6697  0.1896
12067TIP3   OH257691   5.798   3.779  16.782 -0.3442 -0.2769  0.2949
12067TIP3    H157692   5.856   3.776  16.858  0.5496  0.4767 -0.3339
12067TIP3    H257693   5.737   3.851  16.801 -0.2829 -0.2537  0.4040
12068TIP3   OH257694   1.606   6.187  11.032  0.1487 -0.1825 -0.2115
12068TIP3    H157695   1.614   6.093  11.018  0.1926 -0.3030  0.5662
12068TIP3    H257696   1.577   6.221  10.948 -1.6503 -1.1358 -0.0335
12069TIP3   OH257697   6.724   5.963   0.453  0.3722 -0.0977  0.0789
12069TIP3    H157698   6.779   5.895   0.491 -0.1058  0.0529  1.0900
12069TIP3    H257699   6.763   6.045   0.483  1.0849  0.0927 -1.3309
12070TIP3   OH257700   3.969   1.969  13.549 -0.2957 -0.0321  0.1649
12070TIP3    H157701   3.940   1.893  13.599  0.2967 -0.6386 -0.3895
12070TIP3    H257702   3.889   2.009  13.515 -0.7681  0.7282  2.0289
12071TIP3   OH257703   5.710   1.257  16.566  0.2208 -0.0939  0.1252
12071TIP3    H157704   5.658   1.253  16.647 -0.3718  1.4440 -0.1598
12071TIP3    H257705   5.645   1.265  16.496  0.7878  2.2092 -0.2088
12072TIP3   OH257706   5.382   3.424  13.872 -0.2404  0.1884 -0.3810
12072TIP3    H157707   5.401   3.336  13.904 -0.4466  0.7408  1.3865
12072TIP3    H257708   5.468   3.464  13.861 -0.0808 -0.5712 -2.3841
12073TIP3   OH257709   5.247   4.476  11.780  0.3297  0.1174  0.6517
12073TIP3    H157710   5.253   4.383  11.756 -0.9462  0.0046  0.7036
12073TIP3    H257711   5.309   4.520  11.722  1.0957 -0.7855  0.7550
12074TIP3   OH257712   6.324   5.573   1.863 -0.2617 -0.1570  0.8818
12074TIP3    H157713   6.367   5.653   1.832 -0.9428  0.4368  1.4540
12074TIP3    H257714   6.284   5.598   1.946 -2.5374 -0.4197 -0.0802
12075TIP3   OH257715   0.429   3.613  16.657 -0.5923  0.3619  0.0349
12075TIP3    H157716   0.368   3.607  16.731 -1.6074  0.0926 -0.7822
12075TIP3    H257717   0.468   3.526  16.652 -1.0585  0.1585 -0.1692
12076TIP3   OH257718   0.553   1.566  16.728  0.3501  0.1214 -0.7699
12076TIP3    H157719   0.465   1.572  16.691  0.8639  0.1053 -2.0638
12076TIP3    H257720   0.557   1.636  16.793 -0.4395  0.4723 -1.0933
12077TIP3   OH257721   2.793   0.236   5.774 -0.2474 -0.1108  0.6873
12077TIP3    H157722   2.843   0.155   5.760 -1.5678 -0.6226 -1.6092
12077TIP3    H257723   2.735   0.216   5.847 -0.8150 -1.4253 -0.0772
12078TIP3   OH257724   5.413   0.540   4.036  0.0910  0.6050 -0.0984
12078TIP3    H157725   5.422   0.631   4.064  0.7850  1.2148 -2.1415
12078TIP3    H257726   5.359   0.545   3.958  1.8874 -0.4685 -1.4817
12079TIP3   OH257727   6.822   1.149   5.327  0.4123  0.0379  0.1185
12079TIP3    H157728   6.746   1.141   5.385  0.1023  0.7116 -0.1820
12079TIP3    H257729   6.895   1.171   5.385  0.2692 -0.1007  0.3487
12080TIP3   OH257730   4.019   1.302   3.512  0.1972 -0.6136 -0.2402
12080TIP3    H157731   3.942   1.247   3.527  1.1457 -1.6013  1.3400
12080TIP3    H257732   3.988   1.391   3.528 -0.3939 -1.0934  1.5987
12081TIP3   OH257733   6.431   5.860  17.158  0.7596 -0.1929  0.0644
12081TIP3    H157734   6.504   5.845  17.099  0.5949  0.2605 -0.2609
12081TIP3    H257735   6.355   5.867  17.101  0.6666  0.7215  0.2837
12082TIP3   OH257736   2.074   1.124   5.603  0.6608  0.0337 -0.0940
12082TIP3    H157737   2.016   1.199   5.593  0.2173 -0.4315 -1.1879
12082TIP3    H257738   2.048   1.085   5.686  0.1179  0.4340 -0.0691
12083TIP3   OH257739   2.297   3.973   0.989  0.4199 -0.3306  0.2082
12083TIP3    H157740   2.336   4.038   0.930  0.0691 -0.5442 -0.2601
12083TIP3    H257741   2.346   3.893   0.972  0.1486 -0.4574  0.0207
12084TIP3   OH257742   5.314   0.581   3.779 -0.0395 -0.2441 -0.5952
12084TIP3    H157743   5.341   0.509   3.723 -0.8319 -3.0245  2.3179
12084TIP3    H257744   5.218   0.583   3.773 -0.1033 -0.2508  0.2112
12085TIP3   OH257745   5.787   1.358  13.986  0.3900 -0.0993 -0.7419
12085TIP3    H157746   5.804   1.448  13.956 -0.2508  1.2593  2.5308
12085TIP3    H257747   5.711   1.366  14.044  0.0317 -2.8825 -0.6864
12086TIP3   OH257748   1.233   1.771  16.337  0.2745 -0.3575 -0.0611
12086TIP3    H157749   1.235   1.778  16.241  0.1953  2.0005  0.0406
12086TIP3    H257750   1.158   1.715  16.355 -0.3518  0.0054 -1.3956
12087TIP3   OH257751   3.101   3.129   2.399  0.2772  0.4232  0.2631
12087TIP3    H157752   3.007   3.138   2.418  0.4227 -0.9088  1.8326
12087TIP3    H257753   3.130   3.218   2.380 -0.7313  1.3576  2.7025
12088TIP3   OH257754   4.294   2.742  14.098  0.6857  0.0412 -0.0187
12088TIP3    H157755   4.306   2.664  14.152  0.8056 -0.3699 -0.6371
12088TIP3    H257756   4.317   2.815  14.156  0.3823 -0.3642  0.6226
12089TIP3   OH257757   1.129   0.979  16.376  0.6673 -0.0307 -0.2231
12089TIP3    H157758   1.189   0.941  16.312 -0.6409 -1.4879 -0.6191
12089TIP3    H257759   1.044   0.940  16.357 -1.0748  3.8383 -1.2960
12090TIP3   OH257760   6.551   0.776   1.170 -0.4021 -0.0739  0.3930
12090TIP3    H157761   6.512   0.828   1.240 -1.0789 -0.2105  0.1288
12090TIP3    H257762   6.476   0.735   1.126  0.1524 -2.8562  1.8120
12091TIP3   OH257763   3.715   5.559  12.583 -0.2167  0.0297  0.0845
12091TIP3    H157764   3.715   5.654  12.592 -0.7451  0.0530 -0.1491
12091TIP3    H257765   3.778   5.541  12.513  1.8995  0.0235  1.8872
12092TIP3   OH257766   2.236   4.069  16.416 -0.0238 -0.7155  0.4206
12092TIP3    H157767   2.329   4.081  16.433 -0.3491  0.3680  1.6415
12092TIP3    H257768   2.213   4.140  16.357 -0.0087 -1.2232 -0.2077
12093TIP3   OH257769   1.285   2.838  14.758  0.3509 -0.2432 -0.2172
12093TIP3    H157770   1.352   2.898  14.789  0.5676 -0.9803  0.7619
12093TIP3    H257771   1.209   2.857  14.813  0.5060 -1.0382  0.2868
12094TIP3   OH257772   3.292   6.037   5.102 -0.0601 -0.1713  0.0954
12094TIP3    H157773   3.356   6.040   5.031  0.5420 -1.2688  0.5611
12094TIP3    H257774   3.264   6.128   5.114  1.2129  0.2907 -0.3062
12095TIP3   OH257775   2.100   5.786   3.558 -0.0768  0.2854  0.3374
12095TIP3    H157776   2.080   5.880   3.555  0.8113  0.4661 -0.8068
12095TIP3    H257777   2.084   5.756   3.468 -1.3082 -0.8755  0.9322
12096TIP3   OH257778   4.163   3.025   4.792  0.1737 -0.4705 -1.1864
12096TIP3    H157779   4.118   3.088   4.737  0.2724  0.3898 -0.3141
12096TIP3    H257780   4.208   2.967   4.731 -0.6174 -0.2193 -2.0171
12097TIP3   OH257781   5.799   0.941   2.776 -0.5427  0.5705  0.2959
12097TIP3    H157782   5.712   0.976   2.791 -0.2592  2.0032 -1.1597
12097TIP3    H257783   5.846   0.958   2.857 -1.5188  0.0094  1.0014
12098TIP3   OH257784   6.408   0.290   3.883  0.4188  0.1743 -0.3000
12098TIP3    H157785   6.390   0.206   3.924 -0.4723  0.5836  0.1737
12098TIP3    H257786   6.385   0.355   3.949  0.0831  0.8147 -1.0218
12099TIP3   OH257787   4.466   2.564  16.105 -0.1338 -0.4314  0.5087
12099TIP3    H157788   4.541   2.538  16.052 -1.1839 -2.4376 -0.1081
12099TIP3    H257789   4.392   2.559  16.046 -1.2376 -1.9968  1.9304
12100TIP3   OH257790   6.798   0.499  16.536  0.0035  0.1736  0.5329
12100TIP3    H157791   6.825   0.490  16.445 -0.4991 -0.8762  0.4697
12100TIP3    H257792   6.782   0.593  16.547  2.6290  0.7246  0.3080
12101TIP3   OH257793   0.325   6.068   5.484 -0.8091  0.3932  0.2911
12101TIP3    H157794   0.321   6.160   5.509 -0.2220  0.4543  0.1645
12101TIP3    H257795   0.370   6.067   5.400  0.0485 -0.0852  0.7407
12102TIP3   OH257796   6.801   2.849  14.112  0.3564  0.4084  0.2452
12102TIP3    H157797   6.890   2.838  14.078 -0.6479 -0.4489 -2.3234
12102TIP3    H257798   6.776   2.762  14.141  0.5972  0.8139  1.7666
12103TIP3   OH257799   2.406   5.568   5.715  0.1663 -0.5568  0.0711
12103TIP3    H157800   2.352   5.593   5.790  1.1383 -1.4973  1.1276
12103TIP3    H257801   2.351   5.585   5.639  0.0444  2.8726  0.7763
12104TIP3   OH257802   1.329   5.649  15.655  0.4101 -0.1125 -0.1640
12104TIP3    H157803   1.384   5.715  15.698 -0.3544  1.8618 -2.0268
12104TIP3    H257804   1.251   5.644  15.710  0.4190  0.6557 -0.0679
12105TIP3   OH257805   0.048   0.919   1.061 -0.0008 -0.4892 -0.5221
12105TIP3    H157806   0.000   0.932   1.143 -0.7753 -0.2209 -1.0045
12105TIP3    H257807   0.080   1.006   1.038  1.2374 -0.7619  0.0926
12106TIP3   OH257808   6.277   5.410  14.924 -0.4713 -0.2855 -0.0389
12106TIP3    H157809   6.306   5.337  14.978 -1.0423 -1.2252 -0.9560
12106TIP3    H257810   6.196   5.440  14.966  0.1418  0.3084  0.7470
12107TIP3   OH257811   2.587   3.893  11.904  0.2354 -0.0888  0.2132
12107TIP3    H157812   2.520   3.960  11.890  0.0245 -0.4880 -0.7942
12107TIP3    H257813   2.613   3.866  11.816  2.6264  0.9347  0.5241
12108TIP3   OH257814   5.449   4.442  16.353  0.1781  0.0210  0.1321
12108TIP3    H157815   5.442   4.476  16.263  0.5747  0.2371  0.1845
12108TIP3    H257816   5.543   4.434  16.369  0.1531  1.2640  1.0087
12109TIP3   OH257817   5.501   1.586  11.905 -0.4205 -0.4672 -0.0565
12109TIP3    H157818   5.545   1.592  11.821  2.1708 -1.2698  1.1247
12109TIP3    H257819   5.430   1.524  11.891 -2.0780  1.7698 -2.3429
12110TIP3   OH257820   2.554   3.057  12.830  0.7968 -0.2657  0.6741
12110TIP3    H157821   2.524   2.977  12.787  0.2154  0.0102  0.5548
12110TIP3    H257822   2.540   3.040  12.924 -0.8501  0.2864  0.5594
12111TIP3   OH257823   0.425   6.126  12.752  0.3618  0.3613 -0.2409
12111TIP3    H157824   0.386   6.114  12.665 -0.9393  2.6049 -0.0254
12111TIP3    H257825   0.509   6.169  12.735  1.0727 -1.0486 -0.4659
12112TIP3   OH257826   2.773   4.177  13.634  0.0606  0.5904 -0.2167
12112TIP3    H157827   2.735   4.256  13.597  1.4819  1.5582  0.3128
12112TIP3    H257828   2.724   4.162  13.715  0.5352  1.6151  0.2768
12113TIP3   OH257829   6.527   3.162  15.802 -0.3123 -0.4973  0.1915
12113TIP3    H157830   6.514   3.085  15.747 -0.0316 -0.6831  0.3813
12113TIP3    H257831   6.589   3.134  15.868  0.2107  0.0457 -0.0550
12114TIP3   OH257832   1.958   0.108  16.335  0.2778  0.1028 -0.5395
12114TIP3    H157833   1.979   0.153  16.253 -0.2569 -1.5106 -1.6327
12114TIP3    H257834   1.888   0.047  16.311  0.8693 -1.1864  0.8591
12115TIP3   OH257835   0.408   4.559   0.727  0.1633  0.4593 -0.3397
12115TIP3    H157836   0.404   4.655   0.722 -2.4218  0.7244  3.0851
12115TIP3    H257837   0.447   4.541   0.812 -2.4846 -1.3294  0.6302
12116TIP3   OH257838   3.789   3.522   2.979  0.1265  0.1919 -0.4966
12116TIP3    H157839   3.766   3.497   2.890  2.0131 -1.5729 -0.5851
12116TIP3    H257840   3.757   3.450   3.033 -1.6396  1.5846  0.3971
12117TIP3   OH257841   5.722   2.451  12.891 -0.0958  0.3708 -0.1446
12117TIP3    H157842   5.691   2.363  12.914  3.2594 -1.5700 -2.2204
12117TIP3    H257843   5.708   2.503  12.970 -2.9293 -1.7263  0.9261
12118TIP3   OH257844   3.052   4.848   5.651 -0.0387 -0.4187  0.0641
12118TIP3    H157845   3.034   4.941   5.667  0.6843 -0.1392 -0.6538
12118TIP3    H257846   3.007   4.802   5.722  0.2381  0.5291  0.8794
12119TIP3   OH257847   3.337   2.700  14.515 -0.2765  0.2865  0.5622
12119TIP3    H157848   3.402   2.762  14.482  0.2223 -1.0533 -1.0866
12119TIP3    H257849   3.303   2.657  14.437 -1.0812 -1.0599  1.6133
12120TIP3   OH257850   2.859   5.328  16.816 -0.1693 -0.2162  0.1547
12120TIP3    H157851   2.883   5.236  16.814  1.3666  0.1500  0.3940
12120TIP3    H257852   2.941   5.374  16.830 -0.9032  1.2008  0.0222
12121TIP3   OH257853   6.394   0.056   0.898 -0.3509  0.2252 -0.0497
12121TIP3    H157854   6.353   0.113   0.833 -1.9929  0.1086  0.8041
12121TIP3    H257855   6.472   0.103   0.926 -2.0050  2.4566  1.1254
12122TIP3   OH257856   4.721   0.711   4.194  0.6256 -0.0861  0.0313
12122TIP3    H157857   4.667   0.757   4.259  1.4820  0.4973  0.3518
12122TIP3    H257858   4.802   0.689   4.241  0.3584 -1.6734 -0.2139
12123TIP3   OH257859   2.310   3.610  15.312 -0.1389  0.2559 -0.0562
12123TIP3    H157860   2.270   3.653  15.237 -0.2600  0.6968  0.2541
12123TIP3    H257861   2.392   3.659  15.326 -0.6182  0.8500  0.7345
12124TIP3   OH257862   0.053   4.540  11.992  0.2494  0.2350 -0.0013
12124TIP3    H157863  -0.043   4.548  11.998  0.1271 -0.4444 -0.8717
12124TIP3    H257864   0.078   4.494  12.072  0.0222  1.6555  0.9178
12125TIP3   OH257865   5.897   1.672  16.170 -0.7820  0.5590 -0.2987
12125TIP3    H157866   5.830   1.739  16.185 -1.8619  0.0941 -2.5540
12125TIP3    H257867   5.974   1.721  16.142  0.1665  1.1572  2.9975
12126TIP3   OH257868   0.962   6.633   4.119 -0.9185 -0.2779  0.5260
12126TIP3    H157869   0.907   6.644   4.197 -0.9935  3.3603  0.1207
12126TIP3    H257870   0.900   6.634   4.046 -0.7533 -2.6898  0.2494
12127TIP3   OH257871   6.073   0.355  12.529 -0.0675  0.1532  0.0829
12127TIP3    H157872   6.017   0.317  12.596  1.8606  0.2986  1.8946
12127TIP3    H257873   6.143   0.291  12.516  1.3514  1.5228  0.6458
12128TIP3   OH257874   5.537   5.224  11.609  0.1849 -0.5440 -0.0105
12128TIP3    H157875   5.524   5.139  11.650  0.5594 -0.5257  0.1514
12128TIP3    H257876   5.622   5.253  11.642 -1.0502  1.0540  1.9997
12129TIP3   OH257877   1.050   0.168   1.105  0.6786  0.7832  0.0950
12129TIP3    H157878   1.080   0.201   1.021 -0.1755  0.3298 -0.4044
12129TIP3    H257879   1.002   0.241   1.145  0.9132  0.9332  0.1030
12130TIP3   OH257880   5.798   4.859   2.192  0.0736 -0.6715 -0.2868
12130TIP3    H157881   5.703   4.870   2.196  0.0826 -0.3232 -0.9661
12130TIP3    H257882   5.812   4.785   2.133  0.2798  0.5239 -1.7882
12131TIP3   OH257883   4.457   6.175   3.372 -0.1824  0.1552 -0.6049
12131TIP3    H157884   4.375   6.217   3.343 -0.6279 -0.5496 -0.4010
12131TIP3    H257885   4.428   6.095   3.417  0.6478 -0.6060 -1.3648
12132TIP3   OH257886   5.644   3.871   6.166 -0.1208 -0.4391  0.2684
12132TIP3    H157887   5.730   3.830   6.175  1.2002  1.9931 -0.5745
12132TIP3    H257888   5.612   3.841   6.081  0.2932 -0.6490  0.1868
12133TIP3   OH257889   1.123   4.406   3.656  0.1256  0.2378 -0.5843
12133TIP3    H157890   1.105   4.399   3.749 -0.5975  2.5543 -0.4745
12133TIP3    H257891   1.116   4.317   3.623 -0.2886 -0.5378  1.4490
12134TIP3   OH257892   0.350   6.089   1.254  0.8294 -0.3333  0.2310
12134TIP3    H157893   0.287   6.066   1.185  0.4665  1.9985 -0.3275
12134TIP3    H257894   0.411   6.016   1.257 -0.1039 -1.2394 -1.4316
12135TIP3   OH257895   5.923   4.661   4.374  0.1925 -0.0588  0.1249
12135TIP3    H157896   5.926   4.753   4.401  2.3431  0.0372 -0.3000
12135TIP3    H257897   5.959   4.661   4.285  0.1635 -1.3259  0.0981
12136TIP3   OH257898   3.747   6.045   0.614 -0.2006  0.4852  0.1929
12136TIP3    H157899   3.725   6.127   0.658 -2.8198  0.7018 -1.3118
12136TIP3    H257900   3.680   5.984   0.642  0.7397 -0.6863 -0.0240
12137TIP3   OH257901   2.366   5.489  15.760 -0.2763  0.0416 -0.0903
12137TIP3    H157902   2.317   5.421  15.805 -0.5257 -0.0547 -0.5065
12137TIP3    H257903   2.388   5.451  15.675 -1.0257  0.7251 -0.6048
12138TIP3   OH257904   2.939   6.717  14.213  0.2128  0.3163  0.1969
12138TIP3    H157905   2.887   6.795  14.231  0.3563  0.1513  1.4132
12138TIP3    H257906   2.922   6.697  14.120 -1.4112  0.6003  0.4054
12139TIP3   OH257907   4.288   1.865   4.237 -0.3836 -0.2866  0.3963
12139TIP3    H157908   4.330   1.917   4.169 -2.9048  1.5846  0.1194
12139TIP3    H257909   4.335   1.889   4.318  1.9844 -1.7825 -0.4542
12140TIP3   OH257910   5.241   6.018  15.438 -0.2027  0.5126  0.2949
12140TIP3    H157911   5.279   5.973  15.513 -1.7602  0.3096  0.9900
12140TIP3    H257912   5.290   6.100  15.432  0.5227  0.1376  0.9743
12141TIP3   OH257913   0.045   2.296   5.598  0.1458 -0.4392  0.4098
12141TIP3    H157914   0.027   2.377   5.552  2.1040 -0.2611 -0.1313
12141TIP3    H257915   0.074   2.324   5.685 -0.1719 -0.6065  0.5693
12142TIP3   OH257916   2.545   0.341  11.988  0.3958 -0.8648 -0.1835
12142TIP3    H157917   2.485   0.274  12.020  0.1624 -0.6252 -0.1072
12142TIP3    H257918   2.499   0.380  11.913 -0.2550  0.3940  0.8367
12143TIP3   OH257919   0.380   4.228  12.355 -0.4659 -0.5640 -0.1865
12143TIP3    H157920   0.303   4.205  12.408 -1.2766 -1.4166 -1.6599
12143TIP3    H257921   0.354   4.310  12.312  1.6182  2.3552  3.4372
12144TIP3   OH257922   0.084   2.893   3.246  0.1654 -0.1223  0.3104
12144TIP3    H157923   0.066   2.930   3.332 -0.3891  0.4541 -0.0431
12144TIP3    H257924   0.000   2.896   3.200  0.6143  0.2968 -0.5103
12145TIP3   OH257925   1.302   3.262  12.476  0.9648  0.1982 -0.1552
12145TIP3    H157926   1.232   3.328  12.475  1.7753  1.0821 -0.2619
12145TIP3    H257927   1.304   3.230  12.566  0.9887  0.8049  0.0659
12146TIP3   OH257928   5.408   6.518  11.752  0.0144  0.3412  0.2550
12146TIP3    H157929   5.454   6.558  11.826  0.3910  2.7014 -1.1213
12146TIP3    H257930   5.478   6.484  11.696 -0.1467  0.3018  0.0767
12147TIP3   OH257931   0.849   2.205   6.219 -0.2283 -0.6294 -0.1829
12147TIP3    H157932   0.861   2.283   6.273 -0.7867 -0.8487  0.2676
12147TIP3    H257933   0.756   2.182   6.230 -0.2546 -0.8969 -0.9347
12148TIP3   OH257934   3.832   2.417  14.773 -0.0960  0.3606 -0.1919
12148TIP3    H157935   3.776   2.349  14.811  1.0814 -0.2338  0.5348
12148TIP3    H257936   3.915   2.372  14.756  0.5255  1.4957 -0.1914
12149TIP3   OH257937   3.067   3.089  15.010  0.4695 -0.0988 -0.5232
12149TIP3    H157938   3.038   3.023  14.947  0.4633  1.0089 -1.7289
12149TIP3    H257939   2.986   3.129  15.042  0.5130  0.3460 -0.9511
12150TIP3   OH257940   6.640   4.744   0.622  0.2057 -0.4571  0.7076
12150TIP3    H157941   6.611   4.658   0.590 -0.7098 -0.2654  1.0018
12150TIP3    H257942   6.691   4.780   0.550 -0.4448 -0.7245  0.1012
12151TIP3   OH257943   6.058   5.263  11.537  0.4711 -0.1764 -0.1203
12151TIP3    H157944   6.063   5.260  11.442  0.2367 -0.8185 -0.1207
12151TIP3    H257945   6.087   5.351  11.560  1.2248 -0.2542 -0.7349
12152TIP3   OH257946   2.328   5.929   5.985  0.4434 -0.0635 -0.0296
12152TIP3    H157947   2.292   5.857   5.933 -1.0146  0.6102 -0.0002
12152TIP3    H257948   2.328   6.004   5.925 -1.8899  0.8924  1.0344
12153TIP3   OH257949   1.464   4.265  13.422  0.9278 -0.6273 -0.8627
12153TIP3    H157950   1.386   4.209  13.431  1.8761 -1.8170  0.4089
12153TIP3    H257951   1.523   4.234  13.491  2.7973 -0.1967 -2.2076
12154TIP3   OH257952   3.037   0.573  15.056 -0.0278  0.3531 -0.3720
12154TIP3    H157953   2.992   0.594  15.137 -0.4708 -1.7486 -0.0224
12154TIP3    H257954   2.967   0.561  14.992  0.3175  2.0408 -1.1300
12155TIP3   OH257955   5.744   4.218   5.113 -0.2769 -0.4336 -0.3175
12155TIP3    H157956   5.830   4.176   5.118  0.2664  0.6644 -0.1721
12155TIP3    H257957   5.685   4.157   5.157  0.8108 -0.2424  1.5135
12156TIP3   OH257958   0.565   2.407   3.926  0.7111  0.5889 -0.2995
12156TIP3    H157959   0.559   2.496   3.960  0.9472  0.1805  0.8354
12156TIP3    H257960   0.505   2.406   3.850  2.4574  2.3494 -1.8011
12157TIP3   OH257961   3.221   0.466  14.323  0.3581 -0.2661  0.2287
12157TIP3    H157962   3.243   0.404  14.393  0.1541 -0.8093 -0.1818
12157TIP3    H257963   3.170   0.414  14.260 -0.4199  0.4831  0.2178
12158TIP3   OH257964   3.909   4.002   0.241  0.0595  0.2493 -0.4680
12158TIP3    H157965   3.938   3.948   0.315 -2.3067 -0.6452 -0.1122
12158TIP3    H257966   3.895   4.089   0.278  1.1138  0.4010 -0.4023
12159TIP3   OH257967   2.888   5.339   0.455 -0.7766  0.1471  0.2235
12159TIP3    H157968   2.797   5.361   0.432 -0.0708  2.1906 -0.8282
12159TIP3    H257969   2.932   5.424   0.462  1.1889 -0.8260  0.2225
12160TIP3   OH257970   3.822   2.250   3.538  0.5051 -0.2938 -1.1238
12160TIP3    H157971   3.804   2.288   3.452  4.2543  0.0722 -1.9298
12160TIP3    H257972   3.886   2.310   3.578  0.6172 -1.6816  0.9315
12161TIP3   OH257973   1.996   5.994   0.528 -0.2928 -0.4643  0.3352
12161TIP3    H157974   2.021   5.955   0.444  3.1207 -1.1522  1.4921
12161TIP3    H257975   1.918   5.945   0.555 -0.4310 -1.4186 -1.6129
12162TIP3   OH257976   3.224   3.913   5.946 -0.5608 -0.1451 -0.0961
12162TIP3    H157977   3.175   3.846   5.994 -0.8167  0.4513  0.5002
12162TIP3    H257978   3.229   3.987   6.007 -0.3905  0.4209 -0.7820
12163TIP3   OH257979   0.152   2.632   3.923  0.2339  0.2630  0.7189
12163TIP3    H157980   0.158   2.697   3.853 -1.2280  0.0182  0.3317
12163TIP3    H257981   0.058   2.622   3.938  0.4791 -0.8703  1.6083
12164TIP3   OH257982   4.750   3.755   2.576 -0.3774  0.1150  0.1453
12164TIP3    H157983   4.671   3.701   2.585 -1.9641  2.3235  0.0676
12164TIP3    H257984   4.758   3.772   2.482 -1.0799  1.6730  0.3502
12165TIP3   OH257985   6.168   1.513   0.142 -0.5209  0.0522  0.2877
12165TIP3    H157986   6.133   1.577   0.080  1.4768  1.0614  0.1211
12165TIP3    H257987   6.251   1.486   0.105  0.2359 -0.1125  1.9833
12166TIP3   OH257988   1.629   6.662  15.327  0.8808 -0.0320  0.5434
12166TIP3    H157989   1.607   6.583  15.376  1.2563 -0.1286  0.5574
12166TIP3    H257990   1.684   6.712  15.387  0.4853  0.3312  0.6090
12167TIP3   OH257991   0.788   5.777  13.606 -0.1949 -0.0896  0.4003
12167TIP3    H157992   0.829   5.864  13.606  1.5701 -0.8535 -0.3205
12167TIP3    H257993   0.744   5.770  13.690  0.9255  0.9441  1.1029
12168TIP3   OH257994   1.581   0.637  14.195 -0.0390  0.0196 -0.2609
12168TIP3    H157995   1.520   0.625  14.122 -0.0805  0.8585 -0.3677
12168TIP3    H257996   1.666   0.651  14.153  0.0809 -0.2895 -0.1256
12169TIP3   OH257997   4.797   3.194  11.832 -0.1263 -0.6499  0.7614
12169TIP3    H157998   4.879   3.195  11.881  0.7386  1.1966 -0.5948
12169TIP3    H257999   4.812   3.131  11.761 -0.3473 -1.2251  1.2192
12170TIP3   OH258000   3.933   0.926  14.477  0.6485  0.0472 -0.9807
12170TIP3    H158001   3.985   1.002  14.506 -1.0502  0.0227  2.7153
12170TIP3    H258002   3.843   0.958  14.476 -0.1268 -1.8572  0.8054
12171TIP3   OH258003   5.841   4.045  14.107 -0.4558  0.8092  0.9610
12171TIP3    H158004   5.749   4.040  14.132 -0.0607  0.0981  2.3407
12171TIP3    H258005   5.889   4.030  14.188  0.8839 -1.8179 -0.2224
12172TIP3   OH258006   2.693   4.845  13.445 -0.0257  0.5062  0.4913
12172TIP3    H158007   2.615   4.791  13.455  0.6358 -0.4517  0.6451
12172TIP3    H258008   2.689   4.907  13.518 -1.5954  1.7426 -0.5810
12173TIP3   OH258009   3.087   1.027   1.699  1.3679  0.6436  0.3481
12173TIP3    H158010   3.170   0.981   1.691 -0.0899 -2.0830 -0.3461
12173TIP3    H258011   3.104   1.114   1.662  3.1820 -0.8114 -2.6407
12174TIP3   OH258012   6.639   3.905  12.970 -0.3079 -0.5014 -0.5040
12174TIP3    H158013   6.587   3.886  12.892 -1.0022 -1.7582  0.2413
12174TIP3    H258014   6.729   3.914  12.937 -0.9116  1.4950 -1.7741
12175TIP3   OH258015   2.461   0.407   5.707 -0.0840 -0.7098 -0.2696
12175TIP3    H158016   2.467   0.334   5.768  0.0315  0.2180  0.8575
12175TIP3    H258017   2.552   0.423   5.680  0.1616  0.2913  1.0562
12176TIP3   OH258018   2.975   6.241   4.990 -0.1643  0.1933 -0.2165
12176TIP3    H158019   3.054   6.234   5.043 -0.8244  0.5680  0.8423
12176TIP3    H258020   2.990   6.182   4.916  0.5919 -0.6804  0.6170
12177TIP3   OH258021   1.535   5.967  11.745 -0.5063  0.6581 -0.4072
12177TIP3    H158022   1.449   5.935  11.718  0.3864 -1.1293 -1.3231
12177TIP3    H258023   1.569   6.013  11.669  0.0868 -0.2454 -0.6958
12178TIP3   OH258024   4.797   4.445   2.639 -0.9703 -0.2704 -0.2642
12178TIP3    H158025   4.789   4.418   2.731  2.7941 -0.3611  0.1721
12178TIP3    H258026   4.842   4.529   2.642  1.6675 -1.4856 -1.9904
12179TIP3   OH258027   3.054   0.322  12.638  0.2418  0.1433 -0.0014
12179TIP3    H158028   3.103   0.274  12.705 -0.5247 -1.1690 -0.3547
12179TIP3    H258029   3.071   0.275  12.557 -0.2839  0.6506 -0.4119
12180TIP3   OH258030   5.851   1.233  15.026  0.9913  0.0761  0.2451
12180TIP3    H158031   5.936   1.189  15.030  1.6763  0.9227 -2.6445
12180TIP3    H258032   5.851   1.279  14.942 -2.1722  0.4726  0.3185
12181TIP3   OH258033   5.041   0.219  16.712 -0.4228  0.1047  0.1006
12181TIP3    H158034   5.125   0.247  16.676 -0.0600  0.7104  1.3807
12181TIP3    H258035   5.039   0.124  16.699 -0.1366  0.2490 -1.1272
12182TIP3   OH258036   4.152   6.296  10.665 -0.1803  0.0665 -0.4107
12182TIP3    H158037   4.132   6.389  10.667  0.7621  0.2719 -0.1167
12182TIP3    H258038   4.081   6.254  10.713  1.2101  0.9893  2.7020
12183TIP3   OH258039   0.973   5.920  11.641  0.5266  0.5993  0.0231
12183TIP3    H158040   1.034   5.880  11.704  1.0349  0.5995 -0.4565
12183TIP3    H258041   0.933   5.845  11.596  0.0434  0.5956  0.4510
12184TIP3   OH258042   2.786   6.580   0.272  0.0233 -0.1069 -0.4384
12184TIP3    H158043   2.692   6.590   0.257 -0.0040  1.5534  0.6072
12184TIP3    H258044   2.826   6.649   0.219  0.6819 -0.8387 -0.9251
12185TIP3   OH258045   5.356   4.250   1.856  0.1301 -0.0053  0.5927
12185TIP3    H158046   5.284   4.203   1.899 -0.1885  1.0037  1.1898
12185TIP3    H258047   5.430   4.190   1.860 -1.3695 -2.4600 -2.8336
12186TIP3   OH258048   0.362   6.262  13.416  0.1546 -0.0902  0.5479
12186TIP3    H158049   0.324   6.309  13.490 -1.0555 -1.0788  0.5891
12186TIP3    H258050   0.396   6.331  13.359 -4.2194  1.1926 -0.8819
12187TIP3   OH258051   3.964   5.525   4.660  0.2098 -0.5241  0.6642
12187TIP3    H158052   3.957   5.444   4.711 -1.8427 -0.9559 -0.2153
12187TIP3    H258053   3.957   5.595   4.725 -0.2765 -1.0607  1.2107
12188TIP3   OH258054   0.805   2.893  11.264  0.0148 -0.6372 -0.1480
12188TIP3    H158055   0.711   2.886  11.248 -0.0027 -0.5682 -0.0762
12188TIP3    H258056   0.845   2.872  11.180 -0.0922  0.3785 -0.4639
12189TIP3   OH258057   4.977   3.497  15.303  0.0981 -0.1903 -0.1930
12189TIP3    H158058   4.920   3.529  15.373 -1.0938  0.0576 -1.2297
12189TIP3    H258059   5.040   3.568  15.290 -0.7116  0.5020 -0.4900
12190TIP3   OH258060   5.062   5.144   5.007  0.4470 -0.0410  0.7025
12190TIP3    H158061   5.088   5.112   5.093  3.1624 -0.6451 -0.2599
12190TIP3    H258062   5.036   5.065   4.959  0.8677  0.0242  0.3586
12191TIP3   OH258063   0.881   0.672  10.586  0.4111  0.0311  0.2511
12191TIP3    H158064   0.903   0.765  10.577  0.9116  0.0614  1.5480
12191TIP3    H258065   0.786   0.671  10.600  0.2877  0.2815 -0.5267
12192TIP3   OH258066   3.917   6.066  15.905  0.7048 -0.6973  0.3351
12192TIP3    H158067   4.008   6.093  15.920  1.6034 -2.4565 -1.4459
12192TIP3    H258068   3.882   6.132  15.844  0.4763  0.4543  1.6746
12193TIP3   OH258069   1.737   6.031  17.102 -0.5683  0.5871  0.1933
12193TIP3    H158070   1.773   5.942  17.101 -1.1929  0.3284 -0.3427
12193TIP3    H258071   1.685   6.037  17.022 -0.8168  1.3213  0.3982
12194TIP3   OH258072   5.711   5.419   4.196 -0.6215 -0.8639 -0.1698
12194TIP3    H158073   5.700   5.504   4.239  1.1763 -0.7711  0.1692
12194TIP3    H258074   5.718   5.356   4.268 -1.5076 -1.2589 -0.4147
12195TIP3   OH258075   1.484   1.337  14.180  0.2990  0.1422 -0.0181
12195TIP3    H158076   1.548   1.328  14.109  0.7416 -0.2893  0.4264
12195TIP3    H258077   1.400   1.349  14.135  0.7521  1.2085 -0.6042
12196TIP3   OH258078   0.521   2.375  14.708 -0.6100 -0.7380  0.1130
12196TIP3    H158079   0.582   2.384  14.635 -0.6069  1.8408  0.3576
12196TIP3    H258080   0.565   2.314  14.768  0.3187 -1.2806 -1.0744
12197TIP3   OH258081   5.629   6.262   5.490  0.2110 -0.1763  0.7027
12197TIP3    H158082   5.598   6.352   5.479  0.7842  0.1797  1.8158
12197TIP3    H258083   5.688   6.266   5.565  0.6136 -1.4008  0.4771
12198TIP3   OH258084   0.788   3.347   5.536  0.1343 -0.0353 -0.0390
12198TIP3    H158085   0.874   3.318   5.503  1.9748  0.9238  3.4746
12198TIP3    H258086   0.792   3.442   5.532 -1.4420  0.0201 -1.1947
12199TIP3   OH258087   0.837   0.747  13.428 -0.1320  0.2401  0.6014
12199TIP3    H158088   0.908   0.762  13.490  0.0743  1.9674 -0.0030
12199TIP3    H258089   0.848   0.656  13.401  0.7346 -0.0660  1.8793
12200TIP3   OH258090   3.269   3.775  10.794  0.5036  0.3799  0.3949
12200TIP3    H158091   3.214   3.701  10.769  1.0387 -0.1029  0.6130
12200TIP3    H258092   3.318   3.796  10.714  0.9275 -0.0233  0.5405
12201TIP3   OH258093   5.959   3.819  13.092  0.0664  0.7815  0.3843
12201TIP3    H158094   5.892   3.766  13.135 -0.6493  1.2022 -0.1899
12201TIP3    H258095   5.949   3.798  12.999  0.7534  0.8336  0.2979
12202TIP3   OH258096   0.757   3.326  11.168  0.5151  0.0400  0.1452
12202TIP3    H158097   0.724   3.410  11.137  1.8163 -0.0678 -1.6771
12202TIP3    H258098   0.707   3.309  11.248 -2.5768  0.6912 -1.4595
12203TIP3   OH258099   5.195   1.368  12.534 -0.3871  0.1354 -0.2003
12203TIP3    H158100   5.190   1.289  12.481  1.9441  0.7817 -1.5402
12203TIP3    H258101   5.217   1.437  12.472  1.1133  1.1832  1.4038
12204TIP3   OH258102   5.351   3.240   0.352  0.5541  0.6050 -0.6188
12204TIP3    H158103   5.405   3.318   0.367  0.4263  0.8341 -1.3404
12204TIP3    H258104   5.338   3.237   0.258 -1.4126  1.0325 -0.4010
12205TIP3   OH258105   4.797   3.732  16.448 -0.2066 -0.3742  0.7092
12205TIP3    H158106   4.715   3.770  16.479 -1.5769 -0.5718 -2.3409
12205TIP3    H258107   4.832   3.798  16.388 -0.1728 -1.8977 -0.9969
12206TIP3   OH258108   2.380   6.099  14.985  0.4818  0.2450 -0.0694
12206TIP3    H158109   2.369   6.160  15.058  1.7772  0.3601  0.0522
12206TIP3    H258110   2.435   6.029  15.020  2.4433  1.0747 -1.3206
12207TIP3   OH258111   1.747   0.784  14.035  0.0734 -0.2120 -0.2571
12207TIP3    H158112   1.702   0.784  13.950 -2.2617  0.5574  0.8960
12207TIP3    H258113   1.711   0.860  14.081  3.7805  1.4407  0.2446
12208TIP3   OH258114   6.784   0.272   5.570 -0.4156 -0.3109 -0.0288
12208TIP3    H158115   6.810   0.358   5.539  0.5096 -0.6624 -0.2571
12208TIP3    H258116   6.690   0.266   5.551 -0.7737  1.1111  1.1077
12209TIP3   OH258117   0.003   0.752  13.603  0.2636 -0.4384 -0.0375
12209TIP3    H158118   0.031   0.666  13.634  3.2456  0.8059  1.0074
12209TIP3    H258119   0.048   0.763  13.519 -2.6902 -1.1159 -1.8730
12210TIP3   OH258120   4.072   1.617  13.057 -0.3430 -0.0134 -0.0618
12210TIP3    H158121   4.101   1.660  12.976  0.6229 -0.3727  0.0779
12210TIP3    H258122   4.006   1.554  13.029 -1.3047  1.0724 -0.3486
12211TIP3   OH258123   6.564   5.570   3.545  0.4382 -0.3504  0.1123
12211TIP3    H158124   6.577   5.477   3.524 -1.2367 -0.1278 -2.3226
12211TIP3    H258125   6.555   5.613   3.460 -1.4949  1.6104  1.1974
12212TIP3   OH258126   4.858   0.234   4.342 -0.0555 -0.1374 -0.0329
12212TIP3    H158127   4.919   0.248   4.269 -0.1991 -1.0664 -0.3534
12212TIP3    H258128   4.894   0.285   4.414 -0.3136  1.4115 -0.9653
12213TIP3   OH258129   5.468   5.107  12.734  0.2427  0.0564  0.1708
12213TIP3    H158130   5.476   5.064  12.649 -1.9292  0.9189 -0.5269
12213TIP3    H258131   5.436   5.195  12.714  1.3414  0.8848  1.7904
12214TIP3   OH258132   4.475   0.440  13.537  0.1815  0.4110  0.1647
12214TIP3    H158133   4.470   0.441  13.441 -0.2200  1.6633  0.1872
12214TIP3    H258134   4.566   0.464  13.556  0.3840 -0.2703  0.1090
12215TIP3   OH258135   4.402   0.674  11.772  0.2508 -0.4403  0.1177
12215TIP3    H158136   4.322   0.697  11.726  0.7295 -0.7249 -0.8829
12215TIP3    H258137   4.377   0.603  11.831 -0.1239 -0.8607 -0.5467
12216TIP3   OH258138   5.562   6.200   2.709  0.0285 -0.5262  0.1256
12216TIP3    H158139   5.482   6.234   2.749 -0.0147 -0.3659 -0.0894
12216TIP3    H258140   5.532   6.128   2.653  0.0047 -0.3296 -0.1190
12217TIP3   OH258141   1.293   2.108  13.065  0.3186 -0.6598  0.9479
12217TIP3    H158142   1.213   2.148  13.099  0.5479  0.5042  0.1727
12217TIP3    H258143   1.303   2.027  13.115  0.3077  0.6727  3.2245
12218TIP3   OH258144   0.571   1.769  11.014 -0.0579  0.6410  0.4971
12218TIP3    H158145   0.581   1.697  10.952 -1.3515  0.9420 -0.0897
12218TIP3    H258146   0.537   1.728  11.094 -0.5451  0.5564  0.2503
12219TIP3   OH258147   0.534   3.589  12.265 -0.6496 -0.2396  0.2589
12219TIP3    H158148   0.448   3.631  12.266 -0.3608  0.4035 -0.6414
12219TIP3    H258149   0.576   3.617  12.346 -0.7070  0.7194 -0.0334
12220TIP3   OH258150   5.543   0.375  12.787  0.4578  0.3446 -0.3213
12220TIP3    H158151   5.458   0.366  12.743  0.5084 -0.8182 -0.2111
12220TIP3    H258152   5.607   0.379  12.716  0.4287 -0.2364 -0.3836
12221TIP3   OH258153   3.142   5.099  12.928 -0.0840  0.2748 -0.4447
12221TIP3    H158154   3.164   5.029  12.867  0.4045 -0.2280  0.2861
12221TIP3    H258155   3.118   5.054  13.009 -2.9029  0.8238 -0.8761
12222TIP3   OH258156   5.603   3.569   6.385  0.2964  0.3758 -0.8722
12222TIP3    H158157   5.651   3.487   6.395  0.0954  0.2259 -1.1188
12222TIP3    H258158   5.669   3.637   6.398  0.1342  0.2035  1.0525
12223TIP3   OH258159   3.708   4.385   2.766 -0.0573  0.0645  0.5571
12223TIP3    H158160   3.784   4.328   2.750 -0.0697  0.6195 -1.9922
12223TIP3    H258161   3.698   4.385   2.861  1.7214 -1.8446  0.8371
12224TIP3   OH258162   0.261   3.547   2.597  0.0534 -0.8780  0.2230
12224TIP3    H158163   0.288   3.619   2.654 -1.1974 -0.2844  0.1088
12224TIP3    H258164   0.343   3.507   2.568  0.9392  1.8054 -1.3920
12225TIP3   OH258165   5.344   3.999  12.108 -0.4850 -0.5120  0.0234
12225TIP3    H158166   5.337   3.946  12.188  1.0827 -0.5831  0.1503
12225TIP3    H258167   5.434   4.031  12.109 -0.3190 -0.8119 -1.9113
12226TIP3   OH258168   0.647   0.833   3.331 -0.1900 -0.0136 -0.1592
12226TIP3    H158169   0.602   0.891   3.393 -0.1521  0.0411 -0.1825
12226TIP3    H258170   0.586   0.822   3.259  0.0733  0.5632 -0.4828
12227TIP3   OH258171   1.889   0.646   5.755 -0.0245 -0.2834 -0.0221
12227TIP3    H158172   1.876   0.552   5.766 -0.8722 -0.0689  0.8646
12227TIP3    H258173   1.967   0.653   5.700  0.7818 -1.4928  0.9172
12228TIP3   OH258174   3.124   3.994   4.209 -0.5555 -0.2030  0.1441
12228TIP3    H158175   3.146   3.919   4.264 -0.2347 -2.1307 -2.4559
12228TIP3    H258176   3.205   4.043   4.202  0.2112 -1.5864 -0.9830
12229TIP3   OH258177   3.863   1.925   4.076 -0.4249  0.5388  0.9439
12229TIP3    H158178   3.792   1.873   4.112  0.0336 -1.5456 -0.9460
12229TIP3    H258179   3.942   1.873   4.093  0.6405  2.5001  2.4430
12230TIP3   OH258180   4.646   1.959   3.440 -0.1464  0.3149  0.7929
12230TIP3    H158181   4.693   2.007   3.508  0.9688 -0.2210  0.4265
12230TIP3    H258182   4.558   1.948   3.475  0.4399 -0.0726  2.2148
12231TIP3   OH258183   2.858   6.250  14.579 -0.4714  0.9966  0.5209
12231TIP3    H158184   2.781   6.195  14.565 -0.3396  1.5406 -3.1280
12231TIP3    H258185   2.931   6.189  14.584 -0.2197  0.5632 -4.2512
12232TIP3   OH258186   3.802   2.127  16.586 -0.0357  0.0149 -0.0774
12232TIP3    H158187   3.775   2.107  16.497 -2.9220  2.1135  0.1515
12232TIP3    H258188   3.809   2.042  16.629 -1.8161 -0.9469 -1.5213
12233TIP3   OH258189   5.345   2.140   0.371  0.4165  0.2621 -0.6853
12233TIP3    H158190   5.255   2.113   0.390  0.7364  0.1687  0.8091
12233TIP3    H258191   5.358   2.219   0.424  2.6700 -2.2566  2.9428
12234TIP3   OH258192   3.405   1.541   5.249  0.1606 -0.4317  0.1048
12234TIP3    H158193   3.467   1.496   5.307  0.2872  0.9545  1.1031
12234TIP3    H258194   3.432   1.516   5.161  1.7028 -0.4360  0.5520
12235TIP3   OH258195   0.559   2.597  13.928  0.0833 -0.7277 -0.1686
12235TIP3    H158196   0.518   2.624  13.845 -2.2346  0.6070  1.3069
12235TIP3    H258197   0.500   2.529  13.962 -0.3122  0.3909  1.4600
12236TIP3   OH258198   2.944   1.892  10.598 -0.1415 -0.2598  0.4486
12236TIP3    H158199   3.023   1.930  10.560  0.5370 -1.4587  0.6128
12236TIP3    H258200   2.944   1.924  10.688 -0.9853  1.4160 -0.0934
12237TIP3   OH258201   6.320   1.805   1.487 -0.0412 -0.8597 -0.4218
12237TIP3    H158202   6.358   1.833   1.404  1.5214 -0.8521  0.2478
12237TIP3    H258203   6.322   1.710   1.484  1.3350 -0.8763  0.1287
12238TIP3   OH258204   6.150   6.516  14.238  0.6708 -0.5919  0.1765
12238TIP3    H158205   6.109   6.430  14.242  0.7718 -0.6982 -0.8838
12238TIP3    H258206   6.093   6.567  14.180  0.8439 -0.0717  0.4530
12239TIP3   OH258207   1.018   3.627   0.285 -0.5017  0.1390 -0.3159
12239TIP3    H158208   1.008   3.604   0.377 -2.1716  0.1539 -0.4643
12239TIP3    H258209   0.936   3.599   0.243  0.5028 -0.5278 -1.9515
12240TIP3   OH258210   3.260   6.145  10.755 -0.2754 -0.3036  0.2786
12240TIP3    H158211   3.335   6.094  10.722 -0.5799 -0.0687 -0.8066
12240TIP3    H258212   3.295   6.233  10.766 -0.0953 -0.4446  0.9078
12241TIP3   OH258213   5.506   5.728   3.722 -0.1820 -0.4505  0.3914
12241TIP3    H158214   5.470   5.780   3.650  0.6984 -0.5874 -0.1713
12241TIP3    H258215   5.449   5.747   3.796 -0.6818  0.2586 -0.1540
12242TIP3   OH258216   6.359   5.334   4.961 -0.6189 -0.1114  0.4456
12242TIP3    H158217   6.340   5.253   5.008  1.0635 -0.9058 -0.1604
12242TIP3    H258218   6.454   5.336   4.954 -0.6980  1.2732 -0.6875
12243TIP3   OH258219   3.392   3.280  16.327 -0.5182  0.7197  0.0637
12243TIP3    H158220   3.320   3.314  16.274  0.5044  1.5613 -0.8316
12243TIP3    H258221   3.471   3.303  16.278  0.3664 -0.2983  0.9528
12244TIP3   OH258222   3.838   3.924   4.156 -0.0886 -0.3057 -0.5771
12244TIP3    H158223   3.782   3.982   4.208  0.7813 -0.0801  0.1222
12244TIP3    H258224   3.820   3.836   4.191  1.1736 -0.0536  0.7553
12245TIP3   OH258225   1.565   3.329   1.885  0.2853 -0.3107  0.3249
12245TIP3    H158226   1.614   3.316   1.967  1.0552 -0.2766 -0.1147
12245TIP3    H258227   1.566   3.242   1.844 -1.2244 -0.6424  0.9432
12246TIP3   OH258228   0.453   0.611   2.494 -0.3342 -0.2998  0.4209
12246TIP3    H158229   0.378   0.632   2.437  0.2027  1.4930  0.3293
12246TIP3    H258230   0.520   0.674   2.469  0.6416 -0.8355  1.6322
12247TIP3   OH258231   5.665   0.238   4.540  0.1717 -0.1441 -0.5534
12247TIP3    H158232   5.688   0.330   4.546  1.6478 -0.4455 -0.9379
12247TIP3    H258233   5.746   0.192   4.564 -0.4352 -1.3247 -0.6868
12248TIP3   OH258234   6.689   5.122  14.257  0.1347  0.1146  0.1597
12248TIP3    H158235   6.781   5.136  14.236  0.5470  0.4558  1.9679
12248TIP3    H258236   6.690   5.064  14.333 -1.2280 -1.2274 -0.7792
12249TIP3   OH258237   6.220   3.232  15.433 -0.3643  0.1907 -0.3242
12249TIP3    H158238   6.221   3.143  15.469  0.2420  0.3336  0.0296
12249TIP3    H258239   6.155   3.229  15.363  1.7823 -1.3906 -2.4222
12250TIP3   OH258240   0.091   3.051  16.512 -0.0904 -0.4027 -0.0404
12250TIP3    H158241   0.111   2.974  16.564  1.3619 -0.7355 -1.0329
12250TIP3    H258242   0.017   3.024  16.456  0.7402 -1.2762 -0.7510
12251TIP3   OH258243   1.273   0.623  14.272  0.4507  0.4830 -0.1536
12251TIP3    H158244   1.317   0.668  14.201  1.9817 -0.9050 -0.1529
12251TIP3    H258245   1.277   0.530  14.248 -2.7958  0.2724 -0.2863
12252TIP3   OH258246   3.586   1.540  12.246  0.7413 -0.7961 -0.0256
12252TIP3    H158247   3.620   1.629  12.233  0.3733 -0.2100  2.4065
12252TIP3    H258248   3.544   1.518  12.163  0.2747  1.5615 -0.5075
12253TIP3   OH258249   6.394   6.614  14.123  0.1077  0.6485 -0.1111
12253TIP3    H158250   6.308   6.571  14.123 -0.3657  1.4178 -2.4978
12253TIP3    H258251   6.414   6.628  14.216 -3.0695  1.7923  0.5328
12254TIP3   OH258252   6.469   3.516   0.959 -0.2254 -0.0721  0.0662
12254TIP3    H158253   6.492   3.546   0.872  0.1875  0.1546  0.2518
12254TIP3    H258254   6.433   3.593   1.003 -0.7776 -0.2772 -0.0263
12255TIP3   OH258255   4.197   1.070   1.813  0.1150  0.4455 -0.2820
12255TIP3    H158256   4.220   1.001   1.752  1.8244 -0.6328  1.4689
12255TIP3    H258257   4.173   1.145   1.758  2.3661 -0.2051 -2.2732
12256TIP3   OH258258   6.763   6.253   3.201  0.2649  0.2378 -0.0431
12256TIP3    H158259   6.711   6.182   3.240 -0.5981  0.5760 -0.5408
12256TIP3    H258260   6.848   6.214   3.184  0.4830 -0.0861  1.6152
12257TIP3   OH258261   2.193   4.027  12.043  0.3840  0.2364 -0.5094
12257TIP3    H158262   2.143   4.089  11.990 -0.2541  0.6592  0.5558
12257TIP3    H258263   2.269   4.076  12.073 -0.1515  0.5379  0.3826
12258TIP3   OH258264   3.975   1.318  15.256  0.1182 -0.2380  0.1814
12258TIP3    H158265   3.998   1.262  15.329 -0.3562 -0.6127  0.0457
12258TIP3    H258266   4.038   1.296  15.187  0.8535  0.4354  0.6197
12259TIP3   OH258267   2.469   2.340   4.527  0.0198 -0.1987  0.1283
12259TIP3    H158268   2.482   2.261   4.473  1.0463 -1.9379  2.6814
12259TIP3    H258269   2.376   2.339   4.548  0.1208 -1.1391  0.6252
12260TIP3   OH258270   4.157   6.580   0.741 -0.4185 -0.0558  0.4532
12260TIP3    H158271   4.218   6.568   0.669 -0.3432  0.6992  0.3830
12260TIP3    H258272   4.184   6.662   0.782 -1.6809  0.5496  0.1250
12261TIP3   OH258273   5.776   3.588   6.049  0.4163 -0.1340  0.0414
12261TIP3    H158274   5.827   3.565   6.127  0.3929  1.3278  0.5300
12261TIP3    H258275   5.824   3.662   6.011 -0.0609 -0.2672 -0.8263
12262TIP3   OH258276   3.104   0.374   1.238  0.2860  0.7148 -0.0733
12262TIP3    H158277   3.039   0.392   1.305 -1.4022 -0.3859 -1.3229
12262TIP3    H258278   3.091   0.442   1.172  0.2719  0.4009 -0.4017
12263TIP3   OH258279   5.751   1.526   5.588 -0.4899 -0.2217  0.1708
12263TIP3    H158280   5.816   1.560   5.649  0.3674 -0.3962 -0.6323
12263TIP3    H258281   5.675   1.582   5.601  0.3181  0.9220  0.0870
12264TIP3   OH258282   3.009   5.961  11.512  0.2031 -0.1693 -0.0722
12264TIP3    H158283   2.965   5.888  11.468  1.4399 -0.6876 -0.5160
12264TIP3    H258284   3.058   6.005  11.442  1.0892 -0.1622  0.5348
12265TIP3   OH258285   6.329   1.474   5.339 -0.0999 -0.0752 -0.1827
12265TIP3    H158286   6.257   1.454   5.399 -1.6075  1.2730 -1.4238
12265TIP3    H258287   6.371   1.551   5.376  1.0605 -1.1407  0.7928
12266TIP3   OH258288   4.807   6.741   2.720  0.0403  0.1096 -0.0906
12266TIP3    H158289   4.808   6.749   2.815  0.4505  0.6321 -0.1341
12266TIP3    H258290   4.766   6.822   2.689  0.1385  0.0571 -0.3658
12267TIP3   OH258291   3.748   0.947  11.172 -0.5608 -0.0574  0.0731
12267TIP3    H158292   3.657   0.920  11.190 -0.6436 -1.6457 -2.2466
12267TIP3    H258293   3.747   1.042  11.181 -2.8165  0.1188 -1.1270
12268TIP3   OH258294   3.538   2.284  14.187  0.2667  0.5421  1.0204
12268TIP3    H158295   3.504   2.367  14.154 -2.2819 -0.7831  0.0909
12268TIP3    H258296   3.499   2.275  14.274  0.0647  0.0525  0.8823
12269TIP3   OH258297   2.214   4.013  16.955 -0.2084  0.3990 -0.0259
12269TIP3    H158298   2.223   4.046  16.866 -0.9129 -0.1064 -0.2909
12269TIP3    H258299   2.141   4.062  16.991 -1.2079 -0.7675 -0.3936
12270TIP3   OH258300   4.826   2.577   3.331 -0.6526  0.0089  1.0026
12270TIP3    H158301   4.912   2.579   3.373 -1.1012 -0.3564  1.9919
12270TIP3    H258302   4.781   2.654   3.366 -0.4394  0.6943 -0.1885
12271TIP3   OH258303   5.904   1.503   2.557 -0.2153 -0.4743  0.3025
12271TIP3    H158304   5.903   1.412   2.531  1.9820 -0.1578 -1.1264
12271TIP3    H258305   5.994   1.531   2.545 -0.0190  1.0494  3.8263
12272TIP3   OH258306   0.101   3.755  15.875 -0.5117 -0.1052  0.1471
12272TIP3    H158307   0.034   3.784  15.937 -1.3205 -0.2445 -0.6469
12272TIP3    H258308   0.138   3.836  15.840 -0.1398 -0.0276  0.7188
12273TIP3   OH258309   1.193   3.207  15.264 -0.3800 -0.3625 -0.4634
12273TIP3    H158310   1.111   3.220  15.311 -0.0469  1.5247 -0.3234
12273TIP3    H258311   1.213   3.114  15.276 -1.6966 -0.5227  0.8097
12274TIP3   OH258312   1.783   3.803   0.809  0.1371 -0.9512  0.0036
12274TIP3    H158313   1.871   3.784   0.842  0.0820  0.0897  0.8133
12274TIP3    H258314   1.725   3.789   0.884 -0.1134  0.4315  0.1063
12275TIP3   OH258315   1.656   3.629  17.097 -0.0286  0.4316 -0.5828
12275TIP3    H158316   1.718   3.643  17.026 -0.9913 -0.3099 -1.6194
12275TIP3    H258317   1.576   3.672  17.067  0.6713  3.8163  1.9424
12276TIP3   OH258318   4.267   6.203  16.459  0.2217 -0.0382  0.2348
12276TIP3    H158319   4.268   6.125  16.513  1.3403 -0.4507 -0.3491
12276TIP3    H258320   4.308   6.176  16.377  1.9739  1.4887  0.5373
12277TIP3   OH258321   4.561   1.536   0.285  0.3452  0.3661  0.2057
12277TIP3    H158322   4.586   1.618   0.243 -1.2468  0.8692  0.1864
12277TIP3    H258323   4.566   1.470   0.215  3.5773 -0.0166  0.6580
12278TIP3   OH258324   3.571   2.542  16.456  0.1059  0.6326 -0.6794
12278TIP3    H158325   3.645   2.506  16.505 -1.2400 -0.8415  0.3675
12278TIP3    H258326   3.593   2.635  16.444  1.9457  0.3057 -0.1153
12279TIP3   OH258327   6.218   3.643   1.183  0.1121 -0.3943 -0.2097
12279TIP3    H158328   6.277   3.642   1.258 -1.0098  2.0372  0.7764
12279TIP3    H258329   6.145   3.586   1.208  0.6935 -1.2163 -0.3335
12280TIP3   OH258330   6.621   5.208   2.441 -0.0661 -0.4817  0.1437
12280TIP3    H158331   6.575   5.219   2.524 -0.0561  1.1294 -0.0342
12280TIP3    H258332   6.679   5.283   2.436  0.6547 -1.0849 -0.8827
12281TIP3   OH258333   1.280   5.938   5.000  0.3829 -0.1213  0.4389
12281TIP3    H158334   1.347   5.923   4.933 -1.0109 -0.4094 -0.9449
12281TIP3    H258335   1.298   5.872   5.067  0.8493 -0.9056 -0.4338
12282TIP3   OH258336   6.508   6.448   1.561  0.3207  0.1651  0.2613
12282TIP3    H158337   6.560   6.529   1.564  1.0497 -0.2394 -0.7630
12282TIP3    H258338   6.433   6.471   1.506 -0.6568  0.7689  1.7952
12283TIP3   OH258339   0.133   5.755   0.443 -0.6302  0.5060  0.4692
12283TIP3    H158340   0.215   5.735   0.397 -0.7521  1.0578 -0.0042
12283TIP3    H258341   0.116   5.677   0.495  0.9447  0.9239  1.7019
12284TIP3   OH258342   1.325   6.788   1.721 -0.3521 -0.7007  0.5226
12284TIP3    H158343   1.342   6.869   1.673 -2.0482 -1.0030 -0.6555
12284TIP3    H258344   1.381   6.723   1.678 -0.3594 -0.5431  0.2716
12285TIP3   OH258345   2.531   1.919   0.511  0.1652 -0.0920  0.8084
12285TIP3    H158346   2.486   1.850   0.462  2.0493 -2.0617  1.6905
12285TIP3    H258347   2.583   1.965   0.445 -0.4193 -0.1004  0.3391
12286TIP3   OH258348   4.342   5.492  14.896 -0.4463  0.2080  0.2631
12286TIP3    H158349   4.420   5.531  14.934 -1.2737  0.9650  1.2420
12286TIP3    H258350   4.280   5.484  14.969 -0.4335 -2.7523  0.0659
12287TIP3   OH258351   6.348   2.083  12.994  0.2039  0.4493 -0.4851
12287TIP3    H158352   6.358   1.988  12.999 -0.5573  0.4240  1.6538
12287TIP3    H258353   6.257   2.099  13.019  0.0197  1.7059 -1.8234
12288TIP3   OH258354   2.484   5.581   0.328  0.4427 -0.0106 -0.1502
12288TIP3    H158355   2.426   5.653   0.353 -0.4819 -0.5386 -0.7456
12288TIP3    H258356   2.559   5.590   0.386  0.5295  1.6802 -0.4730
12289TIP3   OH258357   4.127   0.262   1.386 -0.2612 -0.4898 -0.0256
12289TIP3    H158358   4.134   0.301   1.299  2.0152 -2.7738 -0.9948
12289TIP3    H258359   4.200   0.301   1.436 -0.1048 -0.9177  0.0861
12290TIP3   OH258360   1.326   3.107   2.937  0.2724  0.0410  0.0080
12290TIP3    H158361   1.232   3.090   2.935  0.4128 -0.7830  0.2888
12290TIP3    H258362   1.337   3.168   3.010  0.1275 -1.0433  0.9644
12291TIP3   OH258363   0.906   0.440   5.857  0.0287  0.4556 -0.1088
12291TIP3    H158364   0.986   0.436   5.805 -0.2813  2.5983 -0.8281
12291TIP3    H258365   0.936   0.443   5.948  0.8318  2.1269 -0.4012
12292TIP3   OH258366   3.068   1.024   2.023 -0.0279  0.2458  0.4999
12292TIP3    H158367   3.033   0.938   1.998  0.3275 -0.1991  1.4647
12292TIP3    H258368   3.056   1.079   1.946  1.9444 -1.2980 -0.9961
12293TIP3   OH258369   1.283   0.682   3.413 -0.4297 -0.4528  0.7982
12293TIP3    H158370   1.378   0.675   3.424  0.1016  0.4116 -2.3952
12293TIP3    H258371   1.252   0.592   3.416  0.5569 -0.7977  1.2328
12294TIP3   OH258372   4.016   5.306   4.791 -0.4937  0.0810  0.1406
12294TIP3    H158373   3.928   5.286   4.826 -1.1025  1.0567 -0.7727
12294TIP3    H258374   4.042   5.226   4.746 -1.4418  0.1499 -0.5747
12295TIP3   OH258375   3.775   1.698   4.204  0.0582 -0.1992 -0.0839
12295TIP3    H158376   3.842   1.668   4.265  0.4681 -1.5767 -1.1496
12295TIP3    H258377   3.745   1.618   4.160 -1.2110  0.5774 -0.6940
12296TIP3   OH258378   6.461   4.457  15.584 -0.5810  0.5692  0.2914
12296TIP3    H158379   6.510   4.427  15.508 -0.0069  3.4702 -0.6049
12296TIP3    H258380   6.477   4.551  15.588 -1.4719  0.7122  3.3963
12297TIP3   OH258381   4.291   6.829   6.202  0.4380 -0.2138 -0.0828
12297TIP3    H158382   4.333   6.808   6.119  1.8902  0.3823  0.4618
12297TIP3    H258383   4.241   6.751   6.224  0.5358 -0.6165 -1.2023
12298TIP3   OH258384   5.658   1.600   3.971 -0.8231 -0.1231  0.3547
12298TIP3    H158385   5.619   1.521   4.007  0.6413  0.1971  2.8848
12298TIP3    H258386   5.651   1.589   3.876 -0.4434 -3.4221  0.5777
12299TIP3   OH258387   6.807   0.737   4.271 -0.0164 -0.0928  0.0043
12299TIP3    H158388   6.878   0.684   4.307 -0.4058 -0.6695 -0.0441
12299TIP3    H258389   6.728   0.704   4.315 -0.2409  0.6107  0.1435
12300TIP3   OH258390   5.539   1.163  12.011 -0.2229  0.2693 -0.1437
12300TIP3    H158391   5.585   1.238  12.048  0.3012  0.0186 -0.2880
12300TIP3    H258392   5.480   1.202  11.945 -1.3027  0.7329  1.0489
12301TIP3   OH258393   0.681   1.341  16.597  0.4677  0.3790  0.0950
12301TIP3    H158394   0.600   1.304  16.562  2.1688 -1.1298 -2.6400
12301TIP3    H258395   0.653   1.414  16.652 -2.9932 -3.0391  3.5345
12302TIP3   OH258396   3.752   3.466  12.777  0.2982 -0.2990 -0.0662
12302TIP3    H158397   3.799   3.502  12.701  0.0595  0.5791  0.1843
12302TIP3    H258398   3.813   3.404  12.816 -0.0082 -1.6713 -1.6475
12303TIP3   OH258399   0.340   0.539   5.651 -0.0060 -0.2886 -0.2752
12303TIP3    H158400   0.259   0.551   5.702  1.3211 -1.7037  2.3759
12303TIP3    H258401   0.401   0.499   5.713  1.7412 -2.3039 -3.0856
12304TIP3   OH258402   2.695   4.634  12.062  0.3961 -0.9586  0.0232
12304TIP3    H158403   2.772   4.688  12.047  0.3422 -0.8650  0.0814
12304TIP3    H258404   2.721   4.575  12.133 -0.1512  0.2417  1.2842
12305TIP3   OH258405   6.402   2.693   1.419  0.3022 -0.4298 -0.0047
12305TIP3    H158406   6.475   2.714   1.477  0.6297 -0.8781 -0.2446
12305TIP3    H258407   6.444   2.657   1.340 -0.1809 -0.8209 -0.0880
12306TIP3   OH258408   6.056   6.062   6.102 -0.4534 -0.1825  0.4692
12306TIP3    H158409   6.146   6.092   6.117 -0.3549  0.4344 -1.1717
12306TIP3    H258410   6.066   5.975   6.065 -0.5844 -0.4791  1.1111
12307TIP3   OH258411   0.041   3.956  16.267  0.0167 -0.1219  0.5408
12307TIP3    H158412  -0.011   3.955  16.347 -0.3316  0.1735  0.3255
12307TIP3    H258413  -0.022   3.938  16.197  0.6337 -2.2489  0.4782
12308TIP3   OH258414   4.802   3.080   0.164  0.6182 -0.3471  0.2163
12308TIP3    H158415   4.726   3.123   0.125  0.5637  1.4810  2.1235
12308TIP3    H258416   4.779   2.987   0.167 -1.1383  0.0412 -0.1154
12309TIP3   OH258417   4.956   0.020  17.160  0.2881  0.1182 -0.2100
12309TIP3    H158418   4.910   0.033  17.242 -0.0884  0.1668 -0.4247
12309TIP3    H258419   4.975   0.108  17.128 -1.6323  0.1995 -1.3096
12310TIP3   OH258420   5.820   6.541  12.036 -0.1056 -0.6778  0.1856
12310TIP3    H158421   5.845   6.490  11.959 -0.8742 -0.7946  0.0056
12310TIP3    H258422   5.825   6.632  12.007  0.3689 -0.6887  0.2321
12311TIP3   OH258423   3.192   1.735  10.893 -0.8656  0.4937  0.4480
12311TIP3    H158424   3.134   1.785  10.835 -0.7401  0.6326  0.4417
12311TIP3    H258425   3.142   1.726  10.974 -1.2240 -0.0834  0.1742
12312TIP3   OH258426   6.006   4.065   0.119  0.5695  0.2248 -0.1381
12312TIP3    H158427   6.012   4.085   0.212 -2.0370  1.0031 -0.0566
12312TIP3    H258428   5.944   4.129   0.085 -3.1087 -3.4868 -1.2086
12313TIP3   OH258429   0.128   3.108  14.208  0.1895 -0.3164 -0.2664
12313TIP3    H158430   0.121   3.019  14.176  1.2650 -0.0548 -1.3174
12313TIP3    H258431   0.189   3.103  14.282  1.6283 -0.2362 -1.4071
12314TIP3   OH258432   0.390   0.167   3.210 -0.6757 -0.0488  0.0518
12314TIP3    H158433   0.354   0.090   3.253  1.2130 -0.4256  1.0463
12314TIP3    H258434   0.481   0.170   3.238 -0.0543  1.1730 -1.9016
12315TIP3   OH258435   4.202   4.089   0.362  0.0009  0.3342 -0.1425
12315TIP3    H158436   4.293   4.067   0.384 -0.2467  0.3560  1.0042
12315TIP3    H258437   4.208   4.144   0.284  0.8080 -1.7310 -1.6304
12316TIP3   OH258438   4.999   3.573   0.049  0.3710 -0.2647 -0.3756
12316TIP3    H158439   5.005   3.512   0.122 -0.0173  0.6180  0.4175
12316TIP3    H258440   4.984   3.518  -0.028  0.4177 -1.1827  0.2572
12317TIP3   OH258441   5.168   3.071  11.021 -0.0453  0.5690 -0.3250
12317TIP3    H158442   5.230   3.139  10.996  1.1064 -0.2364  0.2426
12317TIP3    H258443   5.208   2.990  10.990 -0.8996  0.0381 -0.0759
12318TIP3   OH258444   5.257   5.629   3.318 -0.2942 -0.1713  0.7257
12318TIP3    H158445   5.302   5.579   3.250 -0.3047 -0.0666  0.6414
12318TIP3    H258446   5.179   5.577   3.338  0.3217 -0.8142  1.5166
12319TIP3   OH258447   4.729   0.558   4.463  0.3161  0.4409 -0.3019
12319TIP3    H158448   4.713   0.625   4.529  0.9766  1.2026 -0.8904
12319TIP3    H258449   4.644   0.548   4.419 -0.6349 -1.3757  1.7661
12320TIP3   OH258450   5.718   3.850   3.079 -0.4636  0.3634 -0.1881
12320TIP3    H158451   5.696   3.802   2.999  2.2917  0.7534 -1.2884
12320TIP3    H258452   5.745   3.783   3.142 -0.9475  0.1794 -0.1733
12321TIP3   OH258453   5.536   2.923   1.725 -0.0418 -0.3433  0.5966
12321TIP3    H158454   5.480   2.881   1.661 -1.1065  0.6495  0.8541
12321TIP3    H258455   5.490   3.003   1.749  1.7037  0.7538  0.4635
12322TIP3   OH258456   1.310   2.918   5.376  0.0954 -0.5167  0.1823
12322TIP3    H158457   1.391   2.873   5.351  0.7369  1.2234 -1.0572
12322TIP3    H258458   1.324   3.009   5.351 -2.4374 -0.2320 -0.5162
12323TIP3   OH258459   4.354   1.495   2.465 -0.4933 -0.1370 -0.0933
12323TIP3    H158460   4.287   1.427   2.455 -0.8178  0.1497  0.1414
12323TIP3    H258461   4.395   1.475   2.549 -1.6125  0.8537  0.7140
12324TIP3   OH258462   2.133   6.732   1.788  0.5347 -0.1336 -0.4744
12324TIP3    H158463   2.087   6.760   1.708  0.6275 -1.7978 -1.1531
12324TIP3    H258464   2.220   6.708   1.758 -0.3130 -3.6964 -0.5190
12325TIP3   OH258465   0.275   3.416  12.415  0.2124 -0.1903 -0.1593
12325TIP3    H158466   0.340   3.487  12.412  0.0237  0.0057  0.3446
12325TIP3    H258467   0.229   3.430  12.497 -3.5451  2.4335 -2.3966
12326TIP3   OH258468   5.556   2.802   6.108 -0.6514 -0.0784 -0.0174
12326TIP3    H158469   5.593   2.890   6.107  1.8092 -0.9919 -1.7802
12326TIP3    H258470   5.509   2.795   6.025 -2.5014  0.1320  0.9631
12327TIP3   OH258471   4.098   1.605   4.656  0.5266  0.4878  0.0855
12327TIP3    H158472   4.151   1.684   4.643  1.0356  0.2636  0.7379
12327TIP3    H258473   4.076   1.606   4.749  0.6000 -0.1795  0.1125
12328TIP3   OH258474   3.648   3.888  16.696  0.2250  0.0751 -0.3003
12328TIP3    H158475   3.670   3.886  16.790  3.2500  0.7041 -0.9086
12328TIP3    H258476   3.672   3.801  16.664  1.4514  0.6096 -0.8936
12329TIP3   OH258477   0.427   5.079  15.025  0.4524 -0.6132  0.2227
12329TIP3    H158478   0.455   4.991  15.000 -2.6538 -1.4730 -0.6424
12329TIP3    H258479   0.447   5.084  15.119  2.3564 -1.4571 -0.0743
12330TIP3   OH258480   4.276   4.524   3.222  0.0601 -0.4551 -0.1443
12330TIP3    H158481   4.251   4.460   3.155 -0.3273  0.6263 -1.0598
12330TIP3    H258482   4.259   4.609   3.182  0.0109  0.2284  1.2687
12331TIP3   OH258483   2.482   1.477  17.147  0.3226  0.0602  0.9546
12331TIP3    H158484   2.440   1.399  17.112 -3.3182  2.3012 -0.2238
12331TIP3    H258485   2.527   1.516  17.072 -0.3049  0.5550  0.8351
12332TIP3   OH258486   2.272   6.166   5.837  0.1449  0.3975  0.2293
12332TIP3    H158487   2.274   6.254   5.876 -1.8664  0.6355 -0.1126
12332TIP3    H258488   2.345   6.165   5.776  1.2011  1.2498  1.4310
12333TIP3   OH258489   4.211   4.860  12.191 -0.1215 -0.1299 -0.3625
12333TIP3    H158490   4.270   4.934  12.178  1.5268 -1.3731 -0.3025
12333TIP3    H258491   4.189   4.830  12.103  1.6061 -1.3378 -0.4364
12334TIP3   OH258492   3.741   3.414   1.441 -0.5721  0.8438  0.1294
12334TIP3    H158493   3.744   3.385   1.350 -0.2617  0.7198  0.1759
12334TIP3    H258494   3.753   3.334   1.492  2.2202  1.2494  0.2448
12335TIP3   OH258495   1.007   5.987   4.979  0.3016  0.1949 -0.3460
12335TIP3    H158496   1.025   6.067   4.930  1.3891 -0.2396 -0.6870
12335TIP3    H258497   1.092   5.958   5.012 -0.3692  0.3192  1.6126
12336TIP3   OH258498   6.378   4.250  14.103  0.4369  0.5193  0.1879
12336TIP3    H158499   6.445   4.207  14.156 -0.9400  0.3045  1.8609
12336TIP3    H258500   6.382   4.207  14.018  1.0889 -0.8621  0.8934
12337TIP3   OH258501   3.153   3.695  12.438  0.2177  0.1770  0.3186
12337TIP3    H158502   3.240   3.657  12.421  0.3618  0.1888  1.0365
12337TIP3    H258503   3.143   3.692  12.533 -0.5822  0.1551  0.2404
12338TIP3   OH258504   3.143   4.079   4.555  0.2742  0.7097 -0.1330
12338TIP3    H158505   3.175   4.012   4.494  0.1158 -0.0825  0.6422
12338TIP3    H258506   3.198   4.069   4.632 -0.7036  0.4869  0.5468
12339TIP3   OH258507   4.895   2.131   5.078  0.1318  0.0772  0.1851
12339TIP3    H158508   4.978   2.165   5.045 -0.5225  0.9318 -0.6475
12339TIP3    H258509   4.892   2.040   5.047  0.5913  0.1460 -0.0686
12340TIP3   OH258510   4.152   4.925  16.040  0.1307 -0.7996 -0.5504
12340TIP3    H158511   4.084   4.912  16.106  0.0696  2.0595  0.0673
12340TIP3    H258512   4.108   4.911  15.956 -0.1569 -2.9852 -0.0837
12341TIP3   OH258513   2.262   0.254   3.237  0.2136 -0.0330 -0.1109
12341TIP3    H158514   2.216   0.287   3.160  0.5128 -1.0012 -0.7109
12341TIP3    H258515   2.243   0.319   3.305 -0.3643  0.6338 -0.8888
12342TIP3   OH258516   1.179   4.858   4.238 -0.3770  0.1539  0.7932
12342TIP3    H158517   1.160   4.804   4.162 -1.3798  2.6032 -0.8220
12342TIP3    H258518   1.254   4.912   4.211 -2.2601  2.8097  0.4567
12343TIP3   OH258519   2.134   0.786   3.643 -0.1405 -0.2173 -0.4401
12343TIP3    H158520   2.139   0.800   3.738  0.3773  0.5471 -0.5676
12343TIP3    H258521   2.135   0.691   3.632 -1.0128 -0.3311  0.3582
12344TIP3   OH258522   3.071   5.945   2.976  0.0227  0.5071 -0.2184
12344TIP3    H158523   2.998   5.902   3.020 -0.7982 -0.2754 -2.2452
12344TIP3    H258524   3.149   5.911   3.020 -0.6142 -2.6160 -1.2637
12345TIP3   OH258525   6.509   0.314  11.516 -0.1439 -0.1031 -0.2922
12345TIP3    H158526   6.495   0.362  11.435  0.7978  0.5925 -0.0656
12345TIP3    H258527   6.603   0.296  11.518 -0.5700 -2.8135 -0.8019
12346TIP3   OH258528   0.658   3.600  13.815 -0.2341 -0.0028 -0.4659
12346TIP3    H158529   0.610   3.682  13.804 -0.9259 -0.2329  0.7424
12346TIP3    H258530   0.591   3.532  13.815  0.1472 -0.3979  0.4431
12347TIP3   OH258531   4.345   5.981  15.497  0.6266  0.7316 -0.0544
12347TIP3    H158532   4.313   6.042  15.431 -1.1307 -0.1637 -0.0719
12347TIP3    H258533   4.375   5.905  15.447 -1.6304 -0.3675  0.1457
12348TIP3   OH258534   5.137   5.709  13.414  0.1520  0.1532 -0.5464
12348TIP3    H158535   5.199   5.636  13.420 -0.8256 -0.6816 -0.2393
12348TIP3    H258536   5.093   5.696  13.330 -0.4929 -0.0052 -0.1914
12349TIP3   OH258537   5.183   4.520   5.528 -0.5829 -0.2150 -0.0040
12349TIP3    H158538   5.225   4.527   5.442  1.4360 -1.9359  0.7508
12349TIP3    H258539   5.228   4.586   5.581 -1.0305  0.0549  0.0480
12350TIP3   OH258540   0.904   4.779   0.641 -0.3304 -0.4402 -0.1870
12350TIP3    H158541   0.811   4.758   0.631 -0.1421 -0.7815 -1.3935
12350TIP3    H258542   0.943   4.754   0.558  0.4881  1.5833 -0.4822
12351TIP3   OH258543   6.314   3.317  12.865 -0.4972 -0.0673 -0.2614
12351TIP3    H158544   6.337   3.347  12.953 -1.1644 -0.5303  0.0865
12351TIP3    H258545   6.269   3.233  12.880 -1.1779  0.1554 -0.9970
12352TIP3   OH258546   5.774   3.046   0.368 -0.4917  0.4515  0.1133
12352TIP3    H158547   5.756   2.965   0.320 -1.5041  0.4810  0.4290
12352TIP3    H258548   5.736   3.032   0.454  2.3343 -0.0789  1.3932
12353TIP3   OH258549   0.001   1.062   2.438 -0.3105 -0.3060  0.4517
12353TIP3    H158550   0.027   1.110   2.359  0.3145 -1.5557 -0.1236
12353TIP3    H258551   0.012   1.125   2.509 -0.0140  0.5619 -0.3389
12354TIP3   OH258552   6.815   1.937   0.300 -0.5928 -0.1741 -0.0108
12354TIP3    H158553   6.746   1.933   0.366 -1.8592  1.0847 -1.1954
12354TIP3    H258554   6.778   1.991   0.230 -0.2157 -3.2469 -2.8105
12355TIP3   OH258555   0.131   2.231   5.853  0.7150  0.5828  0.0565
12355TIP3    H158556   0.193   2.180   5.800 -1.0863 -0.3795 -1.2067
12355TIP3    H258557   0.126   2.185   5.936 -0.0634 -0.7080 -0.6851
12356TIP3   OH258558   6.586   5.660   0.877 -0.0208  0.1162 -0.3653
12356TIP3    H158559   6.561   5.663   0.969  0.0809  0.4128 -0.3462
12356TIP3    H258560   6.672   5.703   0.874  0.3997 -0.7091 -0.4544
12357TIP3   OH258561   2.344   1.631   3.698  0.5318 -0.1437  0.2433
12357TIP3    H158562   2.340   1.690   3.622  0.8086 -0.1596  0.2133
12357TIP3    H258563   2.305   1.682   3.770  0.1018 -0.1978  0.0487
12358TIP3   OH258564   0.206   6.837  15.262 -0.0918  0.9526  0.3868
12358TIP3    H158565   0.136   6.871  15.317  0.0461  2.5798 -0.4032
12358TIP3    H258566   0.241   6.762  15.311 -1.6280  0.7969  1.3019
12359TIP3   OH258567   0.676   6.124   1.515  0.1741 -0.1474  0.0103
12359TIP3    H158568   0.726   6.141   1.594  2.5514 -0.0656 -1.4036
12359TIP3    H258569   0.619   6.201   1.505 -1.2897 -0.8366  2.3440
12360TIP3   OH258570   2.334   0.822   4.118 -1.1487  0.1269  0.3549
12360TIP3    H158571   2.346   0.739   4.073 -1.1778  0.5818 -0.5129
12360TIP3    H258572   2.240   0.838   4.116 -0.9580  1.3206 -1.6345
12361TIP3   OH258573   0.452   2.800   1.581 -0.0596 -0.1294 -0.4809
12361TIP3    H158574   0.382   2.734   1.580 -1.1366  0.8755  1.5457
12361TIP3    H258575   0.511   2.772   1.651  1.4504 -0.7958 -1.9707
12362TIP3   OH258576   6.606   4.833   5.589 -0.3063  0.5679 -0.0504
12362TIP3    H158577   6.667   4.894   5.548 -1.0430  0.9494 -0.5763
12362TIP3    H258578   6.550   4.802   5.518 -0.2896 -0.3200  0.3039
12363TIP3   OH258579   5.826   0.650  14.962  0.5158  0.0866  0.1749
12363TIP3    H158580   5.902   0.643  15.021  0.8515  0.4689 -0.1975
12363TIP3    H258581   5.815   0.745  14.951  1.3950  0.0262 -1.5448
12364TIP3   OH258582   5.593   2.799  14.049  0.5106 -0.5586  0.2478
12364TIP3    H158583   5.688   2.795  14.044  0.4163 -1.6352 -1.4502
12364TIP3    H258584   5.575   2.870  14.111  2.3817  1.3132 -1.2393
12365TIP3   OH258585   1.419   3.409  16.676  0.0976 -0.2016 -0.1116
12365TIP3    H158586   1.476   3.469  16.628 -0.3937  0.3315 -0.0414
12365TIP3    H258587   1.477   3.364  16.738  0.3674  0.6781  0.2884
12366TIP3   OH258588   4.614   1.951   0.909 -0.2229  0.0451  0.3071
12366TIP3    H158589   4.614   1.889   0.836  0.6452  0.6109 -0.2053
12366TIP3    H258590   4.554   1.914   0.973 -0.5239 -0.7821 -0.4351
12367TIP3   OH258591   2.626   4.944  16.769 -0.5015  0.1841  0.2519
12367TIP3    H158592   2.535   4.968  16.787 -0.9151 -0.1466 -1.2485
12367TIP3    H258593   2.669   5.027  16.747 -0.4455  0.3303  0.8915
12368TIP3   OH258594   3.134   1.638   2.219  0.2977  0.2420 -0.5563
12368TIP3    H158595   3.146   1.578   2.292  0.8466  0.7972 -0.1839
12368TIP3    H258596   3.218   1.638   2.174 -0.2270 -0.6055 -1.5978
12369TIP3   OH258597   5.642   6.563  11.163 -0.5935  0.1910  0.0183
12369TIP3    H158598   5.718   6.610  11.128 -1.8412  1.1142 -1.6338
12369TIP3    H258599   5.618   6.501  11.094 -1.7852  0.4559  0.1666
12370TIP3   OH258600   4.456   5.219   3.703 -0.6777 -0.3142  0.0206
12370TIP3    H158601   4.435   5.143   3.758  0.6355 -0.5247  0.2716
12370TIP3    H258602   4.534   5.193   3.655 -0.5423  0.6716 -0.3200
12371TIP3   OH258603   2.074   4.933  11.564 -0.8482 -0.4179 -0.0585
12371TIP3    H158604   2.153   4.974  11.527 -0.0668 -1.2003  0.6926
12371TIP3    H258605   2.006   5.000  11.555 -0.2084  0.1247 -1.1096
12372TIP3   OH258606   1.109   0.490  15.030 -0.1627 -0.5316  0.0230
12372TIP3    H158607   1.079   0.467  14.942 -1.2206 -3.4456  1.0383
12372TIP3    H258608   1.205   0.486  15.025 -0.1049  1.1947 -1.3665
12373TIP3   OH258609   4.791   2.954  10.370 -0.1599 -0.1433 -0.2523
12373TIP3    H158610   4.747   2.983  10.450  1.5703 -0.0081  0.7163
12373TIP3    H258611   4.736   2.987  10.299 -2.1197 -0.8679  0.8500
12374TIP3   OH258612   4.784   3.924   5.954 -0.2553  0.5967 -0.0138
12374TIP3    H158613   4.717   3.865   5.990  0.2189 -1.2016 -1.8944
12374TIP3    H258614   4.845   3.938   6.027 -0.7799 -0.6536  0.6976
12375TIP3   OH258615   3.577   1.092   3.749  0.7510 -0.3661  0.2219
12375TIP3    H158616   3.653   1.151   3.748 -0.4718  1.4075 -2.6966
12375TIP3    H258617   3.580   1.048   3.664 -0.6071 -1.4468  0.7072
12376TIP3   OH258618   0.493   1.080  12.901 -0.4371  0.0979  0.4837
12376TIP3    H158619   0.422   1.137  12.873  0.1273  0.8000  0.4371
12376TIP3    H258620   0.463   1.042  12.984 -0.7539  0.5938  0.5962
12377TIP3   OH258621   4.962   4.810   2.424  0.7832 -0.5466 -0.9458
12377TIP3    H158622   4.948   4.885   2.365  1.9614 -0.3527 -1.0046
12377TIP3    H258623   5.000   4.743   2.368  0.4761 -0.9087 -0.7185
12378TIP3   OH258624   0.836   1.677  11.682 -0.0734  0.4676  0.3305
12378TIP3    H158625   0.797   1.751  11.729 -0.4594  0.0127  0.7246
12378TIP3    H258626   0.763   1.636  11.636 -0.1680 -0.6494  1.4196
12379TIP3   OH258627   1.948   5.307   2.078 -0.1544  0.0376 -0.3227
12379TIP3    H158628   1.996   5.303   1.996 -1.6695 -0.8562 -1.2214
12379TIP3    H258629   1.867   5.259   2.060 -0.7905  0.3566  1.5131
12380TIP3   OH258630   1.124   2.029  10.768 -0.3506 -0.5250  0.5186
12380TIP3    H158631   1.193   1.963  10.761 -0.0853 -0.3679  1.4413
12380TIP3    H258632   1.074   2.020  10.688  1.6635  0.4229 -0.9292
12381TIP3   OH258633   5.357   4.455  14.108 -0.4312 -0.0718  0.2386
12381TIP3    H158634   5.328   4.367  14.086  0.2296 -0.4012  0.6488
12381TIP3    H258635   5.278   4.508  14.104 -0.7314 -0.5734 -0.5655
12382TIP3   OH258636   4.895   0.839   5.753  0.1537  0.2746 -0.3076
12382TIP3    H158637   4.916   0.748   5.778  0.8158  0.3643 -0.5225
12382TIP3    H258638   4.876   0.834   5.659 -1.0491  0.1576 -0.0738
12383TIP3   OH258639   2.336   4.808   4.964 -0.0674  0.2944  0.0117
12383TIP3    H158640   2.362   4.888   5.010  1.4428  0.2671 -0.7396
12383TIP3    H258641   2.272   4.767   5.023  0.1045  1.3900  1.0089
12384TIP3   OH258642   6.489   0.484  16.753 -0.5876  1.1469 -0.5808
12384TIP3    H158643   6.581   0.459  16.751 -0.9338 -0.9785  2.5570
12384TIP3    H258644   6.448   0.430  16.684 -0.0269 -0.9913  0.6738
12385TIP3   OH258645   0.956   0.967  13.145 -0.1930  0.0758  0.0658
12385TIP3    H158646   0.982   1.055  13.119 -0.2026  0.0048 -0.1884
12385TIP3    H258647   1.037   0.916  13.140 -0.5309 -0.3534 -1.6090
12386TIP3   OH258648   3.515   6.826   1.465  0.6454  0.1632 -0.2650
12386TIP3    H158649   3.528   6.879   1.543  0.4333  0.0448 -0.1476
12386TIP3    H258650   3.461   6.752   1.495  2.0578 -0.8479 -0.1290
12387TIP3   OH258651   0.360   2.920   0.756  0.4332 -0.0904 -0.6473
12387TIP3    H158652   0.335   2.828   0.755  0.8118 -0.2272  0.6511
12387TIP3    H258653   0.278   2.967   0.765  0.4100 -0.4476  1.5167
12388TIP3   OH258654   6.193   2.065  11.376  0.4848  0.0590  0.0517
12388TIP3    H158655   6.187   2.065  11.472  0.6288 -3.5146  0.1911
12388TIP3    H258656   6.131   1.998  11.348  0.3506  1.1020 -2.4321
12389TIP3   OH258657   0.969   5.468  14.115 -0.5019 -0.3958 -0.2507
12389TIP3    H158658   0.915   5.522  14.173  1.4789  0.3191  1.0318
12389TIP3    H258659   1.016   5.410  14.173  2.6095  1.2711 -0.8764
12390TIP3   OH258660   2.743   6.828  16.846 -0.1640  0.3813  0.2044
12390TIP3    H158661   2.654   6.827  16.811  0.3730 -0.4765 -1.2439
12390TIP3    H258662   2.756   6.742  16.884  0.2571  0.2581 -0.2014
12391TIP3   OH258663   2.430   0.126  13.710 -0.7188 -0.4725 -0.1632
12391TIP3    H158664   2.468   0.054  13.659 -0.7031 -0.4105 -0.2407
12391TIP3    H258665   2.413   0.089  13.796  0.2264 -0.3041  0.1099
12392TIP3   OH258666   5.353   0.427   5.123  0.4502  0.3420 -0.1592
12392TIP3    H158667   5.372   0.345   5.077  0.7273  0.4366 -0.2133
12392TIP3    H258668   5.439   0.461   5.148  0.2783 -0.1281  1.1661
12393TIP3   OH258669   0.749   2.740  10.790  0.4645  0.3176  0.3728
12393TIP3    H158670   0.688   2.700  10.852  0.4043  0.6464  0.5284
12393TIP3    H258671   0.734   2.692  10.708 -2.4284  2.5161 -0.5753
12394TIP3   OH258672   3.522   6.739  17.088  0.2697 -0.2808  0.4940
12394TIP3    H158673   3.614   6.749  17.063  0.9441 -1.3141  2.3939
12394TIP3    H258674   3.522   6.745  17.183 -1.4797 -1.4628  0.6140
12395TIP3   OH258675   5.858   2.626  11.592  0.3545 -0.1549  0.0774
12395TIP3    H158676   5.777   2.576  11.586 -0.5361  0.9894  1.8863
12395TIP3    H258677   5.832   2.717  11.576  1.6762  0.0007 -1.5036
12396TIP3   OH258678   6.508   5.121  13.078  0.5714 -0.3755  0.1190
12396TIP3    H158679   6.532   5.041  13.032 -1.9067 -0.7949 -0.5839
12396TIP3    H258680   6.475   5.091  13.163 -1.4796 -0.2845 -0.5894
12397TIP3   OH258681   6.821   0.470   5.122 -0.1787  1.1691  0.3231
12397TIP3    H158682   6.781   0.483   5.208 -1.8982 -0.7723 -0.1024
12397TIP3    H258683   6.914   0.458   5.141 -0.7301 -0.9762  2.1859
12398TIP3   OH258684   1.639   5.201  11.312  0.4107 -0.0574 -0.9937
12398TIP3    H158685   1.593   5.252  11.378 -1.0245 -0.1086 -1.9111
12398TIP3    H258686   1.713   5.257  11.287  1.2320 -0.2196  0.9024
12399TIP3   OH258687   6.371   2.537   5.309 -0.0019  0.3641  0.3617
12399TIP3    H158688   6.331   2.466   5.259 -0.8868  1.2131 -0.1881
12399TIP3    H258689   6.460   2.508   5.326  0.1306 -0.2325 -1.1718
12400TIP3   OH258690   2.841   3.955   2.923  0.4570  0.0407 -0.0376
12400TIP3    H158691   2.772   3.979   2.986 -2.0831  0.0270 -2.6070
12400TIP3    H258692   2.794   3.914   2.851  2.9397  1.6285 -2.7833
12401TIP3   OH258693   6.826   5.523   1.227  0.0903  0.1106 -0.0294
12401TIP3    H158694   6.754   5.585   1.215 -0.0372 -0.1186 -0.4758
12401TIP3    H258695   6.902   5.569   1.193 -0.0084  0.0129 -0.3815
12402TIP3   OH258696   5.608   6.558  10.886  0.2461  0.0149  0.4629
12402TIP3    H158697   5.611   6.482  10.828 -0.5169 -0.0751  0.5326
12402TIP3    H258698   5.635   6.632  10.831  1.8141 -0.4065  0.6048
12403TIP3   OH258699   6.621   4.424   5.570  0.3840 -0.0533  0.1593
12403TIP3    H158700   6.691   4.454   5.629  1.6685 -0.3296 -1.1472
12403TIP3    H258701   6.664   4.417   5.485 -1.4721  0.5440 -0.8698
12404TIP3   OH258702   5.839   0.480  10.931  0.3158  0.5885  0.2933
12404TIP3    H158703   5.787   0.528  10.867 -1.3625  1.7488  2.3619
12404TIP3    H258704   5.855   0.544  11.001  0.4047 -1.1045  1.8978
12405TIP3   OH258705   6.248   1.150  11.634  0.3810 -0.1667  0.2540
12405TIP3    H158706   6.176   1.194  11.681  0.2385 -1.0374  0.8611
12405TIP3    H258707   6.264   1.206  11.558 -1.5335 -0.3985 -0.3758
12406TIP3   OH258708   3.682   1.400   4.268 -0.6177  0.6125 -0.6114
12406TIP3    H158709   3.657   1.365   4.353 -1.7975  0.0261 -1.1621
12406TIP3    H258710   3.715   1.324   4.220  1.7464  1.2632 -0.1174
12407TIP3   OH258711   4.837   4.994   0.864 -0.1942  0.0009 -0.1702
12407TIP3    H158712   4.925   4.976   0.830  0.9335  4.0859 -0.0222
12407TIP3    H258713   4.853   5.039   0.947 -2.3618  1.4173 -0.4584
12408TIP3   OH258714   4.752   3.551  12.050 -0.5440 -0.2915 -0.4955
12408TIP3    H158715   4.760   3.573  11.957  0.3989 -0.6263 -0.4951
12408TIP3    H258716   4.838   3.519  12.075 -0.9588 -0.7683  0.3537
12409TIP3   OH258717   1.431   4.310   2.726  0.0037  0.2441  0.5565
12409TIP3    H158718   1.447   4.216   2.738 -0.6099  0.0636  0.0157
12409TIP3    H258719   1.337   4.316   2.708  0.0555  0.9569  0.5045
12410TIP3   OH258720   1.194   1.854   1.439  0.0030 -0.3974  0.6002
12410TIP3    H158721   1.158   1.768   1.415  1.6612 -1.3937  1.4637
12410TIP3    H258722   1.176   1.863   1.532 -1.9931  1.1922  0.1321
12411TIP3   OH258723   6.624   4.528  15.365 -0.4804 -0.3520 -0.0184
12411TIP3    H158724   6.666   4.611  15.342  0.9350 -0.1499  2.8868
12411TIP3    H258725   6.549   4.522  15.306  0.1934  2.2701 -1.2825
12412TIP3   OH258726   4.753   2.085  13.974  0.0175 -0.2718 -0.6445
12412TIP3    H158727   4.809   2.135  13.915 -2.2111  1.9696 -1.0474
12412TIP3    H258728   4.664   2.102  13.943 -1.5319  2.5876  4.2746
12413TIP3   OH258729   0.438   1.657   0.773 -0.9380  0.1258  0.3350
12413TIP3    H158730   0.477   1.629   0.690  0.7512 -1.2329  1.4999
12413TIP3    H258731   0.461   1.750   0.780  0.8079 -0.2515  0.2263
12414TIP3   OH258732   6.283   6.825  13.291  0.8915  0.1705 -0.1541
12414TIP3    H158733   6.235   6.745  13.269  0.9178 -0.1690  0.9483
12414TIP3    H258734   6.254   6.889  13.226  0.0918 -0.4465 -0.4266
12415TIP3   OH258735   1.125   2.618   1.665  0.3799  0.3330  0.0039
12415TIP3    H158736   1.041   2.657   1.689  0.1252 -0.9934  1.4280
12415TIP3    H258737   1.102   2.535   1.623  0.9532  0.9385 -1.5878
12416TIP3   OH258738   5.398   2.060   4.041  0.0509 -0.7977  0.3768
12416TIP3    H158739   5.407   2.125   3.972  0.5506 -0.4694  0.7490
12416TIP3    H258740   5.422   1.977   3.999 -0.7724 -0.7807 -0.1468
12417TIP3   OH258741   4.895   0.715  16.245  0.5724 -0.2486 -0.0138
12417TIP3    H158742   4.965   0.653  16.228  0.9093  0.3168 -0.7651
12417TIP3    H258743   4.889   0.719  16.340  0.9533 -0.9653  0.0514
12418TIP3   OH258744   1.221   2.561  15.327  0.4266 -0.0743  0.4903
12418TIP3    H158745   1.274   2.500  15.276 -1.8062 -2.5162  0.8366
12418TIP3    H258746   1.131   2.528  15.317 -0.5955  1.8243  2.5955
12419TIP3   OH258747   1.673   4.943  17.021 -0.6914  0.1368  0.2504
12419TIP3    H158748   1.640   4.861  17.058  0.2446 -0.2451  0.2663
12419TIP3    H258749   1.662   5.007  17.091 -2.8720  0.4211 -0.2706
12420TIP3   OH258750   4.967   6.546   6.077 -0.0444  0.3836  0.2296
12420TIP3    H158751   4.968   6.577   6.167 -2.4456  1.2708  0.0286
12420TIP3    H258752   4.953   6.452   6.085  1.4518  0.1804  0.7685
12421TIP3   OH258753   1.899   5.393  14.794  0.0602  0.0125  0.0821
12421TIP3    H158754   1.828   5.457  14.788 -2.5524 -2.6115  0.3238
12421TIP3    H258755   1.888   5.339  14.715  2.8527  0.4286 -0.6717
12422TIP3   OH258756   4.188   6.102  10.452 -0.7802  0.6048 -0.1080
12422TIP3    H158757   4.197   6.153  10.532 -2.0265  0.8867 -0.1309
12422TIP3    H258758   4.161   6.165  10.385  0.0033  0.3334 -0.7032
12423TIP3   OH258759   1.477   4.479  15.396  0.0959  0.3698  0.0980
12423TIP3    H158760   1.408   4.521  15.344  0.3877 -2.6720 -3.1907
12423TIP3    H258761   1.553   4.535  15.385 -0.5790  1.1932 -0.5367
12424TIP3   OH258762   1.605   1.868  12.469 -0.7856  0.7103  0.4364
12424TIP3    H158763   1.668   1.905  12.530  1.0181 -1.6285  0.1344
12424TIP3    H258764   1.630   1.776  12.461 -3.2412  0.0619 -1.0059
12425TIP3   OH258765   4.051   4.146   0.585  0.3311 -0.1903  0.3639
12425TIP3    H158766   4.112   4.118   0.653  0.2645  0.9696  0.9378
12425TIP3    H258767   4.101   4.141   0.503  0.7144 -0.6854  0.6280
12426TIP3   OH258768   2.854   6.540  16.834 -0.1574 -0.0462  0.3848
12426TIP3    H158769   2.875   6.459  16.787 -1.4289  0.0472 -0.4121
12426TIP3    H258770   2.938   6.584  16.844  0.2275 -0.2146 -1.5909
12427TIP3   OH258771   1.740   1.937   1.025  0.0304  0.0042  0.2441
12427TIP3    H158772   1.649   1.919   1.048 -0.5125  1.1535 -0.8599
12427TIP3    H258773   1.775   1.853   0.995 -0.5419 -0.5309  1.0462
12428TIP3   OH258774   1.723   5.203   1.593 -0.1531 -0.6001 -0.2914
12428TIP3    H158775   1.797   5.166   1.544  1.7560  3.2306 -0.6360
12428TIP3    H258776   1.694   5.276   1.539 -1.9543  0.0972  1.5242
12429TIP3   OH258777   3.458   4.504  11.560 -0.1157 -0.6502 -0.1599
12429TIP3    H158778   3.427   4.529  11.473 -2.4037 -1.6944  0.2814
12429TIP3    H258779   3.386   4.453  11.598  0.1513  0.9492  2.9027
12430TIP3   OH258780   6.509   5.569  12.480 -0.3547  0.0497 -0.0076
12430TIP3    H158781   6.593   5.553  12.438 -0.9731  0.8934 -1.6429
12430TIP3    H258782   6.521   5.652  12.527 -0.1753 -0.0070  0.0470
12431TIP3   OH258783   4.137   5.524  15.078  0.3882  0.3043 -0.0504
12431TIP3    H158784   4.062   5.471  15.053  1.6515 -0.9646 -1.2655
12431TIP3    H258785   4.098   5.607  15.107 -1.4409 -0.1410 -1.0693
12432TIP3   OH258786   3.513   4.651   3.042  0.5605 -0.0267 -0.2645
12432TIP3    H158787   3.524   4.734   3.090  0.3145 -0.0797 -0.1149
12432TIP3    H258788   3.589   4.599   3.067  1.2747  0.5482 -1.1737
12433TIP3   OH258789   2.649   1.294   1.249 -0.2662 -0.1856  0.0702
12433TIP3    H158790   2.565   1.281   1.292 -0.7946  1.0966 -0.5327
12433TIP3    H258791   2.649   1.386   1.222  1.7214  0.1230  0.8958
12434TIP3   OH258792   1.528   2.476   0.234  0.2032 -0.3824 -0.5447
12434TIP3    H158793   1.540   2.398   0.179  0.3131  1.0352 -2.6495
12434TIP3    H258794   1.573   2.455   0.315  0.0177 -2.5985 -0.9464
12435TIP3   OH258795   3.043   2.468   5.674  0.2700 -0.2016  0.3085
12435TIP3    H158796   3.020   2.549   5.720  1.1918 -0.6869  1.6687
12435TIP3    H258797   3.027   2.399   5.738  1.2060 -0.9417 -0.2412
12436TIP3   OH258798   1.731   0.318   2.434  0.5876  0.0384 -0.1918
12436TIP3    H158799   1.711   0.351   2.522 -1.0443 -1.4852  0.0605
12436TIP3    H258800   1.685   0.377   2.375  0.6301  0.3043  0.0396
12437TIP3   OH258801   0.774   6.667   3.572  0.3548 -0.9603  0.6102
12437TIP3    H158802   0.797   6.682   3.663  0.5372 -2.0611  0.7683
12437TIP3    H258803   0.821   6.735   3.523  0.6130 -0.6408  1.3000
12438TIP3   OH258804   2.637   3.754   5.734  0.8455 -0.0216 -0.1150
12438TIP3    H158805   2.694   3.830   5.724  0.3956  0.8101  2.8799
12438TIP3    H258806   2.560   3.787   5.781 -0.3108 -1.9211 -0.5642
12439TIP3   OH258807   5.765   2.119   3.579  0.5110 -0.2434 -0.4290
12439TIP3    H158808   5.806   2.189   3.528  0.3217 -0.5949 -1.0794
12439TIP3    H258809   5.751   2.048   3.515  1.3025 -1.1301  0.3496
12440TIP3   OH258810   4.078   6.150   0.855 -0.1206  0.0734  0.3642
12440TIP3    H158811   4.068   6.105   0.939  0.3308  0.1234  0.4454
12440TIP3    H258812   4.057   6.084   0.789  2.8238 -0.9946  0.3676
12441TIP3   OH258813   0.512   6.814   5.052  0.4754  0.0427  0.1156
12441TIP3    H158814   0.528   6.763   4.972  1.6499 -0.2273  0.5165
12441TIP3    H258815   0.450   6.761   5.102 -1.5810  0.9534 -1.3038
12442TIP3   OH258816   4.799   0.671  12.346 -0.2659  0.4424  0.9770
12442TIP3    H158817   4.867   0.660  12.413  0.3463  1.3988  0.5309
12442TIP3    H258818   4.846   0.674  12.263 -0.9939 -0.4076  0.5080
12443TIP3   OH258819   0.882   4.673  12.019 -0.2071  0.0612 -0.0569
12443TIP3    H158820   0.896   4.697  11.927 -2.5612  0.7620 -0.2929
12443TIP3    H258821   0.947   4.725  12.067  0.0233  0.8784 -1.1996
12444TIP3   OH258822   0.293   4.727   1.756 -0.4664 -0.1190 -0.1494
12444TIP3    H158823   0.387   4.714   1.738 -0.0429 -0.0251  1.7995
12444TIP3    H258824   0.249   4.669   1.694  0.9154 -0.6752 -0.6503
12445TIP3   OH258825   0.510   4.207   6.160 -0.1587  0.4473  0.9086
12445TIP3    H158826   0.561   4.251   6.228  2.3130  0.2813 -0.6685
12445TIP3    H258827   0.494   4.120   6.194 -0.6097  0.9556  2.0221
12446TIP3   OH258828   4.184   6.226   3.291  0.3988  0.1959  0.5247
12446TIP3    H158829   4.147   6.162   3.352 -0.0798  1.6830  1.8400
12446TIP3    H258830   4.146   6.310   3.317  1.7887  1.1992 -0.5187
12447TIP3   OH258831   5.787   0.887  13.192  0.1816 -0.4739  0.0279
12447TIP3    H158832   5.741   0.949  13.249  0.2759 -0.9018  0.5801
12447TIP3    H258833   5.844   0.941  13.138  0.7238 -0.1248  0.9349
12448TIP3   OH258834   1.483   1.583  17.188 -0.5305  0.1128  0.0334
12448TIP3    H158835   1.413   1.540  17.236 -0.4472  1.1802  1.1483
12448TIP3    H258836   1.559   1.525  17.200 -1.4055 -1.6001 -2.0639
12449TIP3   OH258837   0.129   6.585   4.266 -0.3344 -0.1911 -0.0932
12449TIP3    H158838   0.093   6.527   4.199  1.1379 -0.5958 -0.5624
12449TIP3    H258839   0.066   6.579   4.338 -0.6440 -1.7447 -0.4529
12450TIP3   OH258840   1.865   1.160   4.735 -0.0108 -0.0531  0.3125
12450TIP3    H158841   1.919   1.238   4.749  1.0380 -0.7317  0.1120
12450TIP3    H258842   1.885   1.103   4.809 -0.2596 -0.4154  0.1046
12451TIP3   OH258843   2.002   0.349   1.542  0.2910  0.5017  0.1926
12451TIP3    H158844   2.083   0.391   1.571  0.4935  0.7901 -0.7675
12451TIP3    H258845   1.992   0.274   1.600  2.2914 -0.6964 -0.9122
12452TIP3   OH258846   5.064   1.240   5.340 -0.1495 -0.2699  0.3621
12452TIP3    H158847   5.070   1.328   5.302  0.8914 -0.7602 -0.6390
12452TIP3    H258848   5.132   1.238   5.407  0.6406 -0.7043 -0.4424
12453TIP3   OH258849   1.674   3.572  13.760  0.6492  0.1251  0.5841
12453TIP3    H158850   1.598   3.516  13.750  0.7395  0.0270  0.4389
12453TIP3    H258851   1.638   3.660  13.773  0.5154  0.4230 -1.4916
12454TIP3   OH258852   6.325   6.704  12.424  0.5638 -0.5133  0.6610
12454TIP3    H158853   6.254   6.757  12.388  2.1389  2.4276  1.5748
12454TIP3    H258854   6.336   6.632  12.362 -1.5883  0.2779 -0.7360
12455TIP3   OH258855   2.451   6.534  15.223  0.5360  0.0103 -0.4599
12455TIP3    H158856   2.413   6.449  15.200 -0.9317  0.4627  0.1559
12455TIP3    H258857   2.376   6.587  15.251  1.4268  1.4729 -0.7007
12456TIP3   OH258858   6.004   3.025  14.557  0.5753  0.2309  0.3523
12456TIP3    H158859   5.920   2.997  14.593  0.5247  0.2770  0.2703
12456TIP3    H258860   6.041   3.081  14.624  0.6106  0.0841  0.4547
12457TIP3   OH258861   5.673   6.151   5.249 -0.6017  0.6068  0.7052
12457TIP3    H158862   5.753   6.101   5.268 -1.4333 -1.2513 -0.4146
12457TIP3    H258863   5.645   6.185   5.334  0.2889 -0.4265  1.4377
12458TIP3   OH258864   6.097   1.116  16.366 -0.2395 -0.7539 -0.0040
12458TIP3    H158865   6.047   1.197  16.363  0.7796 -0.1339 -1.8515
12458TIP3    H258866   6.046   1.058  16.423 -1.7098  0.6879  0.2070
12459TIP3   OH258867   2.649   3.071  15.918 -0.0802  0.9054  0.2487
12459TIP3    H158868   2.679   3.156  15.886 -0.1810  1.3282  1.2372
12459TIP3    H258869   2.654   3.078  16.013 -0.4047 -0.0858  0.3536
12460TIP3   OH258870   4.432   5.059   1.353  0.6326  0.2269  0.5804
12460TIP3    H158871   4.391   5.106   1.425  0.4416  0.8023  0.0992
12460TIP3    H258872   4.465   4.978   1.393  0.2154  0.3751  1.2372
12461TIP3   OH258873   3.203   6.767  14.312  0.2044 -0.1617  0.1687
12461TIP3    H158874   3.115   6.782  14.277 -0.0444 -1.5853  0.1325
12461TIP3    H258875   3.261   6.811  14.249 -0.4558  0.6882  0.1311
12462TIP3   OH258876   1.415   2.552  13.938 -0.0329 -0.0951 -0.3740
12462TIP3    H158877   1.379   2.536  13.850  0.3088 -1.1262 -0.3349
12462TIP3    H258878   1.349   2.515  13.998 -0.9758  1.8937 -0.1018
12463TIP3   OH258879   1.476   1.904   0.995  0.2535  0.0000  0.1134
12463TIP3    H158880   1.431   1.894   0.911  0.7017 -0.5832 -0.0633
12463TIP3    H258881   1.411   1.878   1.060 -0.7960  2.4037  0.1270
12464TIP3   OH258882   2.904   0.052   2.568 -0.0273  0.5452 -0.1758
12464TIP3    H158883   2.870  -0.016   2.626  0.4415 -0.3290 -0.8774
12464TIP3    H258884   2.995   0.063   2.595  0.0869  0.3982 -0.4840
12465TIP3   OH258885   3.182   1.878   4.183  0.3658 -0.6739 -0.2475
12465TIP3    H158886   3.146   1.794   4.212  0.1370 -0.8075 -0.8995
12465TIP3    H258887   3.250   1.855   4.120 -0.1337 -0.3615 -0.9159
12466TIP3   OH258888   3.572   3.236  15.193 -0.5266 -0.5200  0.2172
12466TIP3    H158889   3.573   3.226  15.288 -2.0992 -1.1990  0.1894
12466TIP3    H258890   3.542   3.325  15.178  1.3538  0.1886  0.3308
12467TIP3   OH258891   4.352   0.419   0.244 -0.0171 -0.2947  0.5409
12467TIP3    H158892   4.273   0.440   0.292 -1.1097  1.6708 -1.8912
12467TIP3    H258893   4.347   0.472   0.164  1.4956 -3.4825 -1.9225
12468TIP3   OH258894   4.354   0.497   5.990  0.0432 -0.5987  0.1114
12468TIP3    H158895   4.344   0.404   5.971 -0.7977 -0.8037  1.4584
12468TIP3    H258896   4.303   0.540   5.921 -0.4976 -1.1827  0.1379
12469TIP3   OH258897   5.428   6.332  14.192 -0.0416 -0.5737 -0.1178
12469TIP3    H158898   5.401   6.243  14.218 -0.9395 -0.3997 -0.4500
12469TIP3    H258899   5.478   6.364  14.267 -1.2083 -0.7077  0.7461
12470TIP3   OH258900   2.263   4.881   0.470  0.1428  0.5623 -0.2093
12470TIP3    H158901   2.261   4.845   0.381 -2.0692 -1.0813  0.4336
12470TIP3    H258902   2.201   4.827   0.519  1.4229  1.3230  2.4004
12471TIP3   OH258903   0.174   6.402  12.879 -0.2233 -0.1155  0.0336
12471TIP3    H158904   0.214   6.340  12.819  0.9731 -0.2806  0.9572
12471TIP3    H258905   0.127   6.346  12.943 -0.0083 -0.0236  0.2714
12472TIP3   OH258906   2.351   0.237   4.300  0.6564  0.0748 -0.2963
12472TIP3    H158907   2.352   0.180   4.223 -1.6069 -0.8969  0.3031
12472TIP3    H258908   2.363   0.176   4.374 -1.3287  0.3632  0.3246
12473TIP3   OH258909   5.335   3.575   0.821  0.6627  0.5378  0.2287
12473TIP3    H158910   5.329   3.516   0.746 -0.8286  0.0726  0.6854
12473TIP3    H258911   5.251   3.621   0.821  0.0011 -0.5580  2.4696
12474TIP3   OH258912   2.755   0.313   2.773  0.1203  0.1434  0.0746
12474TIP3    H158913   2.843   0.333   2.804 -0.7482  0.3358  2.5841
12474TIP3    H258914   2.703   0.390   2.797 -0.8945 -0.2727 -0.7154
12475TIP3   OH258915   6.470   4.118   0.787 -0.3644  0.1972 -0.0314
12475TIP3    H158916   6.375   4.132   0.783 -0.5321 -1.1769 -1.8299
12475TIP3    H258917   6.480   4.036   0.835 -0.1139  0.1027 -0.2430
12476TIP3   OH258918   6.684   0.646  16.071  0.3044  0.0805 -0.9605
12476TIP3    H158919   6.762   0.698  16.091  0.5198 -0.3493 -0.6611
12476TIP3    H258920   6.683   0.640  15.976  0.7747 -0.1172 -0.9570
12477TIP3   OH258921   5.797   4.390   3.702 -0.2593 -0.6141 -0.0433
12477TIP3    H158922   5.858   4.447   3.749  0.0536  0.3226 -1.4966
12477TIP3    H258923   5.711   4.424   3.725 -0.0883  0.2027 -0.5492
12478TIP3   OH258924   2.076   0.336  15.152 -0.1776 -0.1058  0.3945
12478TIP3    H158925   2.024   0.396  15.099 -1.0660  0.2639  1.6519
12478TIP3    H258926   2.144   0.304  15.092 -1.1611  0.2682 -0.9621
12479TIP3   OH258927   2.916   2.046  14.568 -0.0981  0.8530 -0.2728
12479TIP3    H158928   2.868   2.127  14.585 -2.5039 -0.5967  0.2264
12479TIP3    H258929   2.870   2.006  14.493  2.0097  0.6505 -1.5385
12480TIP3   OH258930   6.572   0.914   3.957  0.2639 -0.2459 -0.0813
12480TIP3    H158931   6.575   0.922   4.052  1.1214 -0.4939 -0.0851
12480TIP3    H258932   6.484   0.945   3.934  0.7063  1.7014  0.6152
12481TIP3   OH258933   3.463   2.848  16.604 -0.2123  0.0454  0.4821
12481TIP3    H158934   3.454   2.870  16.697 -0.4044 -0.4416  0.5839
12481TIP3    H258935   3.393   2.784  16.588  0.4558 -0.6543  0.2659
12482TIP3   OH258936   6.224   1.985   0.380  0.0586 -0.0919  0.2062
12482TIP3    H158937   6.187   1.901   0.352  1.3983 -0.3980 -0.7326
12482TIP3    H258938   6.151   2.031   0.422 -1.2543 -0.8644 -1.1427
12483TIP3   OH258939   0.553   2.368  16.401  0.2774 -0.1810  0.0312
12483TIP3    H158940   0.601   2.395  16.479  0.2304  0.2789 -0.0915
12483TIP3    H258941   0.560   2.273  16.399  0.2883 -0.1912  0.5880
12484TIP3   OH258942   3.223   6.523  16.533  0.2564 -0.2569  0.4358
12484TIP3    H158943   3.160   6.560  16.471 -0.7079 -1.2295  0.8032
12484TIP3    H258944   3.305   6.517  16.483 -0.1467  0.2591 -0.3083
12485TIP3   OH258945   5.075   5.347   0.281 -0.0756  0.1125 -0.1552
12485TIP3    H158946   5.095   5.262   0.243 -0.0919  0.1637 -0.2803
12485TIP3    H258947   5.097   5.410   0.212 -0.8732  0.1557 -0.3753
12486TIP3   OH258948   6.359   1.321  11.451  0.2784  0.0502 -0.2421
12486TIP3    H158949   6.273   1.359  11.436 -0.0174 -0.6310 -0.3132
12486TIP3    H258950   6.420   1.395  11.441 -0.2798  0.5098 -0.3136
12487TIP3   OH258951   0.593   0.969   1.327  0.4164 -0.0737 -0.1040
12487TIP3    H158952   0.647   1.011   1.395  0.7278  1.6610 -1.3714
12487TIP3    H258953   0.614   1.016   1.247 -0.6935 -1.4267 -1.2366
12488TIP3   OH258954   3.514   5.742   1.784 -0.6513 -0.5378  0.5996
12488TIP3    H158955   3.538   5.735   1.692  3.7587  0.6405  1.4337
12488TIP3    H258956   3.506   5.836   1.800 -0.6338 -0.6821  1.5503
12489TIP3   OH258957   0.406   1.811  15.201  0.2663 -0.1725  0.0081
12489TIP3    H158958   0.484   1.865  15.188  0.4310 -0.4492 -0.1510
12489TIP3    H258959   0.439   1.730  15.239 -0.0416  0.0486  0.7760
12490TIP3   OH258960   1.564   4.242   4.348  0.7496 -0.5450 -0.4936
12490TIP3    H158961   1.577   4.148   4.341  2.1837 -0.5525  1.3395
12490TIP3    H258962   1.570   4.274   4.258 -0.4907 -2.2399 -1.2374
12491TIP3   OH258963   1.357   3.920   2.603  0.4310 -0.1078 -0.0305
12491TIP3    H158964   1.446   3.946   2.625  0.6874 -0.1516 -0.9818
12491TIP3    H258965   1.357   3.912   2.508 -0.7890  0.6418 -0.1111
12492TIP3   OH258966   5.708   3.085  12.033  0.3033  0.5189  0.1253
12492TIP3    H158967   5.716   3.078  11.937 -1.6924  2.2892 -0.2520
12492TIP3    H258968   5.617   3.062  12.050  0.5188  0.6746  1.5556
12493TIP3   OH258969   5.076   4.696   0.562  0.4283  0.3119  0.4742
12493TIP3    H158970   5.009   4.764   0.565  0.9195  0.7658  1.5529
12493TIP3    H258971   5.029   4.618   0.531 -0.2154  1.0288 -0.4267
12494TIP3   OH258972   5.530   5.736  11.569 -0.1836 -0.5755 -0.2519
12494TIP3    H158973   5.490   5.683  11.639 -1.5255  0.2268 -0.3742
12494TIP3    H258974   5.481   5.711  11.490 -0.7830  0.7477 -0.3234
12495TIP3   OH258975   0.662   0.306  13.956  0.2075  0.2613  0.2366
12495TIP3    H158976   0.692   0.394  13.976 -0.0924  1.0930 -2.5261
12495TIP3    H258977   0.739   0.261  13.922 -0.4768  1.0095 -2.6633
12496TIP3   OH258978   4.325   5.586  13.005  0.0325 -0.0246  0.7048
12496TIP3    H158979   4.312   5.532  12.927 -1.5473  0.7453  0.3927
12496TIP3    H258980   4.265   5.661  12.993  1.3835  1.2560  1.6125
12497TIP3   OH258981   2.754   2.269  14.683 -0.1037 -0.1266  0.2778
12497TIP3    H158982   2.737   2.323  14.606 -1.1093 -1.9020 -0.8074
12497TIP3    H258983   2.790   2.330  14.747  0.2513  1.5158 -1.3929
12498TIP3   OH258984   6.723   6.483  14.514  0.0159 -0.2974  0.4585
12498TIP3    H158985   6.816   6.494  14.534  0.0956 -0.7168  0.3245
12498TIP3    H258986   6.681   6.478  14.600  0.1389 -0.3088  0.5185
12499TIP3   OH258987   3.221   4.318   2.109  0.3483  0.4635  0.1338
12499TIP3    H158988   3.254   4.260   2.040  1.5320  1.4644 -0.1781
12499TIP3    H258989   3.243   4.406   2.078 -2.2337  1.1855  0.1489
12500TIP3   OH258990   4.122   2.969  13.796  0.0875  0.4022  0.2521
12500TIP3    H158991   4.126   2.894  13.855 -0.4594  1.1168  1.2211
12500TIP3    H258992   4.163   2.938  13.715  2.1748 -0.1711  1.4536
12501TIP3   OH258993   6.103   6.238  15.115 -0.2945  0.5979 -0.2608
12501TIP3    H158994   6.139   6.157  15.080  1.1493  1.0147  0.2154
12501TIP3    H258995   6.047   6.209  15.187  0.9275  0.0427  0.5028
12502TIP3   OH258996   2.694   6.254  11.891  0.1071 -0.0193  0.6718
12502TIP3    H158997   2.688   6.270  11.985 -0.3509 -1.5617  0.9485
12502TIP3    H258998   2.695   6.158  11.884  1.5296  0.0686 -0.8230
12503TIP3   OH258999   4.568   0.627  16.444  0.0518  0.0584  0.1050
12503TIP3    H159000   4.496   0.574  16.479  0.1712 -0.3821 -0.3005
12503TIP3    H259001   4.646   0.594  16.489 -0.1672  1.5589  1.6805
12504TIP3   OH259002   1.651   6.522  16.773 -0.3138 -0.2634  0.3850
12504TIP3    H159003   1.567   6.512  16.816  0.2597 -3.2175  1.0362
12504TIP3    H259004   1.639   6.481  16.687  0.5976 -1.3674  0.7549
12505TIP3   OH259005   3.243   2.142   4.930 -0.6085 -0.0139 -0.4449
12505TIP3    H159006   3.201   2.151   4.844 -0.1043  1.6524 -0.5461
12505TIP3    H259007   3.222   2.224   4.976 -0.3283 -0.6067  0.7800
12506TIP3   OH259008   0.542   2.384  12.612 -0.1421 -0.4421  0.7895
12506TIP3    H159009   0.636   2.371  12.604 -0.0341  0.5384  0.4012
12506TIP3    H259010   0.507   2.359  12.526 -0.2979 -1.2608  1.0829
12507TIP3   OH259011   3.041   4.006   1.673 -0.1671  0.2972 -0.0920
12507TIP3    H159012   2.949   4.016   1.649  0.3304  0.1280 -2.2701
12507TIP3    H259013   3.082   4.090   1.651  0.0262  0.8450  2.0740
12508TIP3   OH259014   6.620   3.614   1.777  0.7229 -0.1578  0.6502
12508TIP3    H159015   6.655   3.664   1.850  2.3008 -0.0829 -0.1197
12508TIP3    H259016   6.558   3.553   1.817  1.2763  0.1324  1.9933
12509TIP3   OH259017   0.106   2.836   5.009 -0.0450  0.2290  0.1502
12509TIP3    H159018   0.145   2.919   5.036 -0.9445  0.6267  0.2833
12509TIP3    H259019   0.176   2.772   5.019  0.8535  1.0604 -0.5255
12510TIP3   OH259020   3.903   3.217  12.884  0.2051 -0.1467 -0.1623
12510TIP3    H159021   3.973   3.158  12.856  0.5921  0.5711 -0.7691
12510TIP3    H259022   3.822   3.171  12.861  0.4962 -0.5454 -0.4052
12511TIP3   OH259023   6.011   6.237  14.300 -0.8067  0.3748  0.3102
12511TIP3    H159024   5.962   6.257  14.380 -1.1044 -0.7110  0.4153
12511TIP3    H259025   5.944   6.231  14.232 -0.8276 -0.9780  0.4280
12512TIP3   OH259026   4.132   2.775  12.998  0.6133  0.7158 -0.5762
12512TIP3    H159027   4.176   2.775  12.913 -0.5602 -0.4882 -1.2189
12512TIP3    H259028   4.140   2.866  13.029  1.5942  1.0282 -1.6766
12513TIP3   OH259029   3.142   4.428  12.346 -0.2378  0.4567 -0.6686
12513TIP3    H159030   3.083   4.452  12.417 -0.4358  0.6829 -0.9079
12513TIP3    H259031   3.194   4.356  12.381 -0.8520  0.0588 -0.5572
12514TIP3   OH259032   4.529   0.046   4.656 -0.1114  0.3385 -0.4048
12514TIP3    H159033   4.565   0.099   4.727  0.1398 -0.8242  0.3568
12514TIP3    H259034   4.479   0.108   4.603 -2.1308  0.8799  1.9726
12515TIP3   OH259035   6.212   6.802  16.623 -0.3210 -0.1098  0.2261
12515TIP3    H159036   6.127   6.792  16.665 -0.2948 -1.9061 -0.0791
12515TIP3    H259037   6.275   6.791  16.694 -0.3233 -0.1883  0.2163
12516TIP3   OH259038   1.502   1.113  14.409  0.4446  0.2338  0.2185
12516TIP3    H159039   1.481   1.026  14.375 -2.0941  0.4691  1.0125
12516TIP3    H259040   1.516   1.166  14.330  1.7353 -0.7551 -0.2758
12517TIP3   OH259041   1.234   2.388  16.250 -0.0814 -0.2247  0.2312
12517TIP3    H159042   1.206   2.446  16.321  2.7183  1.0395  0.4618
12517TIP3    H259043   1.282   2.317  16.294 -0.6277 -0.9084 -0.2579
12518TIP3   OH259044   3.007   4.112  11.791  0.3624 -0.0292 -0.7397
12518TIP3    H159045   3.061   4.039  11.821  0.4704  0.7479  1.0976
12518TIP3    H259046   2.917   4.078  11.793  0.2491  0.2504  1.5139
12519TIP3   OH259047   3.617   1.025  14.954 -0.2252  0.4204  0.3580
12519TIP3    H159048   3.692   0.967  14.944  1.0822  1.8127  1.5316
12519TIP3    H259049   3.575   1.025  14.868 -0.4144 -2.3650  0.3692
12520TIP3   OH259050   1.533   4.864   4.687 -0.0705  0.0511 -0.1055
12520TIP3    H159051   1.595   4.932   4.662  0.9416 -1.5634 -2.3670
12520TIP3    H259052   1.555   4.844   4.778  0.1518  2.1193  0.3424
12521TIP3   OH259053   4.494   4.561   4.283 -0.0385  0.2363 -0.0795
12521TIP3    H159054   4.588   4.573   4.293  0.0263 -0.1481 -0.2155
12521TIP3    H259055   4.484   4.513   4.201 -0.2701 -0.9694  0.6283
12522TIP3   OH259056   2.644   0.525   2.899  0.7499  0.1886  0.3713
12522TIP3    H159057   2.700   0.549   2.973 -0.5918 -0.2500  1.5802
12522TIP3    H259058   2.605   0.608   2.870  0.5860  0.2371  0.7347
12523TIP3   OH259059   2.396   4.873   1.260  0.0852 -0.0767 -0.5531
12523TIP3    H159060   2.329   4.838   1.319  1.4491 -0.3200  0.9137
12523TIP3    H259061   2.446   4.797   1.232  1.3515  0.3493  0.4573
12524TIP3   OH259062   5.348   3.617   1.088  0.1526 -0.0103  0.2798
12524TIP3    H159063   5.337   3.522   1.094 -0.9740 -0.2631 -3.2917
12524TIP3    H259064   5.353   3.635   0.994  0.8181  3.4549  0.8251
12525TIP3   OH259065   6.728   6.116   3.908  0.4615 -0.3138  0.6246
12525TIP3    H159066   6.723   6.023   3.927  0.8844 -0.5687 -0.4325
12525TIP3    H259067   6.822   6.134   3.901  0.3500 -0.2150 -0.9921
12526TIP3   OH259068   3.793   5.338  14.030  0.8370 -0.2614  0.1107
12526TIP3    H159069   3.824   5.428  14.015 -0.7763  0.3886  0.5208
12526TIP3    H259070   3.786   5.331  14.125  0.1214 -0.5305  0.0379
12527TIP3   OH259071   0.424   0.036  13.940  0.1660 -0.4554  0.3675
12527TIP3    H159072   0.411  -0.033  14.005 -2.8257  1.3730  1.8920
12527TIP3    H259073   0.363   0.014  13.870  0.1846 -0.0742  0.2309
12528TIP3   OH259074   4.120   3.798  13.872 -0.1443 -0.7135  0.1899
12528TIP3    H159075   4.116   3.893  13.863 -2.6193 -0.6893  0.8672
12528TIP3    H259076   4.194   3.772  13.816  1.9373  1.7307  1.5600
12529TIP3   OH259077   3.379   1.783   4.428  0.2258 -0.6184 -0.3804
12529TIP3    H159078   3.365   1.688   4.425  0.6147 -0.8402  2.2031
12529TIP3    H259079   3.466   1.794   4.466  0.3019  0.7970 -0.8847
12530TIP3   OH259080   1.559   0.950   6.010 -0.0095 -0.1161 -0.2739
12530TIP3    H159081   1.507   0.870   6.002 -0.5711  0.1507  0.6005
12530TIP3    H259082   1.537   0.985   6.096  1.1149  0.3605 -0.1560
12531TIP3   OH259083   6.613   4.713  16.838  0.0856  0.1648 -0.5009
12531TIP3    H159084   6.526   4.739  16.867 -0.0432 -1.1904  0.3990
12531TIP3    H259085   6.673   4.764  16.892 -0.1630 -0.4580  0.3803
12532TIP3   OH259086   4.875   0.727  14.111 -0.3041 -0.0037 -0.1703
12532TIP3    H159087   4.876   0.632  14.121  0.8860  0.0986  0.9812
12532TIP3    H259088   4.804   0.756  14.168  0.1814 -0.1289  0.5157
12533TIP3   OH259089   2.456   2.387  16.705  0.0512 -0.7780 -0.5283
12533TIP3    H159090   2.449   2.360  16.614  0.3553  0.3247 -0.8942
12533TIP3    H259091   2.406   2.469  16.711 -1.0534 -1.4891  0.6021
12534TIP3   OH259092   6.666   2.636   0.772 -0.3509  0.0615  0.5633
12534TIP3    H159093   6.595   2.617   0.833 -1.0507  0.2789 -0.1723
12534TIP3    H259094   6.715   2.707   0.814 -0.4329 -0.2361  1.1746
12535TIP3   OH259095   2.390   6.572  16.018  0.4632 -0.3924 -0.2179
12535TIP3    H159096   2.321   6.509  16.040  0.8856 -0.8545 -0.1873
12535TIP3    H259097   2.464   6.518  15.991  1.7689 -0.0697  2.3601
12536TIP3   OH259098   3.877   0.278   3.944  0.8943  0.1898 -0.4268
12536TIP3    H159099   3.812   0.347   3.960 -1.2189 -2.0897  1.8424
12536TIP3    H259100   3.877   0.227   4.025  1.4064 -3.1950 -2.4097
12537TIP3   OH259101   2.062   5.747  17.172 -0.0037  0.0481  0.1515
12537TIP3    H159102   1.981   5.737  17.122 -0.7396  0.9216  1.1206
12537TIP3    H259103   2.101   5.828  17.140  1.0329 -0.8572 -1.0032
12538TIP3   OH259104   4.526   4.653   2.529  0.4447 -0.0236 -0.3821
12538TIP3    H159105   4.578   4.587   2.483  0.7428 -0.3571  0.4178
12538TIP3    H259106   4.582   4.682   2.601 -0.8580 -1.1722  1.1679
12539TIP3   OH259107   2.458   4.208  12.431 -0.1318 -0.3774 -0.4403
12539TIP3    H159108   2.399   4.279  12.458 -1.1544 -1.1209 -0.6520
12539TIP3    H259109   2.546   4.245  12.442 -0.6103  0.6036  0.3423
12540TIP3   OH259110   6.070   1.138  13.615  0.0278 -0.5594  0.4524
12540TIP3    H159111   6.015   1.177  13.683 -0.0423 -0.6525  0.4497
12540TIP3    H259112   6.009   1.117  13.545 -0.0062 -1.0790  0.6309
12541TIP3   OH259113   1.442   3.454   3.820  0.6375  0.1192  0.4124
12541TIP3    H159114   1.501   3.435   3.747  0.8718  1.6200  0.1840
12541TIP3    H259115   1.357   3.422   3.790  1.2308 -1.8950  0.6729
12542TIP3   OH259116   2.341   1.627   1.233 -0.1349  0.0638  0.6705
12542TIP3    H159117   2.348   1.560   1.165 -0.7693 -0.7258  1.3597
12542TIP3    H259118   2.285   1.587   1.300 -1.6540  1.7721  0.5118
12543TIP3   OH259119   3.235   3.591  13.380 -0.8693 -0.0837  0.1270
12543TIP3    H159120   3.145   3.614  13.403 -1.7627  0.5707 -3.3335
12543TIP3    H259121   3.228   3.508  13.333  0.8269 -1.6480  2.4339
12544TIP3   OH259122   4.020   6.330  14.413  0.3942  0.0060 -0.1197
12544TIP3    H159123   3.987   6.363  14.497 -0.4970  0.1176 -0.5100
12544TIP3    H259124   3.982   6.243  14.404  0.6609 -0.0927 -0.3175
12545TIP3   OH259125   0.509   5.615   3.643  0.0661 -0.3748 -0.0811
12545TIP3    H159126   0.571   5.604   3.571  0.8582 -1.7511  0.7788
12545TIP3    H259127   0.425   5.631   3.599  0.6816 -0.2880 -1.2856
12546TIP3   OH259128   6.423   0.963  13.370  0.0640 -0.3329  0.0504
12546TIP3    H159129   6.446   0.965  13.463 -1.0684 -0.7468  0.3499
12546TIP3    H259130   6.384   0.876  13.357  1.0450 -0.6454 -1.0277
12547TIP3   OH259131   4.581   6.589   2.080  0.2901 -0.6759 -0.3326
12547TIP3    H159132   4.614   6.635   2.003 -1.3859  0.7163 -0.2900
12547TIP3    H259133   4.659   6.570   2.132  1.4827 -1.8084 -2.4107
12548TIP3   OH259134   3.219   3.608   3.701 -0.1112  0.5480 -0.1224
12548TIP3    H159135   3.310   3.591   3.675 -0.3866 -0.5748 -0.3713
12548TIP3    H259136   3.216   3.703   3.715  2.1614  0.2654  3.8508
12549TIP3   OH259137   6.823   4.119   3.379  0.2162  0.0823 -0.8356
12549TIP3    H159138   6.761   4.192   3.383 -0.6939 -0.7032 -0.1067
12549TIP3    H259139   6.855   4.110   3.469 -0.9232 -1.4434 -0.5549
12550TIP3   OH259140   0.222   5.820   3.792  0.3979  0.2106 -0.7830
12550TIP3    H159141   0.208   5.813   3.697  1.6353 -1.6486 -0.8944
12550TIP3    H259142   0.174   5.746   3.828  3.6871 -2.0407 -0.5210
12551TIP3   OH259143   3.174   2.971   0.346  0.2099  0.0406  0.4766
12551TIP3    H159144   3.099   3.013   0.389  0.2329  0.1824  0.3802
12551TIP3    H259145   3.174   3.008   0.258  1.1720  1.0259  0.8682
12552TIP3   OH259146   5.207   5.478  10.876  0.1823 -0.3578 -0.5820
12552TIP3    H159147   5.178   5.476  10.785 -2.0462  0.9441  0.0270
12552TIP3    H259148   5.278   5.543  10.877 -1.7623  1.9070 -0.9518
12553TIP3   OH259149   1.640   5.075   4.547 -0.5572 -0.7816 -0.1244
12553TIP3    H159150   1.735   5.083   4.549 -0.5190 -1.2638  1.8045
12553TIP3    H259151   1.610   5.154   4.503  0.7287 -0.7517 -1.0035
12554TIP3   OH259152   5.451   4.249  14.832 -0.1489 -0.1391 -0.0859
12554TIP3    H159153   5.431   4.300  14.910 -0.3271  0.7106 -0.6794
12554TIP3    H259154   5.368   4.207  14.809  0.1620 -1.2941  0.8125
12555TIP3   OH259155   4.238   4.413   3.560  0.1548  0.1388 -1.0470
12555TIP3    H159156   4.262   4.351   3.492  0.3014  1.7581 -2.5592
12555TIP3    H259157   4.276   4.496   3.530  0.6974  0.8040  1.3086
12556TIP3   OH259158   2.807   3.193  14.933  0.0987  0.6498  0.1785
12556TIP3    H159159   2.759   3.141  14.869  0.3610  0.2714  0.2904
12556TIP3    H259160   2.772   3.165  15.018 -0.2809  1.1821  0.2064
12557TIP3   OH259161   6.554   2.029   1.151  0.4276  0.2699 -0.3761
12557TIP3    H159162   6.591   1.948   1.117 -0.2162 -0.0501 -0.3241
12557TIP3    H259163   6.578   2.029   1.244  0.5648  0.2219 -0.4108
12558TIP3   OH259164   5.774   1.756  11.926  0.0052  0.3974  0.4945
12558TIP3    H159165   5.805   1.667  11.910  0.8884  0.6803  0.5755
12558TIP3    H259166   5.729   1.780  11.845 -0.1972 -0.0983  0.4534
12559TIP3   OH259167   6.310   3.238  13.448 -0.4093 -0.3124  0.0314
12559TIP3    H159168   6.324   3.150  13.413  2.4004  0.0152  0.0944
12559TIP3    H259169   6.335   3.233  13.540 -4.3855 -0.3335  1.3208
12560TIP3   OH259170   3.478   3.898   1.150 -0.8915  0.3317 -0.1065
12560TIP3    H159171   3.447   3.947   1.227  0.5586  0.2028  0.6004
12560TIP3    H259172   3.400   3.854   1.117 -1.9379  1.9106  0.1363
12561TIP3   OH259173   1.705   2.802  14.021 -0.6383  0.3622  0.1708
12561TIP3    H159174   1.636   2.790  13.956 -0.6942  0.9142  0.1286
12561TIP3    H259175   1.677   2.878  14.072  1.7510  3.0959 -2.2535
12562TIP3   OH259176   0.557   6.731   0.728 -0.7181 -0.1923 -0.8614
12562TIP3    H159177   0.509   6.813   0.740 -0.9387 -0.6899  2.7710
12562TIP3    H259178   0.490   6.663   0.735 -0.1431 -0.7691 -0.8869
12563TIP3   OH259179   4.554   1.188   5.418  0.0344 -0.0998 -0.2497
12563TIP3    H159180   4.564   1.282   5.405  0.6610  0.0884  1.3022
12563TIP3    H259181   4.460   1.176   5.430  0.1857  0.8702  2.7266
12564TIP3   OH259182   0.101   6.264   5.717 -1.0704  0.9313  0.0062
12564TIP3    H159183   0.017   6.299   5.687 -0.5444  0.6704 -1.9430
12564TIP3    H259184   0.166   6.310   5.664 -0.2036 -1.0538 -0.7430
12565TIP3   OH259185   1.993   0.098  15.531 -0.5665 -0.1461 -0.0840
12565TIP3    H159186   2.009   0.171  15.590 -1.4876 -1.3312  1.7444
12565TIP3    H259187   1.979   0.138  15.445  1.8783  1.5874  0.2114
12566TIP3   OH259188   4.748   1.641  13.943 -0.6996 -0.0458  0.1581
12566TIP3    H159189   4.729   1.555  13.982 -0.1506 -0.3657 -0.2676
12566TIP3    H259190   4.717   1.704  14.008  1.6579 -0.5541  1.9154
12567TIP3   OH259191   2.483   3.328   1.945  0.7193  0.2175  0.3300
12567TIP3    H159192   2.434   3.325   2.027 -1.7157  2.7726 -0.8859
12567TIP3    H259193   2.488   3.237   1.917 -1.1808 -0.3913  1.7752
12568TIP3   OH259194   6.277   0.897  11.495  0.0149  0.3030 -0.4511
12568TIP3    H159195   6.248   0.984  11.523  1.5089 -0.0050  2.4257
12568TIP3    H259196   6.372   0.905  11.489  0.5258 -1.7236  2.7212
12569TIP3   OH259197   0.017   1.340  14.838 -0.3971 -0.7026 -0.5914
12569TIP3    H159198   0.071   1.392  14.897 -1.2637 -0.2834 -0.1579
12569TIP3    H259199  -0.026   1.405  14.782  1.2728 -1.1215 -2.4886
12570TIP3   OH259200   2.613   2.927   5.184  0.1208  0.2124  0.3058
12570TIP3    H159201   2.543   2.989   5.161 -0.0447  0.0552  0.3847
12570TIP3    H259202   2.676   2.980   5.233  0.9846  0.8047 -1.3552
12571TIP3   OH259203   1.109   0.482  15.668 -0.1520  0.2182 -0.1985
12571TIP3    H159204   1.030   0.430  15.677 -0.8507  1.1495 -0.6898
12571TIP3    H259205   1.099   0.552  15.732  0.0196  0.6375 -0.6219
12572TIP3   OH259206   1.743   0.361  15.992  0.1238  0.2045 -0.0704
12572TIP3    H159207   1.727   0.266  15.993 -0.1006  0.2427  1.1789
12572TIP3    H259208   1.655   0.400  15.991  0.2023  0.4279 -1.7127
12573TIP3   OH259209   1.817   0.592   1.418 -0.0621  0.0510  0.3616
12573TIP3    H159210   1.824   0.498   1.402  0.5140  0.1841 -0.2097
12573TIP3    H259211   1.839   0.601   1.511  0.0344 -0.3659  0.3836
12574TIP3   OH259212   2.275   4.515   2.191  0.2275  0.2107  0.3492
12574TIP3    H159213   2.243   4.562   2.114 -2.2701 -0.3295  0.9568
12574TIP3    H259214   2.246   4.568   2.266  0.3476 -0.5640  0.9624
12575TIP3   OH259215   4.325   0.573   2.494  0.6606 -0.3395  0.6965
12575TIP3    H159216   4.335   0.665   2.520 -0.9230 -0.2155  0.9604
12575TIP3    H259217   4.415   0.538   2.494  1.2709  1.1544  0.7369
12576TIP3   OH259218   3.995   2.985  12.776 -0.2444 -0.3983 -0.2335
12576TIP3    H159219   4.063   2.960  12.713 -0.7509  0.0887 -0.9978
12576TIP3    H259220   3.922   2.926  12.757 -0.2056 -0.6139  0.2730
12577TIP3   OH259221   4.845   4.751  12.084 -0.0644 -0.6765  0.3184
12577TIP3    H159222   4.857   4.745  12.179 -0.3434  0.0099  0.3998
12577TIP3    H259223   4.751   4.761  12.071  0.1431  1.7502  0.1393
12578TIP3   OH259224   0.166   6.334   1.096  0.1608 -0.6014  0.2638
12578TIP3    H159225   0.146   6.349   1.188  0.1344 -2.3699  0.5731
12578TIP3    H259226   0.151   6.241   1.082 -0.3291 -0.2826 -1.6693
12579TIP3   OH259227   3.053   5.418   1.964 -0.4307  0.2369 -0.1637
12579TIP3    H159228   3.096   5.348   2.013 -1.3402 -0.6010 -0.5184
12579TIP3    H259229   3.052   5.386   1.873 -2.6500 -0.2580 -0.0235
12580TIP3   OH259230   2.289   1.732  15.949 -0.0965 -0.0369  0.0921
12580TIP3    H159231   2.253   1.648  15.922 -2.0941  0.8665 -0.2151
12580TIP3    H259232   2.357   1.752  15.884 -1.3987 -0.2206 -1.3793
12581TIP3   OH259233   2.291   3.972   3.483  0.2601 -0.1449 -0.6230
12581TIP3    H159234   2.260   4.036   3.547  1.3243 -0.8718  0.6581
12581TIP3    H259235   2.220   3.966   3.419 -0.9877  0.3229  0.6741
12582TIP3   OH259236   5.674   1.977  14.977 -0.4030  0.5113 -0.0806
12582TIP3    H159237   5.770   1.979  14.985 -0.3822  1.5190 -0.4905
12582TIP3    H259238   5.643   2.024  15.054 -0.5324  1.0577 -0.4629
12583TIP3   OH259239   0.610   4.438   1.750 -0.0900  0.0476 -0.0493
12583TIP3    H159240   0.537   4.419   1.691  0.6089 -1.2273 -0.5348
12583TIP3    H259241   0.661   4.504   1.704 -1.0583  1.1531  0.4148
12584TIP3   OH259242   5.078   5.556   2.167  0.0259 -0.1409 -0.1461
12584TIP3    H159243   5.117   5.508   2.240 -1.1995  0.1310  0.7200
12584TIP3    H259244   4.986   5.565   2.190 -0.6836 -1.0841 -2.2918
12585TIP3   OH259245   0.843   6.077  10.931  0.6109 -0.3566 -0.5015
12585TIP3    H159246   0.926   6.117  10.908  0.5316  0.3417  0.3658
12585TIP3    H259247   0.865   5.987  10.953  0.9448 -0.5185 -1.4535
12586TIP3   OH259248   6.385   3.741   5.447 -0.0363 -0.1506  0.1463
12586TIP3    H159249   6.400   3.759   5.540  0.5909 -0.2501  0.0676
12586TIP3    H259250   6.429   3.812   5.401 -0.3981 -0.0683 -0.0750
12587TIP3   OH259251   6.553   1.881  10.570 -0.0845  0.3961  0.0350
12587TIP3    H159252   6.491   1.811  10.593  1.2250 -0.7682  0.1146
12587TIP3    H259253   6.625   1.837  10.525  1.1916  1.5647  0.8361
12588TIP3   OH259254   4.214   4.005   3.593 -0.0490  0.2729  0.2534
12588TIP3    H159255   4.212   3.909   3.602  0.8351  0.0253 -1.6655
12588TIP3    H259256   4.237   4.037   3.680 -0.6553 -1.2356  1.0050
12589TIP3   OH259257   5.854   1.621  13.873 -0.4086  0.7375 -0.3542
12589TIP3    H159258   5.905   1.703  13.869  2.5116 -0.9922 -2.7705
12589TIP3    H259259   5.844   1.595  13.781 -2.5004 -0.9580  0.2896
12590TIP3   OH259260   2.934   2.392   2.584  0.7901 -0.2793 -0.9160
12590TIP3    H159261   2.851   2.423   2.547  1.0899 -0.5056 -1.8056
12590TIP3    H259262   2.916   2.381   2.677  0.1240  0.6816 -0.9190
12591TIP3   OH259263   1.680   5.661  13.926 -0.2289  0.2470  0.6003
12591TIP3    H159264   1.740   5.728  13.893  0.1220  0.0218  0.7664
12591TIP3    H259265   1.636   5.627  13.848  0.9677 -0.6379  0.2735
12592TIP3   OH259266   2.594   6.364   4.046 -0.0057 -0.3652  0.2508
12592TIP3    H159267   2.606   6.294   4.111 -2.5368 -0.1713  1.0349
12592TIP3    H259268   2.624   6.325   3.963  0.1758 -1.7808  0.9506
12593TIP3   OH259269   1.173   3.159  14.746  0.1526 -0.7276 -0.5345
12593TIP3    H159270   1.258   3.162  14.790 -0.5070 -0.4333  0.7837
12593TIP3    H259271   1.129   3.083  14.784 -1.4070  0.9630  1.3004
12594TIP3   OH259272   3.356   4.984   0.698  0.1732  0.1232  0.4184
12594TIP3    H159273   3.439   4.991   0.652  0.8340  0.5130  1.6379
12594TIP3    H259274   3.305   5.059   0.667  1.0300  1.0214  1.1474
12595TIP3   OH259275   3.783   5.487  17.076 -0.2761  0.0506 -0.3410
12595TIP3    H159276   3.846   5.424  17.041 -1.5445  0.2136 -3.1940
12595TIP3    H259277   3.835   5.546  17.131  1.3922 -1.8407  0.2132
12596TIP3   OH259278   3.704   4.825  13.731  0.3814  0.9252  0.1469
12596TIP3    H159279   3.664   4.738  13.732 -0.1792  1.1681 -0.4800
12596TIP3    H259280   3.670   4.868  13.809 -2.2949  1.8664 -1.4215
12597TIP3   OH259281   3.777   2.676  10.700 -0.5783  0.0194  0.2035
12597TIP3    H159282   3.789   2.758  10.652 -0.9218  0.2055  0.4290
12597TIP3    H259283   3.855   2.624  10.679 -1.1090 -0.2513 -1.2326
12598TIP3   OH259284   2.861   0.642   3.067 -0.2686  0.1580  0.2481
12598TIP3    H159285   2.942   0.652   3.017 -0.7037  2.9090 -0.1012
12598TIP3    H259286   2.834   0.732   3.087 -2.6903 -0.6953  1.2488
12599TIP3   OH259287   1.777   2.884   5.829  0.9460 -0.4078  0.2394
12599TIP3    H159288   1.811   2.803   5.867  2.0592  0.8895  2.1969
12599TIP3    H259289   1.732   2.926   5.902 -1.2688 -0.0774 -1.2159
12600TIP3   OH259290   2.675   1.301  11.348 -0.5018  0.0907 -0.1429
12600TIP3    H159291   2.610   1.233  11.331 -1.0174  0.8583 -1.3923
12600TIP3    H259292   2.746   1.283  11.286  0.4015 -0.6091  1.0583
12601TIP3   OH259293   6.520   2.682   3.800 -0.0905 -0.0838 -0.1157
12601TIP3    H159294   6.567   2.647   3.876 -2.8227 -1.5689  1.0594
12601TIP3    H259295   6.572   2.656   3.725  1.8181 -0.0880  1.1371
12602TIP3   OH259296   1.419   2.340  12.308  0.5142 -0.5376 -0.2255
12602TIP3    H159297   1.458   2.253  12.310  0.5495 -0.6097 -2.0421
12602TIP3    H259298   1.444   2.380  12.392  0.3088 -2.3238  0.7284
12603TIP3   OH259299   6.643   4.774   2.278 -0.1226  0.0387 -0.1062
12603TIP3    H159300   6.662   4.866   2.258  0.9847 -0.4891 -1.6418
12603TIP3    H259301   6.651   4.729   2.195  0.2332 -1.5968  0.7724
12604TIP3   OH259302   3.205   0.215  12.373  0.6202  0.0909 -0.4618
12604TIP3    H159303   3.172   0.291  12.326 -0.4051 -1.0679 -1.7158
12604TIP3    H259304   3.220   0.149  12.304  1.0771 -0.9790  0.6235
12605TIP3   OH259305   5.224   2.866   1.874  0.0523  0.4929 -0.5638
12605TIP3    H159306   5.250   2.775   1.860  0.8504  0.8443 -1.4072
12605TIP3    H259307   5.251   2.912   1.795 -1.9761  1.1463 -0.9413
12606TIP3   OH259308   2.205   4.450  17.040  0.4777  0.2316  0.2914
12606TIP3    H159309   2.179   4.448  16.948  0.1800 -0.5749  0.3835
12606TIP3    H259310   2.148   4.386  17.082 -1.2408  2.4492  1.5612
12607TIP3   OH259311   1.702   6.429  11.233 -0.5682 -0.5643  0.1070
12607TIP3    H159312   1.743   6.343  11.233 -2.8129 -1.6988  0.0395
12607TIP3    H259313   1.738   6.473  11.155  2.2765 -0.5060  1.3369
12608TIP3   OH259314   2.522   6.589  11.283 -0.0417  0.2073 -0.0013
12608TIP3    H159315   2.434   6.623  11.266  0.8016  2.1755 -0.7448
12608TIP3    H259316   2.528   6.510  11.230 -1.1063  0.4489 -0.5117
12609TIP3   OH259317   6.325   0.054  14.343  0.0416  0.5071 -0.5557
12609TIP3    H159318   6.334   0.143  14.378 -0.4420  0.2095  0.3561
12609TIP3    H259319   6.342   0.064  14.250 -1.1426  1.7668 -0.6801
12610TIP3   OH259320   1.201   2.251   6.116 -0.5513 -0.4877  0.0835
12610TIP3    H159321   1.152   2.186   6.167  0.0304 -1.6055 -0.7206
12610TIP3    H259322   1.180   2.231   6.025  1.5039 -1.1465 -0.3093
12611TIP3   OH259323   1.303   0.566  13.693  0.1121 -1.1367 -0.0090
12611TIP3    H159324   1.370   0.527  13.748 -0.7091 -1.6671  0.6418
12611TIP3    H259325   1.348   0.636  13.646  1.2508 -1.8805 -0.0546
12612TIP3   OH259326   4.144   5.443   2.631 -0.4872 -0.3997  0.1415
12612TIP3    H159327   4.112   5.530   2.656  1.6918  1.0560 -1.6425
12612TIP3    H259328   4.097   5.423   2.551 -1.4462 -1.2019  0.8861
12613TIP3   OH259329   0.746   1.572   5.529 -0.4271 -0.2703  0.0651
12613TIP3    H159330   0.827   1.576   5.580 -0.5274 -0.4368  0.2422
12613TIP3    H259331   0.750   1.647   5.470 -0.5966  0.2825  0.7441
12614TIP3   OH259332   1.147   5.236   3.996 -0.1035  0.2554  0.5188
12614TIP3    H159333   1.112   5.293   4.065 -0.0762  0.1763  0.5987
12614TIP3    H259334   1.072   5.217   3.940  0.0911  1.1649 -0.0735
12615TIP3   OH259335   0.200   2.612  12.214  0.4008 -0.1637  0.2423
12615TIP3    H159336   0.211   2.702  12.245  4.4114 -0.2981 -0.2373
12615TIP3    H259337   0.221   2.616  12.121  0.3002 -1.5458  0.1420
12616TIP3   OH259338   1.493   1.810  16.807 -0.0998 -0.8626 -0.0135
12616TIP3    H159339   1.541   1.727  16.809  0.3496 -0.6312 -0.8081
12616TIP3    H259340   1.421   1.795  16.745  0.7000 -0.2989 -1.1140
12617TIP3   OH259341   2.927   1.605   2.470 -0.0607 -0.0889  0.1427
12617TIP3    H159342   3.002   1.547   2.458  0.4056  0.0978  1.8394
12617TIP3    H259343   2.950   1.659   2.546 -0.8950  1.6532 -0.7684
12618TIP3   OH259344   2.080   1.058  16.256 -0.5586 -0.0108  0.2037
12618TIP3    H159345   2.036   1.099  16.182 -0.9565  0.9476  0.9459
12618TIP3    H259346   2.135   1.128  16.293 -1.8104  0.1130  1.9442
12619TIP3   OH259347   5.843   1.393  16.925 -0.2111 -0.2778  0.3235
12619TIP3    H159348   5.852   1.488  16.924  0.2935 -0.3223  0.4632
12619TIP3    H259349   5.757   1.377  16.964 -0.8697  0.1526 -0.9080
12620TIP3   OH259350   1.890   2.211  11.542  0.5969  0.0062 -0.6167
12620TIP3    H159351   1.858   2.233  11.454  2.3229 -0.9377 -1.5239
12620TIP3    H259352   1.981   2.184  11.529  0.4985 -1.4817  1.2807
12621TIP3   OH259353   1.530   4.434   0.390  0.3278  0.4312  0.5135
12621TIP3    H159354   1.467   4.385   0.338  0.4974 -0.8827  1.4860
12621TIP3    H259355   1.496   4.429   0.480  1.0185  1.0353  0.8253
12622TIP3   OH259356   4.740   6.074  12.648 -0.0350  0.5246  0.4590
12622TIP3    H159357   4.815   6.015  12.654  0.3092  0.4764 -2.6892
12622TIP3    H259358   4.687   6.038  12.577 -1.9250  1.8032  1.1397
12623TIP3   OH259359   6.617   5.305  15.333  0.1249 -0.2776  0.9204
12623TIP3    H159360   6.684   5.246  15.298  1.4180  1.8160 -0.3375
12623TIP3    H259361   6.574   5.341  15.256  1.3659  2.5649  1.4222
12624TIP3   OH259362   1.268   3.901   4.476 -0.1853 -0.3706 -0.2870
12624TIP3    H159363   1.196   3.862   4.527  1.0109 -0.8155  1.1268
12624TIP3    H259364   1.253   3.995   4.482 -0.6048 -0.4529  0.0802
12625TIP3   OH259365   4.908   4.647  14.862 -0.1776 -0.5058  0.2585
12625TIP3    H159366   4.850   4.599  14.921  0.9884 -1.4798  0.6475
12625TIP3    H259367   4.996   4.630  14.895  0.4553 -0.4522 -1.3098
12626TIP3   OH259368   1.252   2.222  10.932  0.1349 -0.2183 -0.1827
12626TIP3    H159369   1.186   2.173  10.884 -0.7200 -0.2678  1.0081
12626TIP3    H259370   1.205   2.263  11.005  0.6733  2.8886 -1.4146
12627TIP3   OH259371   1.105   1.410  16.288 -0.0820  0.1748  0.5918
12627TIP3    H159372   1.188   1.366  16.274 -0.3871 -0.2033 -0.0847
12627TIP3    H259373   1.048   1.342  16.325 -0.6170 -0.0707 -0.6554
12628TIP3   OH259374   0.819   1.548  12.236  0.5324 -0.0751 -0.1884
12628TIP3    H159375   0.762   1.616  12.199 -0.0836 -0.1943  0.5076
12628TIP3    H259376   0.793   1.468  12.190 -0.5249 -0.3013  0.7620
12629TIP3   OH259377   0.245   0.218  15.097  0.0272 -0.0076  0.3653
12629TIP3    H159378   0.308   0.278  15.138 -0.8751 -0.4423  2.5505
12629TIP3    H259379   0.242   0.143  15.157  1.3413 -2.4746 -2.4142
12630TIP3   OH259380   6.627   1.819  14.625 -0.2209 -0.3638 -0.2792
12630TIP3    H159381   6.686   1.890  14.599 -0.8055 -0.2929 -1.4640
12630TIP3    H259382   6.572   1.858  14.693  0.3038 -0.0746 -0.0110
12631TIP3   OH259383   2.758   3.241  16.800  0.3605 -0.4934 -0.2191
12631TIP3    H159384   2.759   3.177  16.871 -1.7348 -0.4627 -0.0750
12631TIP3    H259385   2.818   3.310  16.828 -1.6194  0.3198  2.3790
12632TIP3   OH259386   6.092   2.513   3.801  0.2185 -0.1858 -0.1989
12632TIP3    H159387   6.085   2.423   3.769  0.9410 -0.6653  0.9027
12632TIP3    H259388   6.009   2.530   3.846  0.2734 -0.4802  0.0136
12633TIP3   OH259389   5.178   1.080  16.297  0.1730  0.7968 -0.3672
12633TIP3    H159390   5.118   1.019  16.254  0.0857  1.4033 -1.1303
12633TIP3    H259391   5.256   1.028  16.316 -1.2148 -0.4960  2.2975
12634TIP3   OH259392   3.222   3.139   0.934  0.7112 -0.2066  0.8211
12634TIP3    H159393   3.294   3.176   0.883  0.5775  0.4981  1.1310
12634TIP3    H259394   3.198   3.059   0.887  2.1749 -0.8540  1.1204
12635TIP3   OH259395   1.684   1.723  17.045 -0.4169 -0.1559 -0.3985
12635TIP3    H159396   1.615   1.695  17.104 -1.0605 -0.9100 -1.4771
12635TIP3    H259397   1.685   1.819  17.053 -0.3718 -0.2519  0.9300
12636TIP3   OH259398   3.179   4.091   5.732  0.4018 -0.1096 -0.8062
12636TIP3    H159399   3.232   4.026   5.778 -0.7591 -0.3882  0.2074
12636TIP3    H259400   3.136   4.043   5.661 -0.7788 -0.5928  0.1928
12637TIP3   OH259401   3.742   3.179  15.750 -0.1166  0.0284  0.4709
12637TIP3    H159402   3.729   3.261  15.798  0.3782  0.7161 -0.5572
12637TIP3    H259403   3.720   3.111  15.814 -1.5517  0.9658  1.0272
12638TIP3   OH259404   4.603   0.299   4.317  0.1283  0.5159  0.3124
12638TIP3    H159405   4.694   0.271   4.329  0.3532  0.0803 -1.9067
12638TIP3    H259406   4.607   0.363   4.246 -1.2343  1.0292  0.6657
12639TIP3   OH259407   4.328   6.340   3.702  0.3496  0.1033  0.1415
12639TIP3    H159408   4.266   6.269   3.719 -0.5574  0.4963 -1.4272
12639TIP3    H259409   4.274   6.416   3.685  1.1145  0.0712 -3.0861
12640TIP3   OH259410   4.191   1.926  14.717 -0.5068  0.1026  0.2927
12640TIP3    H159411   4.139   1.928  14.798  0.5408  0.4449  0.9785
12640TIP3    H259412   4.280   1.950  14.745  0.2120 -1.2671 -0.7035
12641TIP3   OH259413   5.044   1.557   1.884  0.0708  0.0330  0.0772
12641TIP3    H159414   5.091   1.522   1.809 -1.9587 -0.2931 -1.1265
12641TIP3    H259415   4.974   1.494   1.901 -0.3704  0.8145  1.3344
12642TIP3   OH259416   1.892   4.143  12.152 -0.4839  0.3709 -0.2351
12642TIP3    H159417   1.960   4.193  12.198  0.6891  0.2958 -1.8239
12642TIP3    H259418   1.819   4.204  12.145  0.0839  1.0806 -0.1099
12643TIP3   OH259419   2.581   2.984   0.114 -0.2389  0.1465 -0.4201
12643TIP3    H159420   2.661   2.965   0.065 -0.7151  0.2814 -1.2758
12643TIP3    H259421   2.580   3.079   0.125  0.5828  0.0078  1.1370
12644TIP3   OH259422   0.979   3.139  15.686  0.0011  0.6885 -0.5191
12644TIP3    H159423   1.073   3.120  15.692 -0.1506  0.1981  0.4646
12644TIP3    H259424   0.970   3.224  15.728 -0.0458  0.5714 -0.2929
12645TIP3   OH259425   1.254   4.175   3.575 -0.3720  0.1513 -0.7468
12645TIP3    H159426   1.277   4.085   3.597  0.8804  0.8742  1.1340
12645TIP3    H259427   1.213   4.169   3.488  0.6438 -2.0812 -1.1400
12646TIP3   OH259428   2.914   3.469  13.358  0.1370 -0.4176  0.7463
12646TIP3    H159429   3.003   3.447  13.330  0.4745  0.9886  0.6342
12646TIP3    H259430   2.918   3.562  13.379 -1.4113 -0.2396  0.3717
12647TIP3   OH259431   5.176   0.720  15.176 -0.2879  0.1763  0.2991
12647TIP3    H159432   5.160   0.684  15.088 -0.7649  1.1971 -0.0471
12647TIP3    H259433   5.266   0.696  15.196 -0.1727 -0.0623 -0.4697
12648TIP3   OH259434   6.428   3.789   0.134 -0.7487  0.3887 -0.1284
12648TIP3    H159435   6.404   3.705   0.173 -0.4391  0.6430  0.6463
12648TIP3    H259436   6.345   3.834   0.119 -0.8636  1.3560  2.7295
12649TIP3   OH259437   3.079   4.346   0.170  0.2491 -0.0240 -0.3263
12649TIP3    H159438   3.137   4.421   0.181 -0.3485  0.5030 -0.7096
12649TIP3    H259439   2.995   4.384   0.146 -0.6638 -0.6717  1.6021
12650TIP3   OH259440   2.006   0.553   3.984 -0.3859 -0.3949  0.1091
12650TIP3    H159441   2.099   0.574   3.988 -0.6239  0.5194  1.0556
12650TIP3    H259442   1.993   0.520   3.895  1.0522 -1.6332  0.3288
12651TIP3   OH259443   2.423   4.939  11.293 -0.8219 -0.1520 -0.2898
12651TIP3    H159444   2.480   4.865  11.310 -0.4864 -0.2221 -1.6047
12651TIP3    H259445   2.461   4.982  11.217 -2.6352 -0.3451 -1.3640
12652TIP3   OH259446   4.561   1.058   3.869  0.6013  0.0354 -0.3194
12652TIP3    H159447   4.614   0.996   3.920  1.0492 -1.2590 -2.2418
12652TIP3    H259448   4.621   1.092   3.803 -0.3890  0.2229 -1.1569
12653TIP3   OH259449   1.139   5.046  11.667 -0.0138 -0.5433 -0.1763
12653TIP3    H159450   1.177   5.130  11.693 -0.8806 -0.2952  0.3369
12653TIP3    H259451   1.130   4.997  11.748  0.4636 -1.1327 -0.4684
12654TIP3   OH259452   1.797   6.674  14.176 -0.1309 -0.0550  0.1667
12654TIP3    H159453   1.816   6.744  14.238 -1.4147 -0.7716  1.4303
12654TIP3    H259454   1.716   6.703  14.132 -0.5022 -0.5959  0.4859
12655TIP3   OH259455   2.571   5.159   6.477  0.6178 -0.2462  0.1903
12655TIP3    H159456   2.605   5.231   6.531 -0.6295  0.8883 -0.5033
12655TIP3    H259457   2.497   5.125   6.526  0.7249 -0.5478  0.1445
12656TIP3   OH259458   2.738   0.491   5.708 -0.3085  0.2667  0.3081
12656TIP3    H159459   2.750   0.398   5.727  0.2910  0.3690  0.4530
12656TIP3    H259460   2.702   0.528   5.788  0.0431  0.2714  0.4659
12657TIP3   OH259461   3.997   5.969   1.916  0.4668  0.1581 -0.2632
12657TIP3    H159462   4.051   6.033   1.963 -0.1571  0.7267 -0.3144
12657TIP3    H259463   4.059   5.900   1.890  1.0588  0.5118  0.1955
12658TIP3   OH259464   0.375   1.296  13.182  0.3761 -0.5983 -0.5845
12658TIP3    H159465   0.291   1.308  13.139  0.0148 -0.0496  0.2318
12658TIP3    H259466   0.354   1.297  13.276  1.3046 -0.2987 -0.3676
12659TIP3   OH259467   6.353   0.180   1.562 -0.0980  0.1782  0.8610
12659TIP3    H159468   6.333   0.234   1.485 -1.2194  2.0620  2.3792
12659TIP3    H259469   6.310   0.096   1.544  2.2244 -0.6114 -1.8551
12660TIP3   OH259470   0.364   2.706   0.474  0.1622 -0.0128  0.2175
12660TIP3    H159471   0.377   2.680   0.566  1.3280 -0.5374 -0.0785
12660TIP3    H259472   0.392   2.798   0.471  0.4390 -0.0940  0.3177
12661TIP3   OH259473   6.335   2.324   6.610  0.3049  0.5994  0.5175
12661TIP3    H159474   6.334   2.413   6.577 -0.7450  0.2016 -0.5793
12661TIP3    H259475   6.251   2.287   6.584  1.5793 -1.3963 -1.0451
12662TIP3   OH259476   4.698   6.495  16.178 -0.1296  0.0317  0.1295
12662TIP3    H159477   4.653   6.505  16.261 -0.6848  0.9968 -0.2640
12662TIP3    H259478   4.648   6.429  16.131  0.1733 -0.5000  0.5392
12663TIP3   OH259479   1.319   4.053  15.217 -0.4945 -0.2385 -0.1795
12663TIP3    H159480   1.234   4.090  15.241  1.0177  2.5745  1.3950
12663TIP3    H259481   1.381   4.125  15.229  2.3634 -2.5681  0.2525
12664TIP3   OH259482   3.871   1.051  16.705  0.0539 -0.2904  0.2894
12664TIP3    H159483   3.864   1.079  16.796  0.0214  0.0642  0.1807
12664TIP3    H259484   3.825   1.119  16.656 -0.8851 -1.0422  0.1051
12665TIP3   OH259485   3.928   0.539   2.856 -0.4363 -0.1184 -0.6851
12665TIP3    H159486   3.870   0.611   2.832  0.9490  1.5827  0.8377
12665TIP3    H259487   3.984   0.526   2.779 -0.5521  0.5863 -0.8881
12666TIP3   OH259488   5.721   4.621  16.243 -0.2789 -0.2952  0.3214
12666TIP3    H159489   5.661   4.616  16.169  0.1914 -0.1113 -0.0802
12666TIP3    H259490   5.736   4.530  16.269  0.2549 -0.4184 -0.3876
12667TIP3   OH259491   2.120   5.606   5.103 -0.5153 -0.1467 -0.8467
12667TIP3    H159492   2.112   5.511   5.090 -1.4764  0.0630 -2.0393
12667TIP3    H259493   2.039   5.641   5.066 -1.4701  0.9649  2.0047
12668TIP3   OH259494   0.319   3.585   5.162  0.2522  0.3376  0.1721
12668TIP3    H159495   0.411   3.607   5.152  0.7688 -1.9434 -0.7051
12668TIP3    H259496   0.275   3.630   5.089  0.9133  0.1401 -0.3502
12669TIP3   OH259497   1.067   4.880  13.188  0.0273  0.4178  0.1581
12669TIP3    H159498   1.070   4.925  13.104  0.1202  0.5822  0.2484
12669TIP3    H259499   1.114   4.798  13.174 -1.7417 -0.5381 -0.5295
12670TIP3   OH259500   4.760   4.272  12.872  0.3306  0.3756 -0.2649
12670TIP3    H159501   4.843   4.237  12.904  0.1382  0.7794  0.6942
12670TIP3    H259502   4.720   4.314  12.948 -1.6670 -1.5125 -0.1726
12671TIP3   OH259503   5.556   1.075   3.994 -0.3585 -0.1477 -0.5513
12671TIP3    H159504   5.490   1.054   3.928 -0.3390 -0.3477 -0.5062
12671TIP3    H259505   5.638   1.042   3.956 -0.2166  0.4615 -0.7919
12672TIP3   OH259506   0.498   3.971   0.285  0.3949  0.3694  0.5981
12672TIP3    H159507   0.422   4.005   0.333  0.7407  2.9379 -0.5199
12672TIP3    H259508   0.574   4.001   0.335  0.7036  0.7327 -0.0727
12673TIP3   OH259509   4.613   5.859  13.450 -0.3203  0.3308 -0.1117
12673TIP3    H159510   4.640   5.854  13.541  0.7367 -1.9416 -0.5015
12673TIP3    H259511   4.518   5.848  13.452 -0.1762 -0.8841  0.6534
12674TIP3   OH259512   3.842   0.212  12.152 -0.7650 -0.1572  0.0322
12674TIP3    H159513   3.751   0.210  12.183 -0.6323 -1.2721  0.4082
12674TIP3    H259514   3.847   0.140  12.089  0.2158 -1.0676  1.1067
12675TIP3   OH259515   2.656   0.486  14.649  0.0736  0.1741  0.1349
12675TIP3    H159516   2.682   0.410  14.702 -0.1680 -0.9391 -1.2946
12675TIP3    H259517   2.563   0.472  14.632 -0.5748  2.0499  1.8288
12676TIP3   OH259518   3.209   5.181  12.473  0.5225  0.2994 -0.0993
12676TIP3    H159519   3.159   5.223  12.403  0.6780 -0.8711 -0.9362
12676TIP3    H259520   3.203   5.242  12.546  0.9440  1.9070 -1.3442
12677TIP3   OH259521   6.298   6.807   6.562  0.1575  0.3295  0.0614
12677TIP3    H159522   6.204   6.813   6.577  0.0017 -2.5661  1.0225
12677TIP3    H259523   6.309   6.829   6.470 -1.3605  1.3182  0.0790
12678TIP3   OH259524   2.649   0.539   1.073 -0.3257 -0.7053 -0.2110
12678TIP3    H159525   2.664   0.626   1.034  0.9305 -0.6579  0.3196
12678TIP3    H259526   2.699   0.541   1.154 -1.4630 -1.4354  0.5368
12679TIP3   OH259527   4.243   6.003   5.019 -0.2348  0.0372 -0.1269
12679TIP3    H159528   4.165   5.990   4.965 -0.4702  1.0002 -0.0338
12679TIP3    H259529   4.308   6.040   4.958 -0.1307  0.0578 -0.0035
12680TIP3   OH259530   1.053   6.112   3.810  0.4353  0.4938  0.1540
12680TIP3    H159531   1.077   6.205   3.815 -0.4406  0.7077  0.5323
12680TIP3    H259532   1.075   6.077   3.897  0.5376  0.3953  0.0897
12681TIP3   OH259533   3.240   0.192   0.389  0.2551 -0.0632 -0.0156
12681TIP3    H159534   3.319   0.147   0.418  1.0386  0.5090 -1.2019
12681TIP3    H259535   3.270   0.275   0.353 -0.8490  0.0601 -0.7256
12682TIP3   OH259536   5.494   4.076   4.966  0.1579 -0.4571  0.4039
12682TIP3    H159537   5.406   4.064   5.002 -0.9388  0.0985 -1.9164
12682TIP3    H259538   5.541   3.997   4.992 -1.2892 -1.1642  0.9799
12683TIP3   OH259539   2.017   2.208   0.572  0.3496 -0.3224  0.2679
12683TIP3    H159540   2.033   2.302   0.571 -0.3296 -0.1408 -2.5697
12683TIP3    H259541   2.090   2.171   0.522 -0.2074 -1.0968  0.0126
12684TIP3   OH259542   6.082   3.606  14.786 -0.6551  0.3239  0.5115
12684TIP3    H159543   6.003   3.552  14.791 -0.6498  0.1447 -1.0234
12684TIP3    H259544   6.138   3.573  14.857 -2.1878  0.8753  2.0420
12685TIP3   OH259545   5.155   0.105  12.900  0.4844  0.1737  0.0898
12685TIP3    H159546   5.106   0.162  12.840 -0.0794 -1.1458 -0.7537
12685TIP3    H259547   5.181   0.031  12.846  1.4229 -0.2521  1.1068
12686TIP3   OH259548   2.333   5.002  13.479 -0.0213  0.4495  0.0537
12686TIP3    H159549   2.313   5.096  13.474  0.3304  0.5013 -0.4690
12686TIP3    H259550   2.387   4.985  13.401  0.2870 -0.0952  0.3833
12687TIP3   OH259551   6.661   4.901  11.056  0.4820  0.7648 -0.4152
12687TIP3    H159552   6.683   4.808  11.045 -0.5231  0.4431  0.1470
12687TIP3    H259553   6.745   4.946  11.058  1.0660 -0.3198  0.9811
12688TIP3   OH259554   4.601   0.030   5.851 -0.0841  0.0037 -0.1991
12688TIP3    H159555   4.673  -0.018   5.892  0.4980  0.2595 -0.9060
12688TIP3    H259556   4.600   0.114   5.897  2.9864  1.8130 -3.0109
12689TIP3   OH259557   3.854   5.632  16.827 -0.8464  0.4634 -0.0344
12689TIP3    H159558   3.924   5.638  16.892 -0.5867 -0.8175 -0.1570
12689TIP3    H259559   3.839   5.538  16.817  0.2026  0.4798 -2.9385
12690TIP3   OH259560   0.578   4.141   0.852  0.6578 -0.2812 -0.4368
12690TIP3    H159561   0.608   4.193   0.778 -0.5622 -0.4041 -1.0418
12690TIP3    H259562   0.495   4.103   0.823  0.8226 -1.4380  0.4944
12691TIP3   OH259563   0.608   3.026   1.615  0.0780 -0.1548 -0.3283
12691TIP3    H159564   0.531   2.969   1.614 -2.7641  3.2941  1.0332
12691TIP3    H259565   0.623   3.048   1.523 -2.2490  1.0754 -0.4628
12692TIP3   OH259566   5.233   5.012  14.158  0.0122  0.0465 -0.5363
12692TIP3    H159567   5.302   5.040  14.219  0.1197  1.0172 -1.0814
12692TIP3    H259568   5.241   5.072  14.084  0.3210 -1.5287 -1.8262
12693TIP3   OH259569   6.104   0.450   1.342  0.5471  0.4989  0.0523
12693TIP3    H159570   6.125   0.511   1.413 -1.3612  1.2758  0.0066
12693TIP3    H259571   6.077   0.370   1.386 -0.3056  0.8668  0.2083
12694TIP3   OH259572   2.291   2.707  13.480 -0.1557  0.4668 -0.9465
12694TIP3    H159573   2.250   2.762  13.547 -0.6270  0.2844 -1.0776
12694TIP3    H259574   2.219   2.654  13.445  0.5728 -1.6533  0.5173
12695TIP3   OH259575   5.532   1.378   4.063 -0.2640 -0.1497 -0.2104
12695TIP3    H159576   5.464   1.355   4.127 -0.7788  1.2731 -0.1929
12695TIP3    H259577   5.555   1.295   4.021  0.2418 -1.1780  1.9424
12696TIP3   OH259578   3.527   5.911   5.927  0.5161  0.0497 -0.1196
12696TIP3    H159579   3.503   5.822   5.955  0.4500 -0.7511 -2.5366
12696TIP3    H259580   3.509   5.965   6.004  2.4578 -2.2556  2.1386
12697TIP3   OH259581   6.350   6.554  14.821  0.2584  0.4832 -0.4359
12697TIP3    H159582   6.384   6.604  14.895  2.4944 -0.2116 -0.9329
12697TIP3    H259583   6.281   6.609  14.784 -0.3974  1.1756  1.6706
12698TIP3   OH259584   3.956   0.033  16.488  0.5119 -0.0627  0.4969
12698TIP3    H159585   3.902   0.091  16.434  0.5147 -1.2524 -0.8603
12698TIP3    H259586   3.893  -0.023  16.533  0.5225 -1.6808 -1.3507
12699TIP3   OH259587   0.768   5.955  15.828  0.7484 -0.1005  0.3132
12699TIP3    H159588   0.748   5.870  15.789  1.4913 -0.4296  0.6370
12699TIP3    H259589   0.770   6.016  15.754 -0.2436 -0.2638  0.1315
12700TIP3   OH259590   4.942   4.496  13.837 -0.1686  0.7700 -0.0567
12700TIP3    H159591   4.959   4.411  13.798 -0.0081  0.5456  0.4954
12700TIP3    H259592   4.851   4.491  13.866 -0.0770  0.6854  0.2214
12701TIP3   OH259593   4.192   6.595  12.909 -0.3788 -0.0509 -0.0746
12701TIP3    H159594   4.192   6.686  12.878 -0.7255  0.0520  0.2225
12701TIP3    H259595   4.176   6.601  13.003  1.4332 -0.3236  0.2848
12702TIP3   OH259596   6.305   3.135   1.442 -0.2830 -0.7235  0.2975
12702TIP3    H159597   6.300   3.075   1.516 -1.2112  0.3807  1.1517
12702TIP3    H259598   6.386   3.185   1.457  0.2952 -1.4759 -0.2210
12703TIP3   OH259599   4.845   5.197   2.005 -0.1113  0.4059  0.5880
12703TIP3    H159600   4.862   5.115   2.052  0.5346 -1.1809 -2.2037
12703TIP3    H259601   4.759   5.185   1.966 -1.4014  2.3968  2.5730
12704TIP3   OH259602   5.892   2.874  11.900 -0.0880 -0.5290  0.5270
12704TIP3    H159603   5.896   2.780  11.881  1.3865 -0.3692 -0.1584
12704TIP3    H259604   5.972   2.890  11.952  1.2993  0.8220 -1.8677
12705TIP3   OH259605   1.175   0.830  15.605  0.5300  0.2168 -0.1299
12705TIP3    H159606   1.113   0.885  15.558  0.0800 -0.5333 -0.4424
12705TIP3    H259607   1.127   0.799  15.681  0.5967 -0.1576 -0.2344
12706TIP3   OH259608   1.802   3.967  15.751 -0.3119 -0.3409 -0.0966
12706TIP3    H159609   1.859   3.890  15.756  1.6678  1.0244 -0.4827
12706TIP3    H259610   1.856   4.035  15.712 -1.5335  1.6671  1.4701
12707TIP3   OH259611   5.618   6.280   6.746 -0.2027 -0.3964 -0.1838
12707TIP3    H159612   5.585   6.261   6.658 -2.0394  0.9511  0.1776
12707TIP3    H259613   5.703   6.235   6.749 -1.5279 -3.2502 -1.4682
12708TIP3   OH259614   0.702   0.522  13.019 -0.3883  0.0962  0.4102
12708TIP3    H159615   0.686   0.541  12.927 -0.6961  2.0064  0.8340
12708TIP3    H259616   0.733   0.604  13.056  1.0153 -0.9796  1.7515
12709TIP3   OH259617   2.692   5.265   2.437 -0.2402  0.2678  0.8346
12709TIP3    H159618   2.751   5.208   2.488  3.1166  1.0803 -1.7633
12709TIP3    H259619   2.721   5.354   2.458 -1.2318  0.7511  0.2202
12710TIP3   OH259620   1.725   2.965   3.666  0.3496  0.3143  0.3254
12710TIP3    H159621   1.777   3.006   3.735  0.2019  1.2908 -0.1285
12710TIP3    H259622   1.634   2.978   3.694  0.3165 -0.5537  0.6481
12711TIP3   OH259623   6.109   1.308  12.264  0.1060  0.5424  0.2254
12711TIP3    H159624   6.067   1.232  12.302 -1.0172  0.6295 -0.7690
12711TIP3    H259625   6.203   1.289  12.268 -0.1322 -0.6345  0.5033
12712TIP3   OH259626   2.777   4.194  11.447  0.5507 -0.3327 -0.7442
12712TIP3    H159627   2.750   4.122  11.390 -0.9013 -0.2247 -0.2162
12712TIP3    H259628   2.818   4.151  11.522  1.1602 -0.5306 -1.1792
12713TIP3   OH259629   1.510   4.907  15.139  0.0896  0.1625  0.1149
12713TIP3    H159630   1.536   4.820  15.109  0.2866 -0.1872  1.2502
12713TIP3    H259631   1.462   4.945  15.065  1.0173 -0.4415 -0.8316
12714TIP3   OH259632   1.077   5.949   4.035  0.7882  0.1259  0.0094
12714TIP3    H159633   1.142   5.992   4.092  0.2229  0.7347  0.2211
12714TIP3    H259634   1.123   5.875   3.997  1.1412 -0.4208  1.4211
12715TIP3   OH259635   5.202   3.761  17.162 -0.3849  0.1537 -0.4711
12715TIP3    H159636   5.149   3.707  17.220 -1.6622  1.5920 -0.2443
12715TIP3    H259637   5.285   3.772  17.209  0.0089 -1.7800 -0.6524
12716TIP3   OH259638   1.155   6.557  16.088 -0.5517  0.1187 -0.0302
12716TIP3    H159639   1.068   6.564  16.128 -0.1951  0.8104  0.6643
12716TIP3    H259640   1.202   6.634  16.121  0.7972 -1.0358  0.8311
12717TIP3   OH259641   6.288   1.018  15.492  0.5819 -0.4487 -0.1835
12717TIP3    H159642   6.245   0.982  15.414  1.3726 -0.2662 -0.7149
12717TIP3    H259643   6.380   0.994  15.481  0.8725  0.4827  0.1796
12718TIP3   OH259644   0.524   2.678   1.816  0.7937  0.1353 -0.4554
12718TIP3    H159645   0.514   2.585   1.837  1.2438 -0.3053 -2.0585
12718TIP3    H259646   0.463   2.722   1.875 -1.8316 -1.4363 -1.7924
12719TIP3   OH259647   4.983   1.682  14.133  0.6175 -0.4821 -0.6406
12719TIP3    H159648   4.910   1.677  14.071  0.3475  0.9937 -0.4780
12719TIP3    H259649   4.974   1.768  14.174  1.6811 -0.8156  0.3532
12720TIP3   OH259650   4.358   4.380   1.404  0.0203  0.2654 -0.7523
12720TIP3    H159651   4.411   4.394   1.482 -0.7413  3.0112 -0.6174
12720TIP3    H259652   4.312   4.298   1.420  0.3400  0.4523  1.4153
12721TIP3   OH259653   6.672   1.234  11.559  0.0665 -0.0731  0.0361
12721TIP3    H159654   6.741   1.171  11.538 -0.2322  0.3104 -2.4003
12721TIP3    H259655   6.632   1.255  11.475 -2.4962  0.3631  1.2419
12722TIP3   OH259656   2.705   3.354   3.481  0.1819  0.3812  0.2625
12722TIP3    H159657   2.711   3.263   3.454  0.8470  0.6209 -0.4046
12722TIP3    H259658   2.795   3.385   3.484  0.1501  0.4654  2.4607
12723TIP3   OH259659   3.239   5.177   6.130  0.1101  0.1329  0.2266
12723TIP3    H159660   3.190   5.251   6.165  0.2499  0.9118 -1.1455
12723TIP3    H259661   3.281   5.137   6.207 -0.2928  1.2298  1.0403
12724TIP3   OH259662   0.177   4.451  10.690  0.0785  0.0220 -0.5736
12724TIP3    H159663   0.224   4.407  10.619  3.1803  3.8877 -1.2582
12724TIP3    H259664   0.218   4.416  10.770  2.4786  1.4210 -1.0953
12725TIP3   OH259665   1.573   0.676  11.235  0.0620 -0.3336  0.5292
12725TIP3    H159666   1.601   0.612  11.170  0.6963 -1.1385  1.5724
12725TIP3    H259667   1.578   0.760  11.189  1.9360 -0.7085 -0.0403
12726TIP3   OH259668   3.452   2.203  16.673  0.6314  0.4248  0.5010
12726TIP3    H159669   3.496   2.119  16.661 -0.4111 -0.4789  2.5394
12726TIP3    H259670   3.370   2.182  16.717 -1.7477  2.1016 -2.7339
12727TIP3   OH259671   4.154   1.419  16.138  0.6158  0.0898 -0.3144
12727TIP3    H159672   4.173   1.403  16.231  1.4620 -2.0191 -0.7985
12727TIP3    H259673   4.240   1.439  16.100  0.0139  3.1132 -0.3323
12728TIP3   OH259674   1.060   6.644   0.855  0.1033  0.2185 -0.4030
12728TIP3    H159675   0.985   6.688   0.816  0.9735  2.2663  0.1149
12728TIP3    H259676   1.052   6.660   0.949  1.4802  1.0443 -0.3877
12729TIP3   OH259677   1.350   2.254   4.098 -0.0825 -0.6311 -0.0940
12729TIP3    H159678   1.302   2.215   4.171 -1.2406  3.2473  1.4933
12729TIP3    H259679   1.282   2.295   4.044  1.0123 -0.8383 -1.7150
12730TIP3   OH259680   1.881   1.646  16.656 -0.5782  0.0831 -0.0129
12730TIP3    H159681   1.932   1.721  16.626  0.8147 -1.1856 -0.9069
12730TIP3    H259682   1.823   1.625  16.583 -0.3480 -0.2441 -0.1040
12731TIP3   OH259683   3.627   5.962   2.310 -0.2341  0.0602  0.4010
12731TIP3    H159684   3.584   5.897   2.367 -2.1548  1.4120  0.5902
12731TIP3    H259685   3.672   5.910   2.244 -1.1499 -1.4852  0.9394
12732TIP3   OH259686   4.200   5.209  15.266 -0.2036 -0.2302 -0.0774
12732TIP3    H159687   4.187   5.242  15.177  0.5288  0.1115 -0.0609
12732TIP3    H259688   4.270   5.144  15.258  1.4287  1.3753  0.5838
12733TIP3   OH259689   4.130   6.107  16.851 -0.5574 -0.5347 -0.4493
12733TIP3    H159690   4.045   6.143  16.825 -0.5016 -0.0219  0.0623
12733TIP3    H259691   4.150   6.149  16.934  0.6402  0.0908 -1.0161
12734TIP3   OH259692   3.248   1.774  12.294  0.3296  0.4560 -0.0029
12734TIP3    H159693   3.334   1.788  12.335  0.6084  0.1387 -0.4751
12734TIP3    H259694   3.185   1.809  12.358  0.6915 -0.8794  1.1190
12735TIP3   OH259695   0.105   5.257   1.026 -0.0193  0.3518 -0.1598
12735TIP3    H159696   0.117   5.274   1.120 -1.1182 -0.7677  0.2156
12735TIP3    H259697   0.173   5.309   0.983  0.7356  0.6060  1.2786
12736TIP3   OH259698   3.732   5.947  17.149  0.0400  0.1989 -0.4174
12736TIP3    H159699   3.731   5.925  17.242  0.9289  2.0968  0.1124
12736TIP3    H259700   3.690   6.033  17.145 -2.5344 -1.0125 -2.2066
12737TIP3   OH259701   1.447   4.897   0.959  0.1888  0.1445 -0.3951
12737TIP3    H159702   1.491   4.899   1.043  1.2196  2.2051 -0.9454
12737TIP3    H259703   1.507   4.940   0.898 -1.1434 -0.0026 -1.8903
12738TIP3   OH259704   0.803   3.473  12.705  0.1849 -0.0382 -0.2089
12738TIP3    H159705   0.730   3.533  12.719  0.8286  0.5027  0.8909
12738TIP3    H259706   0.880   3.529  12.697  0.6028 -0.6469 -0.5448
12739TIP3   OH259707   6.113   6.400  10.744  0.0115  0.1504 -0.1455
12739TIP3    H159708   6.206   6.376  10.746  0.3248  1.1435 -1.6052
12739TIP3    H259709   6.112   6.496  10.744 -0.9048  0.1926 -2.0678
12740TIP3   OH259710   0.415   3.789   4.084  0.5401 -0.2712 -0.2169
12740TIP3    H159711   0.368   3.870   4.101  0.5932 -0.4318  0.7235
12740TIP3    H259712   0.430   3.790   3.989  0.3497  0.7061 -0.2481
12741TIP3   OH259713   4.257   0.081  12.241  0.3638  0.5110 -0.3599
12741TIP3    H159714   4.253   0.001  12.189 -0.4205  0.2550  0.0906
12741TIP3    H259715   4.332   0.129  12.204  1.4775 -0.8669  0.0117
12742TIP3   OH259716   3.125   4.034  10.594 -0.2516  0.0744  0.1317
12742TIP3    H159717   3.070   4.080  10.658  0.2202 -0.6488  1.0815
12742TIP3    H259718   3.198   4.093  10.579 -0.6153  0.4651 -0.1241
12743TIP3   OH259719   1.534   0.562  15.608 -0.2179  0.2122 -0.1301
12743TIP3    H159720   1.549   0.621  15.535 -0.5704 -0.2015 -0.5491
12743TIP3    H259721   1.466   0.502  15.576 -1.3741  0.8594  1.0087
12744TIP3   OH259722   1.067   1.944   2.071  0.4407 -0.0137 -0.0751
12744TIP3    H159723   1.060   1.848   2.073 -1.2348  0.0129 -2.0539
12744TIP3    H259724   1.020   1.972   2.150  0.6434 -0.7863  0.3402
12745TIP3   OH259725   3.525   1.399  12.659 -0.2107 -0.4537  0.4233
12745TIP3    H159726   3.469   1.474  12.680  0.5787  0.4208 -0.5345
12745TIP3    H259727   3.575   1.384  12.740  0.4170  0.7649  0.2831
12746TIP3   OH259728   4.930   6.703   0.931  0.4217  0.2112  0.5659
12746TIP3    H159729   4.860   6.644   0.903 -0.5991  0.8243  1.7318
12746TIP3    H259730   4.967   6.661   1.008  0.9979  0.1622  0.2709
12747TIP3   OH259731   3.721   2.597   4.423 -0.4601 -0.0984 -0.4868
12747TIP3    H159732   3.727   2.661   4.495  0.3604  2.0075 -2.3083
12747TIP3    H259733   3.634   2.610   4.387 -0.9370 -1.2780  0.2079
12748TIP3   OH259734   0.387   5.808   2.505 -0.3316 -0.4681  0.0805
12748TIP3    H159735   0.310   5.759   2.533 -0.1883 -1.0275 -0.4821
12748TIP3    H259736   0.419   5.760   2.428 -0.9161  1.2158 -1.2581
12749TIP3   OH259737   0.602   6.277   3.786  0.2095 -0.1276  0.1447
12749TIP3    H159738   0.551   6.332   3.726 -0.8517  1.0671  2.0124
12749TIP3    H259739   0.539   6.253   3.854  1.5610 -0.6930  1.2322
12750TIP3   OH259740   0.397   4.138   1.930  0.0521 -0.0926 -0.5288
12750TIP3    H159741   0.341   4.061   1.916 -1.1268  0.4684  0.8257
12750TIP3    H259742   0.433   4.157   1.844 -2.2773 -0.1738 -1.6111
12751TIP3   OH259743   6.064   5.690   0.938  0.3267 -0.2466 -0.1714
12751TIP3    H159744   6.000   5.650   0.996 -1.9963 -0.3729 -2.6062
12751TIP3    H259745   6.095   5.618   0.883  1.2608  0.1247 -0.1478
12752TIP3   OH259746   0.727   2.090  15.384  0.1573 -0.3759  0.0700
12752TIP3    H159747   0.730   2.159  15.450  1.0559  2.5506 -2.7620
12752TIP3    H259748   0.786   2.022  15.417  0.7571  1.0647  2.1407
12753TIP3   OH259749   2.700   2.832  16.856 -0.9644 -0.1714  0.0598
12753TIP3    H159750   2.713   2.894  16.927  1.5663 -1.3965  0.8033
12753TIP3    H259751   2.628   2.776  16.885 -0.8518  0.1791  1.0501
12754TIP3   OH259752   1.396   0.970  15.005 -0.8974  0.2662 -0.1793
12754TIP3    H159753   1.403   1.063  15.026 -2.1753 -0.0140  1.7299
12754TIP3    H259754   1.302   0.952  15.003 -0.7719 -1.6287  3.0467
12755TIP3   OH259755   2.962   2.269   0.641  0.3372  0.2117  0.3310
12755TIP3    H159756   2.968   2.358   0.606 -0.0096  0.2024  0.2463
12755TIP3    H259757   2.922   2.280   0.728  0.2798  0.1375  0.3140
12756TIP3   OH259758   2.586   0.787  11.292  0.2619  0.0884  0.7496
12756TIP3    H159759   2.644   0.715  11.319 -0.8349 -0.9778  0.3679
12756TIP3    H259760   2.624   0.865  11.333  1.1831 -0.7797  1.6221
12757TIP3   OH259761   2.753   5.704   2.119  0.3911 -0.6152  0.1238
12757TIP3    H159762   2.754   5.759   2.197  0.7624  0.6261 -0.7212
12757TIP3    H259763   2.706   5.625   2.146 -0.3562  0.1955  1.3223
12758TIP3   OH259764   5.014   1.335   0.901 -0.3940  0.5356  0.1883
12758TIP3    H159765   4.968   1.398   0.958 -0.0121  1.2374 -0.2598
12758TIP3    H259766   4.948   1.306   0.839 -0.4498  0.8763  0.0859
12759TIP3   OH259767   5.745   4.704  14.072  0.1134 -0.5001 -0.3203
12759TIP3    H159768   5.683   4.636  14.099  1.9422 -1.1329  2.7758
12759TIP3    H259769   5.826   4.656  14.055  1.3042  0.7499  1.4304
12760TIP3   OH259770   2.212   1.492   1.439 -0.5462 -0.0296 -0.4365
12760TIP3    H159771   2.231   1.569   1.493  0.0993 -1.0605  0.8533
12760TIP3    H259772   2.116   1.489   1.435 -0.5764  0.8996 -0.5995
12761TIP3   OH259773   5.933   3.716   2.695  0.2807  0.1769 -0.2287
12761TIP3    H159774   5.896   3.804   2.687  0.8608  0.4781  0.2964
12761TIP3    H259775   5.914   3.674   2.611 -0.7396  0.5084 -0.1742
12762TIP3   OH259776   4.024   1.942  17.058 -0.0584  0.0749  0.3333
12762TIP3    H159777   4.065   1.888  17.125 -0.7364 -0.1525  0.5715
12762TIP3    H259778   3.931   1.920  17.063 -0.0627 -0.3456 -1.0327
12763TIP3   OH259779   4.831   6.421   4.348  0.4261  0.5214 -0.1182
12763TIP3    H159780   4.833   6.515   4.363  1.4511  1.2077 -3.6264
12763TIP3    H259781   4.742   6.403   4.318  0.4978  0.5187 -0.3255
12764TIP3   OH259782   3.085   4.292  12.790 -0.2538 -0.1827  0.7330
12764TIP3    H159783   3.030   4.213  12.784 -1.4892  0.7053 -0.1747
12764TIP3    H259784   3.038   4.349  12.850  1.3687 -0.6488  2.5368
12765TIP3   OH259785   6.809   2.687  17.089 -0.3454 -0.0573 -0.4254
12765TIP3    H159786   6.814   2.611  17.032 -1.2170 -0.9331  0.6080
12765TIP3    H259787   6.756   2.750  17.041  1.4053  0.4316 -1.8176
12766TIP3   OH259788   0.257   4.432  11.312 -0.0058 -0.5749 -0.5963
12766TIP3    H159789   0.252   4.513  11.363 -1.9124  0.7380 -2.6477
12766TIP3    H259790   0.349   4.424  11.289  0.2228  1.0895 -0.4213
12767TIP3   OH259791   4.476   3.463  16.995 -0.4792 -0.1522  0.2395
12767TIP3    H159792   4.476   3.558  16.985  1.7503 -0.3065 -2.4316
12767TIP3    H259793   4.413   3.432  16.930  0.2646 -0.5406 -0.3106
12768TIP3   OH259794   3.052   0.578   3.417 -0.1046 -0.4570  0.4804
12768TIP3    H159795   3.052   0.585   3.512 -2.9369 -1.3253  0.6261
12768TIP3    H259796   3.016   0.491   3.399 -0.1300 -0.1037 -1.3806
12769TIP3   OH259797   4.333   0.496  16.537 -0.2297 -0.5088 -0.3572
12769TIP3    H159798   4.310   0.414  16.493 -2.7504 -0.6954  1.1181
12769TIP3    H259799   4.269   0.559  16.506  0.7933  0.5613 -0.3795
12770TIP3   OH259800   4.918   4.489   0.495  0.1361 -0.2872 -0.0336
12770TIP3    H159801   4.824   4.473   0.493 -0.1253  1.1637 -0.6005
12770TIP3    H259802   4.954   4.414   0.543 -1.3836 -0.4566  0.9122
12771TIP3   OH259803   1.112   5.786  17.002 -0.9241 -0.3196  0.2050
12771TIP3    H159804   1.136   5.779  16.910  1.4570  2.3812  0.4765
12771TIP3    H259805   1.195   5.798  17.048 -2.1458 -0.1968  2.5342
12772TIP3   OH259806   3.645   3.280  10.981  0.4884 -0.5955  0.3333
12772TIP3    H159807   3.629   3.344  10.912  0.4089 -0.9873 -0.0126
12772TIP3    H259808   3.683   3.205  10.936 -1.0698 -1.5065  0.4482
12773TIP3   OH259809   2.351   1.844  12.612 -0.3548 -0.5342  0.0012
12773TIP3    H159810   2.338   1.820  12.521  0.6049 -0.5689 -0.1368
12773TIP3    H259811   2.277   1.804  12.659 -2.2301  1.4764 -1.0615
12774TIP3   OH259812   3.943   5.336  15.032 -0.9298  0.1105  0.2345
12774TIP3    H159813   3.851   5.311  15.027 -0.7978 -0.2079 -1.9415
12774TIP3    H259814   3.990   5.253  15.021 -0.4109  0.4054  0.2169
12775TIP3   OH259815   2.990   3.614  13.940 -0.7769 -0.1082  0.5756
12775TIP3    H159816   3.002   3.681  13.872 -0.2650  0.4218  1.1848
12775TIP3    H259817   2.902   3.579  13.923 -1.2219  1.0111  0.5134
12776TIP3   OH259818   4.401   1.264   5.762 -0.0470 -0.5197 -0.0779
12776TIP3    H159819   4.492   1.289   5.752 -0.7593  2.1313 -0.7307
12776TIP3    H259820   4.388   1.255   5.857  0.6435  0.1228  0.0794
12777TIP3   OH259821   1.602   6.820  14.783  0.1845 -0.6925  0.1409
12777TIP3    H159822   1.520   6.861  14.755  0.6654  0.0153 -0.2687
12777TIP3    H259823   1.597   6.730  14.749  1.2111  0.3873 -3.3398
12778TIP3   OH259824   5.466   3.800   0.036  0.3617  0.2557 -0.6461
12778TIP3    H159825   5.449   3.792   0.130  2.0774  1.2193 -0.2129
12778TIP3    H259826   5.560   3.788   0.028  0.1110 -0.8045 -2.3961
12779TIP3   OH259827   6.003   3.803  16.347 -0.5004  0.0267 -0.1519
12779TIP3    H159828   5.952   3.781  16.425 -1.0880 -0.0801 -0.5619
12779TIP3    H259829   5.962   3.882  16.313  0.7677  1.0281  0.5493
12780TIP3   OH259830   4.619   3.838  14.555 -0.0977  0.1416 -0.2756
12780TIP3    H159831   4.669   3.874  14.482 -0.7221  0.0342 -0.7581
12780TIP3    H259832   4.527   3.848  14.530 -0.3357  0.4399  0.6532
12781TIP3   OH259833   6.383   1.071   1.904 -0.8268  0.1172 -0.5399
12781TIP3    H159834   6.336   1.154   1.909  2.3592  1.9995  1.5990
12781TIP3    H259835   6.372   1.031   1.990  0.6876  0.2248 -0.2580
12782TIP3   OH259836   6.798   0.442  11.856  0.5520 -0.3974  0.2170
12782TIP3    H159837   6.810   0.385  11.780  0.3379 -0.4406  0.2166
12782TIP3    H259838   6.728   0.501  11.830  1.2412  0.3268 -0.0545
12783TIP3   OH259839   3.571   5.838  16.737 -0.4212 -0.1913 -0.1551
12783TIP3    H159840   3.559   5.774  16.808 -0.2151 -0.9880 -0.8178
12783TIP3    H259841   3.647   5.889  16.763 -0.1111 -0.7365  0.0178
12784TIP3   OH259842   5.665   6.789  16.968 -0.2197  0.1364  0.6405
12784TIP3    H159843   5.657   6.792  16.873  0.3074 -3.8431  0.2951
12784TIP3    H259844   5.577   6.768  16.999 -0.4355  1.6157  1.1315
12785TIP3   OH259845   3.921   2.918  16.836 -0.5619 -0.4482 -0.2126
12785TIP3    H159846   4.014   2.898  16.822 -0.0638  0.9934  0.8432
12785TIP3    H259847   3.906   2.999  16.788 -1.1543 -0.3977  0.0477
12786TIP3   OH259848   5.253   3.627  10.757 -0.4338  0.7092  0.0952
12786TIP3    H159849   5.204   3.706  10.736 -1.0635  0.3635  0.2483
12786TIP3    H259850   5.200   3.556  10.722  0.9559  0.4272 -1.6230
12787TIP3   OH259851   3.313   5.256   3.678  0.1644 -0.5225 -0.1277
12787TIP3    H159852   3.303   5.333   3.621  0.1134  0.1613  0.7940
12787TIP3    H259853   3.253   5.272   3.751  0.9652 -0.9174  0.6321
12788TIP3   OH259854   6.768   5.329  11.410 -0.3542  0.2849 -0.1680
12788TIP3    H159855   6.740   5.336  11.501 -0.0777  0.1669 -0.0729
12788TIP3    H259856   6.700   5.276  11.368 -0.4318  0.2585 -0.0093
12789TIP3   OH259857   4.397   4.208  12.302  0.2447  0.0059  0.4672
12789TIP3    H159858   4.455   4.275  12.339  0.5375  0.5919 -0.9765
12789TIP3    H259859   4.400   4.136  12.365 -0.2374  1.4019  2.1649
12790TIP3   OH259860   4.959   0.486   4.804  0.4824 -0.5399  0.1397
12790TIP3    H159861   5.040   0.531   4.780  0.2001 -1.3436 -2.6650
12790TIP3    H259862   4.985   0.421   4.868  1.5984  0.7816  1.0882
12791TIP3   OH259863   1.634   0.243   1.072  0.0389  0.1054 -0.5344
12791TIP3    H159864   1.598   0.295   1.000 -0.6182  0.5375  0.0957
12791TIP3    H259865   1.600   0.155   1.057 -0.7083  0.3588 -0.3408
12792TIP3   OH259866   2.678   5.596  12.477  0.2825  0.2412  0.4124
12792TIP3    H159867   2.741   5.668  12.481  0.0902  0.3618  2.0178
12792TIP3    H259868   2.649   5.584  12.568 -1.6849 -0.0964 -0.1997
12793TIP3   OH259869   4.259   5.648   0.581 -0.0362  0.4317 -0.1869
12793TIP3    H159870   4.298   5.561   0.573  0.6033  0.8745 -2.9142
12793TIP3    H259871   4.169   5.638   0.549  0.6558  1.0792 -2.5468
12794TIP3   OH259872   0.031   6.046  10.492  0.6835  0.2184  0.0275
12794TIP3    H159873   0.089   6.015  10.562  0.4345  0.4198  0.3224
12794TIP3    H259874   0.081   6.115  10.448  0.8720  0.0364 -0.0466
12795TIP3   OH259875   6.295   5.435  16.147  0.5659 -0.3477 -0.0041
12795TIP3    H159876   6.241   5.377  16.201  1.4244  0.4479  1.7870
12795TIP3    H259877   6.363   5.465  16.206  0.8669  1.5065 -1.2357
12796TIP3   OH259878   2.004   0.034   7.058  0.1738  0.0125  0.0878
12796TIP3    H159879   1.945  -0.035   7.025  0.1269 -0.1781  0.5615
12796TIP3    H259880   1.948   0.111   7.068  0.1069 -0.0356  0.0836
12797TIP3   OH259881   3.976   3.952  16.795  0.3709  0.7562 -0.4081
12797TIP3    H159882   4.018   4.020  16.742  0.6093  1.4152  0.5930
12797TIP3    H259883   3.957   3.881  16.733  1.9496  0.9019 -1.0976
12798TIP3   OH259884   5.705   1.037   4.896  0.0977 -0.1598  0.4269
12798TIP3    H159885   5.776   1.074   4.843 -1.3391 -0.7320 -2.0665
12798TIP3    H259886   5.671   1.111   4.946  1.0145  0.5947 -0.0245
12799TIP3   OH259887   5.795   6.177   3.284  0.0912 -0.0001 -0.2308
12799TIP3    H159888   5.859   6.166   3.354  0.5231 -0.6465 -0.7255
12799TIP3    H259889   5.768   6.088   3.260 -2.2668  0.2496  1.1062
12800TIP3   OH259890   0.055   6.302  13.615  0.3239 -0.6897  0.4006
12800TIP3    H159891   0.144   6.336  13.613  0.3090 -0.5615 -2.3390
12800TIP3    H259892   0.065   6.210  13.636  0.9083 -0.2940  1.9640
12801TIP3   OH259893   2.952   3.926  17.073 -0.1359  0.1195  0.3686
12801TIP3    H159894   2.886   3.904  17.008 -0.6001 -0.0341  0.8866
12801TIP3    H259895   2.916   4.002  17.119  0.8094  1.0974 -0.4498
12802TIP3   OH259896   3.042   3.534  11.355 -0.2445  0.3043  0.0308
12802TIP3    H159897   3.052   3.473  11.282 -1.6171  0.6753 -0.4915
12802TIP3    H259898   3.119   3.517  11.410  0.0520 -1.0163 -0.7313
12803TIP3   OH259899   3.336   6.623   1.527 -0.2576 -0.3930 -0.1278
12803TIP3    H159900   3.319   6.541   1.481 -1.3237  0.6200 -1.6167
12803TIP3    H259901   3.276   6.687   1.487  1.7130  1.5325 -0.1926
12804TIP3   OH259902   2.591   1.074  16.379 -0.5994  0.2290  0.1837
12804TIP3    H159903   2.555   1.124  16.452  3.4477  1.8025  1.3712
12804TIP3    H259904   2.569   1.126  16.301 -1.9970  0.3560  0.6427
12805TIP3   OH259905   6.746   1.827   0.687  1.3018  0.6232 -0.2136
12805TIP3    H159906   6.747   1.796   0.777 -0.1351 -2.0547 -0.9971
12805TIP3    H259907   6.821   1.785   0.646 -1.5756 -3.7590 -1.6998
12806TIP3   OH259908   3.848   6.062   0.372 -0.7683 -0.4352 -0.3857
12806TIP3    H159909   3.824   6.059   0.464  0.1688  1.1084 -0.0515
12806TIP3    H259910   3.941   6.086   0.373 -0.6383 -0.8163 -1.7241
12807TIP3   OH259911   4.308   6.446  17.139 -0.1595  0.1591  0.3620
12807TIP3    H159912   4.361   6.472  17.064  0.6121 -1.4739  0.2805
12807TIP3    H259913   4.366   6.391  17.192 -1.2160 -0.1685  1.2388
12808TIP3   OH259914   5.552   0.776  17.074  0.1960  0.2173  0.0125
12808TIP3    H159915   5.519   0.700  17.025 -0.4463  1.0686 -0.9171
12808TIP3    H259916   5.501   0.776  17.155  0.7092 -0.7536  0.3409
12809TIP3   OH259917   4.618   3.044  10.987 -0.5702 -0.0655 -0.1959
12809TIP3    H159918   4.684   3.112  10.975  0.0900 -0.7834 -0.6855
12809TIP3    H259919   4.607   3.037  11.082 -0.5387  0.6129 -0.1376
12810TIP3   OH259920   4.581   1.228  11.845  0.2500  0.4496 -0.0467
12810TIP3    H159921   4.578   1.223  11.941  2.8540 -1.6099  0.0397
12810TIP3    H259922   4.671   1.255  11.826 -0.5826  2.1728 -1.9634
12811TIP3   OH259923   4.782   1.934  15.724 -0.2817 -0.0211 -0.4318
12811TIP3    H159924   4.702   1.885  15.744 -0.0129  0.3969  2.0455
12811TIP3    H259925   4.751   2.024  15.710 -0.3361  0.0097 -0.1363
12812TIP3   OH259926   5.167   1.301  15.628  0.0992  0.2355  0.0794
12812TIP3    H159927   5.258   1.273  15.623  0.4560  1.2810  0.3737
12812TIP3    H259928   5.151   1.312  15.722 -0.0679  0.8341 -0.0126
12813TIP3   OH259929   2.385   3.447   4.022 -0.0333  0.6697  0.3335
12813TIP3    H159930   2.417   3.528   3.982  0.4402  0.2450 -0.1740
12813TIP3    H259931   2.435   3.378   3.978  0.6903  0.1877  1.8559
12814TIP3   OH259932   6.550   5.710  14.483 -0.0342  0.0733  0.1083
12814TIP3    H159933   6.605   5.777  14.441 -0.5510  0.2127 -0.3504
12814TIP3    H259934   6.584   5.627  14.450  0.3953  0.1176  0.4244
12815TIP3   OH259935   5.483   5.269   1.226  0.4452 -0.4410  0.1999
12815TIP3    H159936   5.401   5.221   1.235  0.3676 -0.6419 -1.2895
12815TIP3    H259937   5.498   5.308   1.312 -2.5348  1.7262 -0.1186
12816TIP3   OH259938   0.957   1.242  17.183 -0.4932  0.2462 -0.1426
12816TIP3    H159939   0.987   1.331  17.169  2.1084 -0.4697  0.3936
12816TIP3    H259940   0.905   1.221  17.106 -1.0529  2.1559 -0.3238
12817TIP3   OH259941   3.796   5.734   0.756  0.3873  0.0899 -0.3040
12817TIP3    H159942   3.805   5.748   0.851  0.2208 -0.4832 -0.2012
12817TIP3    H259943   3.711   5.773   0.735 -0.4373 -1.3959  0.1218
12818TIP3   OH259944   0.929   2.401  13.348 -0.5724  0.2599  0.0988
12818TIP3    H159945   0.941   2.356  13.432  2.4060  0.4233 -0.1175
12818TIP3    H259946   0.880   2.339  13.294 -0.0469 -1.0542  1.0869
12819TIP3   OH259947   0.426   2.347   1.259 -0.0957  0.0352 -0.5961
12819TIP3    H159948   0.373   2.427   1.262  0.7284  0.5631  0.0731
12819TIP3    H259949   0.362   2.277   1.246 -0.8638  0.7587 -0.8116
12820TIP3   OH259950   1.433   4.840  11.766 -0.0243 -0.2661 -0.4115
12820TIP3    H159951   1.400   4.764  11.718 -1.0335  0.1006 -0.3267
12820TIP3    H259952   1.526   4.822  11.779  0.2474 -0.4715 -2.3303
12821TIP3   OH259953   4.136   0.341   3.030  0.2661  0.1370 -0.6857
12821TIP3    H159954   4.212   0.299   2.990 -0.8540 -1.1608 -1.5656
12821TIP3    H259955   4.064   0.281   3.012 -0.6875  0.5182  1.5253
12822TIP3   OH259956   1.719   4.683   5.283  0.0148  0.4358 -0.5040
12822TIP3    H159957   1.755   4.634   5.209  0.5673 -0.1301  0.1158
12822TIP3    H259958   1.695   4.768   5.247  0.1157  0.1045 -1.3655
12823TIP3   OH259959   4.370   4.792   3.984 -0.1845 -0.1006 -0.0448
12823TIP3    H159960   4.350   4.735   3.909  2.0945 -1.4535  0.2825
12823TIP3    H259961   4.323   4.752   4.057  3.2320 -3.2435  0.7272
12824TIP3   OH259962   5.036   0.337  13.270 -0.0817  0.1291 -0.1375
12824TIP3    H159963   5.116   0.316  13.221  0.2160  2.2723 -0.6631
12824TIP3    H259964   4.994   0.407  13.219 -1.8558 -0.3607  0.5936
12825TIP3   OH259965   3.243   0.829  13.148  0.5148 -0.0475  0.0810
12825TIP3    H159966   3.324   0.815  13.098 -0.0342  0.1167 -0.8887
12825TIP3    H259967   3.250   0.770  13.223  2.2626  1.1565  0.9177
12826TIP3   OH259968   0.290   1.575  16.657  0.2242 -0.5805 -0.3367
12826TIP3    H159969   0.309   1.657  16.610 -1.2685  0.1166  0.1956
12826TIP3    H259970   0.277   1.510  16.588  0.1067 -0.0549 -0.8150
12827TIP3   OH259971   2.833   4.550   2.748 -0.6713 -0.1253  0.5340
12827TIP3    H159972   2.787   4.566   2.830  0.4103 -0.0871  1.1566
12827TIP3    H259973   2.858   4.458   2.751  0.3533  0.1478  0.7788
12828TIP3   OH259974   2.533   2.142   3.557 -0.3531  0.6080  0.0924
12828TIP3    H159975   2.565   2.051   3.553 -2.9593 -0.3464 -1.1927
12828TIP3    H259976   2.471   2.141   3.630 -0.0369  1.4974  0.3755
12829TIP3   OH259977   4.167   5.759   1.894  0.2818 -0.3763 -0.9423
12829TIP3    H159978   4.118   5.685   1.931 -0.1837 -0.4476 -1.6845
12829TIP3    H259979   4.227   5.785   1.964 -1.4272  0.3015  0.3206
12830TIP3   OH259980   1.876   0.305  12.805  1.0328  0.2020  0.5891
12830TIP3    H159981   1.853   0.390  12.766 -0.1284  0.1747  1.1562
12830TIP3    H259982   1.942   0.326  12.871 -0.6312  0.9902  2.0919
12831TIP3   OH259983   4.917   1.759   4.509  0.3638 -0.4145  0.0923
12831TIP3    H159984   4.868   1.682   4.483 -1.7358  1.2241 -1.1374
12831TIP3    H259985   5.004   1.746   4.471 -0.3637 -1.5803 -1.2758
12832TIP3   OH259986   5.740   4.417  16.666  0.6489  0.2355  0.2026
12832TIP3    H159987   5.799   4.400  16.739  1.2116 -1.4609 -0.6038
12832TIP3    H259988   5.794   4.408  16.588 -0.3908 -0.0771 -0.5134
12833TIP3   OH259989   4.769   0.924   1.447  0.0640  0.5724  0.2129
12833TIP3    H159990   4.808   0.985   1.510  1.3090 -0.6549  0.6857
12833TIP3    H259991   4.830   0.924   1.373  0.7862 -1.0303  0.7675
12834TIP3   OH259992   1.176   0.419   5.009 -0.1873 -0.0064  0.1901
12834TIP3    H159993   1.140   0.330   5.012  0.6535 -0.3322  0.8017
12834TIP3    H259994   1.208   0.436   5.098 -1.1760  1.2728  0.3318
12835TIP3   OH259995   3.497   6.078  14.691 -0.1763  0.6120  0.2468
12835TIP3    H159996   3.425   6.038  14.642  2.5980 -2.6016 -1.6827
12835TIP3    H259997   3.550   6.122  14.625  1.5129 -0.3300  0.8908
12836TIP3   OH259998   1.316   6.518  14.624 -0.8185 -0.1150  0.3722
12836TIP3    H159999   1.273   6.439  14.591 -0.9603  0.0983  0.0432
12836TIP3    H260000   1.276   6.589  14.574 -1.1396  0.2268  1.0951
12837TIP3   OH260001   5.583   6.792  12.572  0.0878  0.2541  0.4878
12837TIP3    H160002   5.623   6.705  12.569  0.7174  0.5214  0.9115
12837TIP3    H260003   5.492   6.777  12.546  0.3309 -0.4432  0.0068
12838TIP3   OH260004   2.434   2.458   4.060 -0.5458  0.0688 -0.8962
12838TIP3    H160005   2.510   2.514   4.046 -1.4580  1.4994 -0.3813
12838TIP3    H260006   2.392   2.493   4.139 -2.1524 -0.1655 -1.5937
12839TIP3   OH260007   3.173   0.602  10.501  0.1454 -0.4159  0.6076
12839TIP3    H160008   3.078   0.604  10.504  0.1080 -0.6134 -0.1980
12839TIP3    H260009   3.197   0.518  10.540 -0.0993 -1.0874 -0.6198
12840TIP3   OH260010   2.055   2.863   0.946  0.4029  0.0699 -0.2379
12840TIP3    H160011   2.019   2.810   1.017  0.4356  2.6557  1.8605
12840TIP3    H260012   1.982   2.920   0.921  1.3526  1.4272  0.0381
12841TIP3   OH260013   3.973   6.378   1.508 -0.7553  0.3824 -0.5823
12841TIP3    H160014   3.903   6.384   1.443 -0.8224  0.3740 -0.5117
12841TIP3    H260015   3.940   6.427   1.583 -0.8956 -0.0364 -0.3639
12842TIP3   OH260016   6.635   5.483  15.877  0.0647  0.5048 -0.1334
12842TIP3    H160017   6.655   5.446  15.791  1.1953  0.4142  0.1534
12842TIP3    H260018   6.654   5.412  15.938  0.3294  0.9249  0.2742
12843TIP3   OH260019   0.039   3.341   3.952  0.0790 -0.2191  0.1631
12843TIP3    H160020   0.097   3.280   3.906 -0.3659 -0.6159  0.1244
12843TIP3    H260021   0.066   3.333   4.044 -0.9914 -1.6413  0.3884
12844TIP3   OH260022   0.034   6.742  15.032 -0.4807 -0.0232  0.4474
12844TIP3    H160023   0.113   6.789  15.059  0.4426 -1.3705  0.1933
12844TIP3    H260024   0.055   6.650  15.046 -1.6975 -0.4598 -0.4473
12845TIP3   OH260025   3.057   3.279   5.525 -0.2387 -0.1152 -0.2326
12845TIP3    H160026   3.107   3.226   5.463 -1.3770 -1.1916 -0.2673
12845TIP3    H260027   2.996   3.327   5.471 -1.2386 -1.0603  0.0176
12846TIP3   OH260028   1.458   2.037  10.916 -0.5973  0.1978  0.8506
12846TIP3    H160029   1.401   2.114  10.916  0.9269  1.3787  0.1838
12846TIP3    H260030   1.426   1.984  10.843  0.2291  1.7314 -0.6988
12847TIP3   OH260031   3.469   5.745   0.953  0.7031 -0.4002  0.2702
12847TIP3    H160032   3.503   5.765   0.866 -1.5421 -1.7137 -1.0033
12847TIP3    H260033   3.387   5.699   0.937 -0.7700  0.9695  3.1121
12848TIP3   OH260034   1.587   5.505   1.888 -0.0505 -0.0403 -0.3325
12848TIP3    H160035   1.678   5.527   1.908  0.2028  1.5984 -2.8252
12848TIP3    H260036   1.536   5.572   1.935  0.2046  0.5251 -0.8436
12849TIP3   OH260037   0.414   5.775  16.548  0.6071 -0.1357  0.0455
12849TIP3    H160038   0.439   5.862  16.516  0.8868 -0.9381 -2.0665
12849TIP3    H260039   0.496   5.727  16.554  0.4298 -0.3338  1.0298
12850TIP3   OH260040   2.770   3.473  12.789 -0.5407 -0.7993  0.3043
12850TIP3    H160041   2.781   3.391  12.742  1.8805 -0.4780  0.1678
12850TIP3    H260042   2.794   3.452  12.879 -1.0294 -0.4895  0.5098
12851TIP3   OH260043   0.662   2.551  15.695  0.6117 -0.4375 -0.0726
12851TIP3    H160044   0.608   2.622  15.658  0.0176 -1.9007 -2.1927
12851TIP3    H260045   0.603   2.504  15.754  0.5328 -0.1441  0.0848
12852TIP3   OH260046   3.813   6.146  14.869  0.0019 -0.5334  0.1144
12852TIP3    H160047   3.904   6.163  14.895 -0.0228  0.4809 -0.3936
12852TIP3    H260048   3.815   6.150  14.773 -0.6500 -0.1372  0.1178
12853TIP3   OH260049   3.229   2.764  14.082  0.0667  0.0874 -0.4599
12853TIP3    H160050   3.244   2.736  13.992  1.3994 -1.3122  0.1658
12853TIP3    H260051   3.291   2.836  14.096  1.5347 -1.2117  0.0089
12854TIP3   OH260052   5.870   0.876  15.318  0.6570  0.3727 -0.3076
12854TIP3    H160053   5.787   0.877  15.365  0.4616 -3.1572 -0.3016
12854TIP3    H260054   5.853   0.926  15.238 -1.8623 -1.0575 -0.7736
12855TIP3   OH260055   2.924   1.443  13.860 -0.0263 -0.6617 -0.0435
12855TIP3    H160056   2.872   1.523  13.866 -0.5949 -1.1002  1.2012
12855TIP3    H260057   2.874   1.385  13.803 -0.0419 -0.4399 -0.2524
12856TIP3   OH260058   2.181   3.011   1.275 -0.2608 -0.4256  0.1772
12856TIP3    H160059   2.121   3.080   1.304  0.5477  0.2064  0.3896
12856TIP3    H260060   2.139   2.929   1.300  0.1433  0.0683  2.6638
12857TIP3   OH260061   2.564   1.045   0.874 -0.3889  0.3597  0.2830
12857TIP3    H160062   2.481   0.998   0.869  0.6812 -1.7496  1.4126
12857TIP3    H260063   2.617   1.009   0.803 -0.0128  0.8842  0.2885
12858TIP3   OH260064   4.174   3.715  15.520  0.1781  0.5728 -0.1964
12858TIP3    H160065   4.155   3.656  15.593 -3.0294  0.7223 -0.7629
12858TIP3    H260066   4.090   3.728  15.477  0.6806  5.4369 -0.2508
12859TIP3   OH260067   4.950   1.283   0.203 -0.0047 -0.3877 -0.1573
12859TIP3    H160068   4.892   1.264   0.129  0.2242  0.5111 -0.5826
12859TIP3    H260069   5.035   1.301   0.163  1.0184 -3.1540  0.5524
12860TIP3   OH260070   0.362   0.405  13.368  0.3591  0.3139 -0.5808
12860TIP3    H160071   0.351   0.500  13.359 -2.5510  0.1573  0.4295
12860TIP3    H260072   0.383   0.375  13.279 -1.0538  1.6459 -1.4126
12861TIP3   OH260073   2.154   0.168  13.437 -0.7211  0.1865 -0.3931
12861TIP3    H160074   2.120   0.129  13.517 -0.1740  0.2730 -0.1170
12861TIP3    H260075   2.220   0.106  13.406 -2.2462 -0.8068 -1.8221
12862TIP3   OH260076   3.841   2.612   5.696  0.5623  0.0054 -0.0037
12862TIP3    H160077   3.881   2.645   5.615 -0.5417  1.8469  0.1410
12862TIP3    H260078   3.810   2.691   5.741 -0.1398 -1.0978  1.5260
12863TIP3   OH260079   0.762   6.182   5.354 -0.0069 -0.0828 -0.3059
12863TIP3    H160080   0.810   6.099   5.361  0.8190  0.2895 -1.2997
12863TIP3    H260081   0.746   6.208   5.445  1.6902 -0.2285  0.0678
12864TIP3   OH260082   0.101   1.049   3.973 -0.3724 -0.3975  0.2057
12864TIP3    H160083   0.196   1.053   3.962  0.1341 -0.6533  3.6038
12864TIP3    H260084   0.074   0.978   3.915  1.5987 -0.8920 -0.2035
12865TIP3   OH260085   3.381   4.372   2.699 -0.0388  0.1604  0.5586
12865TIP3    H160086   3.406   4.383   2.791  3.3159 -1.5590  0.0278
12865TIP3    H260087   3.417   4.448   2.655  1.2437 -0.5701  0.2893
12866TIP3   OH260088   3.330   4.698   0.985  0.4890  0.8317 -0.1283
12866TIP3    H160089   3.398   4.742   1.036  0.2591 -0.4381  1.3486
12866TIP3    H260090   3.357   4.606   0.984 -0.3076  0.5916 -1.0304
12867TIP3   OH260091   5.444   3.752  13.147  0.6156  0.5213  0.2280
12867TIP3    H160092   5.370   3.691  13.133  1.4626 -0.7179  0.9791
12867TIP3    H260093   5.407   3.822  13.201 -0.4002  0.7463 -0.7110
12868TIP3   OH260094   5.537   6.599  11.983 -0.1147  0.5762 -0.1545
12868TIP3    H160095   5.504   6.518  12.023 -0.0274  0.1815 -0.8530
12868TIP3    H260096   5.626   6.608  12.015 -0.9740  1.8726  2.0850
12869TIP3   OH260097   3.160   0.157   1.866  0.1222 -0.4812 -0.6714
12869TIP3    H160098   3.175   0.158   1.771 -0.3160  0.0417 -0.7410
12869TIP3    H260099   3.238   0.115   1.902  1.5773  1.7195 -1.0454
12870TIP3   OH260100   3.067   1.002   1.228  0.2088 -0.0267 -0.6728
12870TIP3    H160101   3.160   1.000   1.206 -0.0574 -0.4027 -1.8027
12870TIP3    H260102   3.057   1.084   1.278  1.1623 -0.0622 -0.3924
12871TIP3   OH260103   4.888   6.265  16.584 -0.0266  0.4194 -0.3120
12871TIP3    H160104   4.911   6.295  16.672  1.2612 -0.5464 -0.3050
12871TIP3    H260105   4.912   6.338  16.527 -0.4657  0.8803  0.0822
12872TIP3   OH260106   4.850   6.780   1.650  0.3469  0.3842 -0.5480
12872TIP3    H160107   4.818   6.868   1.670 -0.9070  0.0466 -1.0435
12872TIP3    H260108   4.823   6.764   1.560 -1.3470 -1.3229  0.2026
12873TIP3   OH260109   0.938   4.925   3.961 -0.2518 -0.1710 -0.3766
12873TIP3    H160110   0.867   4.906   4.022  0.9857  1.7648  1.8219
12873TIP3    H260111   0.920   5.014   3.931  1.3334  0.4947  0.4830
12874TIP3   OH260112   2.497   6.480   2.580 -0.0884 -0.1313  0.2802
12874TIP3    H160113   2.423   6.439   2.536  0.6953 -0.7103 -0.5406
12874TIP3    H260114   2.488   6.453   2.672 -0.3980 -0.9464  0.0230
12875TIP3   OH260115   5.652   5.955  16.815  0.0723  0.2250 -0.1845
12875TIP3    H160116   5.571   6.007  16.821  1.0685  1.9035 -0.5902
12875TIP3    H260117   5.721   6.015  16.843  1.4072 -0.5796 -1.6198
12876TIP3   OH260118   5.441   2.543  13.714 -0.2174 -0.2227 -0.0669
12876TIP3    H160119   5.474   2.517  13.627 -1.0730  1.3615 -0.8993
12876TIP3    H260120   5.386   2.619  13.697  2.1019  2.1406  2.2109
12877TIP3   OH260121   3.062   0.707   6.267  0.4738  0.4740  0.1588
12877TIP3    H160122   3.074   0.797   6.298  1.1669 -0.0137  1.3679
12877TIP3    H260123   3.082   0.653   6.343 -0.1702 -0.7058 -0.4880
12878TIP3   OH260124   2.414   1.429  11.793  0.1202 -0.2100 -0.4343
12878TIP3    H160125   2.459   1.409  11.711  1.2616 -0.4575  0.2303
12878TIP3    H260126   2.400   1.524  11.790 -2.4050 -0.5351 -2.1528
12879TIP3   OH260127   1.865   0.614  15.472 -0.1901  0.0121 -0.1285
12879TIP3    H160128   1.835   0.635  15.560 -0.4225  1.1896 -0.4774
12879TIP3    H260129   1.790   0.573  15.430  0.2624 -1.5896  0.5497
12880TIP3   OH260130   0.836   3.351  16.580  0.0148  0.3826  0.1897
12880TIP3    H160131   0.863   3.333  16.490  0.1077 -0.7717  0.4311
12880TIP3    H260132   0.781   3.429  16.574 -1.5533 -0.7680 -1.1461
12881TIP3   OH260133   5.767   5.921   4.863  0.5213  0.1019 -0.6793
12881TIP3    H160134   5.829   5.851   4.839 -0.3151 -0.3295 -1.6613
12881TIP3    H260135   5.712   5.881   4.931  1.5132  0.6086  0.4698
12882TIP3   OH260136   4.696   3.650   0.537  0.0028  0.7112 -0.1166
12882TIP3    H160137   4.791   3.654   0.525 -0.2036  1.5173 -1.7408
12882TIP3    H260138   4.667   3.741   0.525 -1.0348  0.3637 -0.2800
12883TIP3   OH260139   6.216   4.440   5.389 -0.4899 -0.8326  0.8964
12883TIP3    H160140   6.176   4.480   5.312  1.2388  1.0465  0.8712
12883TIP3    H260141   6.144   4.397   5.435 -1.6539 -1.6140 -1.4881
12884TIP3   OH260142   0.861   3.756  12.893 -0.3778  0.1228 -0.0623
12884TIP3    H160143   0.877   3.777  12.801 -2.3835  0.7700 -0.3203
12884TIP3    H260144   0.791   3.816  12.919 -0.1641 -0.3677  1.7588
12885TIP3   OH260145   2.973   6.818  16.422 -0.5118  0.5728  0.0972
12885TIP3    H160146   2.900   6.873  16.392 -0.1947  1.1914  0.4431
12885TIP3    H260147   2.964   6.816  16.517 -0.4782  0.0850  0.0890
12886TIP3   OH260148   2.810   5.982   5.205 -0.3038  0.0384  0.3387
12886TIP3    H160149   2.859   5.901   5.188  0.8345  0.5665  1.0279
12886TIP3    H260150   2.814   6.029   5.122 -0.4543 -0.3350  0.1145
12887TIP3   OH260151   1.922   6.562  16.080 -0.3671 -0.1803  0.1809
12887TIP3    H160152   2.011   6.551  16.049 -0.9155  0.4191 -1.7434
12887TIP3    H260153   1.930   6.619  16.157  0.9722 -1.0572  0.7154
12888TIP3   OH260154   4.179   0.937   6.325 -0.7697  0.4164  0.2682
12888TIP3    H160155   4.243   0.984   6.272  0.1323 -0.4676  0.5440
12888TIP3    H260156   4.106   0.999   6.335 -0.7957  0.7586 -1.6453
12889TIP3   OH260157   2.051   1.008  16.549 -0.7450 -0.2075  0.6173
12889TIP3    H160158   2.071   1.023  16.456 -1.8811  0.5345  0.4680
12889TIP3    H260159   2.044   0.912  16.556  1.6918 -0.4532  0.4889
12890TIP3   OH260160   4.281   4.095   1.565 -0.0936  0.1356  0.1707
12890TIP3    H160161   4.219   4.048   1.509  0.8711 -0.1456 -0.6967
12890TIP3    H260162   4.278   4.049   1.648 -0.3077 -0.4908 -0.1758
12891TIP3   OH260163   0.240   3.789   3.806  0.2883  0.0475 -0.1281
12891TIP3    H160164   0.155   3.746   3.811  0.9070 -1.1675  0.1413
12891TIP3    H260165   0.299   3.723   3.770  1.0503  0.9923 -0.6543
12892TIP3   OH260166   4.682   2.292  11.372 -0.4900 -0.0647  0.4750
12892TIP3    H160167   4.640   2.347  11.306  0.8259  0.1874 -0.1848
12892TIP3    H260168   4.682   2.346  11.452 -1.9753 -0.3255  0.6750
12893TIP3   OH260169   5.433   4.189  12.614  0.1546 -0.4885  0.1739
12893TIP3    H160170   5.422   4.094  12.613  2.5403 -0.8237 -0.2571
12893TIP3    H260171   5.527   4.202  12.611 -0.1011  1.9169  0.7151
12894TIP3   OH260172   3.287   2.177   2.335 -0.4585  0.1107  0.0582
12894TIP3    H160173   3.343   2.243   2.295  0.1326  1.1019  2.3612
12894TIP3    H260174   3.236   2.142   2.262  1.9299  0.3483 -1.8640
12895TIP3   OH260175   0.734   5.097  13.832 -0.7302 -0.2130  0.3802
12895TIP3    H160176   0.789   5.099  13.910 -0.4113  1.7380  0.1609
12895TIP3    H260177   0.767   5.023  13.781  1.6639  0.8097  0.3060
12896TIP3   OH260178   2.555   1.991  13.290  0.4554 -0.1265 -0.7780
12896TIP3    H160179   2.580   2.079  13.262 -0.3498  0.1056 -0.8019
12896TIP3    H260180   2.461   1.996  13.305  0.4955 -0.8392 -0.2121
12897TIP3   OH260181   6.102   5.005   5.320  0.0261 -0.3592 -0.3787
12897TIP3    H160182   6.034   4.985   5.385 -1.9490  3.6961 -0.8590
12897TIP3    H260183   6.172   5.046   5.371 -0.6323  0.9621 -0.4891
12898TIP3   OH260184   6.099   1.792   0.195 -0.1569  0.1258 -0.0017
12898TIP3    H160185   6.012   1.830   0.206  0.5071  1.5344  0.6159
12898TIP3    H260186   6.135   1.837   0.119  0.7342  0.9347  0.8840
12899TIP3   OH260187   4.979   2.639   3.608  0.1842  0.4934  0.2717
12899TIP3    H160188   4.935   2.658   3.691  1.0891  0.6116  0.7443
12899TIP3    H260189   5.039   2.713   3.596 -0.6165  0.9666 -0.9869
12900TIP3   OH260190   2.083   4.577  12.676 -0.1961  0.1803  0.0299
12900TIP3    H160191   2.036   4.507  12.722 -1.1609  1.3914  0.9703
12900TIP3    H260192   2.062   4.562  12.584 -1.1588 -0.2415  0.2970
12901TIP3   OH260193   4.946   4.829  13.981  0.6604  0.7325 -0.3151
12901TIP3    H160194   5.028   4.787  13.955 -0.9809 -1.6156 -2.1117
12901TIP3    H260195   4.915   4.778  14.056  0.1487  0.6708 -0.5621
12902TIP3   OH260196   1.802   4.025  13.218 -0.6613  0.2604  0.6559
12902TIP3    H160197   1.728   4.075  13.185 -0.3316  0.0394 -0.4794
12902TIP3    H260198   1.787   3.936  13.185 -0.3990 -0.0086  1.2547
12903TIP3   OH260199   3.784   6.107   3.295  1.0399  0.1330 -0.3423
12903TIP3    H160200   3.854   6.098   3.360  0.5820 -0.5817  0.0659
12903TIP3    H260201   3.830   6.125   3.213  1.6156  1.4096  0.2260
12904TIP3   OH260202   0.340   3.277  13.555  0.6866  0.0016 -0.5803
12904TIP3    H160203   0.268   3.273  13.618  1.6827 -0.7094  0.5759
12904TIP3    H260204   0.378   3.364  13.567  0.2023  0.2644 -0.9717
12905TIP3   OH260205   2.434   1.187  16.583 -0.1391  0.1240 -0.4923
12905TIP3    H160206   2.352   1.202  16.631 -0.2107  0.3154 -0.6774
12905TIP3    H260207   2.502   1.223  16.641 -0.0919 -0.7741  0.0418
12906TIP3   OH260208   6.161   2.973  15.754  0.2764 -0.6631 -0.5180
12906TIP3    H160209   6.200   3.053  15.788 -2.0541 -0.0269  0.9353
12906TIP3    H260210   6.168   2.981  15.659  1.1965  0.6592 -0.3718
12907TIP3   OH260211   1.999   5.096  14.452 -0.5469  0.2655  0.4070
12907TIP3    H160212   2.086   5.096  14.490 -0.6327  0.0557  0.6032
12907TIP3    H260213   1.990   5.009  14.413 -0.1839  0.7059 -0.7312
12908TIP3   OH260214   4.855   3.220   1.715 -0.2589 -0.0469 -0.4581
12908TIP3    H160215   4.829   3.163   1.643  0.7126 -1.9003  0.6009
12908TIP3    H260216   4.934   3.265   1.683 -0.8984  0.5698 -1.2096
12909TIP3   OH260217   2.822   2.103   3.997 -0.1691  0.6635 -0.3349
12909TIP3    H160218   2.811   2.019   3.952 -0.3813 -1.5183  3.4124
12909TIP3    H260219   2.916   2.110   4.012 -0.4067 -0.7415  2.3110
12910TIP3   OH260220   1.336   3.503   5.227  0.3358  0.3639 -0.2035
12910TIP3    H160221   1.381   3.470   5.305 -0.5701 -0.4075  0.0163
12910TIP3    H260222   1.316   3.424   5.176 -0.1542  0.7491 -0.6216
12911TIP3   OH260223   4.536   3.250   1.744  0.4486  0.0440  0.2512
12911TIP3    H160224   4.488   3.308   1.685 -0.0440 -0.6149 -0.0134
12911TIP3    H260225   4.519   3.285   1.832  0.9509  0.8624  0.0348
12912TIP3   OH260226   1.850   2.370  12.266  0.5047  0.3498  0.0638
12912TIP3    H160227   1.825   2.424  12.191 -0.3697 -0.4538 -0.2380
12912TIP3    H260228   1.773   2.371  12.323 -0.0633 -1.6750 -0.5882
12913TIP3   OH260229   3.819   2.669  16.133 -0.5495 -0.1611 -0.4039
12913TIP3    H160230   3.773   2.599  16.181 -0.2087  1.0471  1.8158
12913TIP3    H260231   3.754   2.739  16.126 -0.6037 -0.3298 -1.8180
12914TIP3   OH260232   1.985   1.775   2.866 -0.0132 -0.3653  0.0728
12914TIP3    H160233   1.918   1.791   2.801  0.5956 -1.1461 -0.7708
12914TIP3    H260234   1.947   1.709   2.925 -1.1668  1.4750  1.4769
12915TIP3   OH260235   1.131   6.080   3.549 -0.0624  0.2500  0.3623
12915TIP3    H160236   1.082   6.088   3.631 -0.1363 -1.1434  0.4726
12915TIP3    H260237   1.066   6.099   3.480  0.0032  1.4364  0.5946
12916TIP3   OH260238   3.725   6.794  10.460 -0.4061 -0.7278  0.0988
12916TIP3    H160239   3.666   6.729  10.421  0.3386 -1.6494  0.4611
12916TIP3    H260240   3.809   6.749  10.467 -0.3805 -0.4477  2.3377
12917TIP3   OH260241   3.423   3.769   4.034  0.1055 -0.3865  0.2282
12917TIP3    H160242   3.328   3.779   4.044  0.0392  0.2712 -0.8780
12917TIP3    H260243   3.433   3.702   3.966  0.4648 -1.4024  1.2567
12918TIP3   OH260244   1.354   1.306  16.271  0.0968  0.1205 -0.1847
12918TIP3    H160245   1.429   1.330  16.217  0.5526 -0.3160  0.2506
12918TIP3    H260246   1.359   1.211  16.279 -0.6711  0.0551 -0.3918
12919TIP3   OH260247   2.916   5.052  12.021  0.0302  0.2573  0.7070
12919TIP3    H160248   2.928   5.104  12.101  2.7492 -1.1172  1.3101
12919TIP3    H260249   2.824   5.025  12.024 -0.4618  1.8672  2.3065
12920TIP3   OH260250   3.934   0.806   4.271  0.3716  0.2196 -0.2485
12920TIP3    H160251   3.997   0.744   4.309  0.2277 -0.4373 -1.0333
12920TIP3    H260252   3.848   0.767   4.290  0.1759  1.2383  1.0337
12921TIP3   OH260253   3.565   4.355  14.591 -0.0056  0.1120 -0.2542
12921TIP3    H160254   3.616   4.288  14.545 -1.4217 -0.8238 -0.5173
12921TIP3    H260255   3.550   4.318  14.678 -0.8885  0.0320 -0.4384
12922TIP3   OH260256   4.292   5.348   5.238  0.2717  0.3751  0.9733
12922TIP3    H160257   4.299   5.282   5.307 -0.4786  0.6154  1.2877
12922TIP3    H260258   4.198   5.359   5.225  0.4065  0.1937 -0.2263
12923TIP3   OH260259   1.910   6.430  16.587 -0.3802 -0.8338  0.1935
12923TIP3    H160260   1.883   6.348  16.628  1.6137 -1.4564  0.3550
12923TIP3    H260261   2.005   6.424  16.582 -0.2275  1.2768 -0.2358
12924TIP3   OH260262   0.601   6.713  17.166 -0.7367 -0.1176 -0.1166
12924TIP3    H160263   0.552   6.677  17.092 -0.0053  0.2692 -0.7943
12924TIP3    H260264   0.553   6.683  17.243 -0.7617 -1.6455 -0.6962
12925TIP3   OH260265   0.471   5.634   2.293  0.2618 -0.2722 -0.4042
12925TIP3    H160266   0.460   5.552   2.245  1.7739 -0.6112 -0.2173
12925TIP3    H260267   0.463   5.702   2.226  0.3714 -0.6456 -0.8000
12926TIP3   OH260268   2.770   6.425  12.681  0.4352 -0.0578  0.0590
12926TIP3    H160269   2.770   6.478  12.760  0.4075  0.5632 -0.3548
12926TIP3    H260270   2.723   6.345  12.705  0.3478  0.1681  0.6361
12927TIP3   OH260271   4.413   5.126  11.538  0.3370 -0.2449  0.2256
12927TIP3    H160272   4.406   5.193  11.470  0.1557  0.0190  0.5008
12927TIP3    H260273   4.494   5.147  11.584  0.6423 -0.6321 -0.1252
12928TIP3   OH260274   5.110   5.013   5.243  0.2878 -0.3279 -0.3854
12928TIP3    H160275   5.198   4.989   5.215  0.7180 -0.4280  0.9943
12928TIP3    H260276   5.067   4.930   5.262  0.8100 -0.2064  1.5375
12929TIP3   OH260277   2.842   4.003  15.580 -0.4009 -0.8461 -0.2928
12929TIP3    H160278   2.875   3.964  15.500 -3.7664 -1.7759 -1.3775
12929TIP3    H260279   2.788   4.076  15.551 -0.7838 -0.4997  1.1965
12930TIP3   OH260280   3.127   6.760  10.581  0.5627  0.3376  0.4989
12930TIP3    H160281   3.140   6.671  10.613 -0.8701 -0.1080 -0.0810
12930TIP3    H260282   3.208   6.805  10.601  0.5634 -0.5385  2.6882
12931TIP3   OH260283   1.168   1.672  14.450 -0.3898 -0.3675 -0.2941
12931TIP3    H160284   1.208   1.709  14.529 -3.6680  0.7990  0.9938
12931TIP3    H260285   1.116   1.599  14.482 -1.3085 -0.2496 -1.4752
12932TIP3   OH260286   2.039   3.460   0.906  0.2048  0.5571 -0.0184
12932TIP3    H160287   2.121   3.429   0.867  0.8884 -1.1057  2.4936
12932TIP3    H260288   2.067   3.526   0.970 -0.3312 -0.2618  1.0986
12933TIP3   OH260289   6.820   0.682   0.923  0.1964 -0.4544 -0.5805
12933TIP3    H160290   6.835   0.707   0.832 -0.6431  0.1077 -0.5746
12933TIP3    H260291   6.847   0.758   0.974  0.7076 -0.7845 -0.3421
12934TIP3   OH260292   1.215   2.764  12.119  0.4903  0.2058  0.3947
12934TIP3    H160293   1.188   2.842  12.167  0.5781  0.9398 -0.6971
12934TIP3    H260294   1.236   2.797  12.031 -1.5537 -1.3534 -0.7691
12935TIP3   OH260295   5.456   3.430  12.222  0.9832 -0.1004  1.1374
12935TIP3    H160296   5.523   3.375  12.262  2.2395  0.0521 -0.6483
12935TIP3    H260297   5.459   3.511  12.273  3.1113  0.3949  0.3582
12936TIP3   OH260298   3.417   1.516  13.432  0.3443 -0.3750  0.1971
12936TIP3    H160299   3.446   1.538  13.343  0.4655  0.6901  0.4863
12936TIP3    H260300   3.326   1.544  13.436  0.8936  1.5007  1.0056
12937TIP3   OH260301   4.370   2.528   6.324  0.0782  0.7785 -0.3699
12937TIP3    H160302   4.462   2.536   6.350 -0.0083  1.6896 -0.3097
12937TIP3    H260303   4.354   2.605   6.270 -0.8573  1.0274  0.2440
12938TIP3   OH260304   5.103   1.391   1.673  0.0697 -0.2988 -0.4107
12938TIP3    H160305   5.057   1.330   1.615 -1.0060  0.3771 -0.2987
12938TIP3    H260306   5.188   1.403   1.632  0.7446 -2.6871  0.1138
12939TIP3   OH260307   6.431   0.601  15.665 -0.1160  0.9064  0.6905
12939TIP3    H160308   6.425   0.605  15.761  0.9139  2.8205  0.7183
12939TIP3    H260309   6.481   0.521  15.648 -0.3279  0.5342  1.7512
12940TIP3   OH260310   3.898   2.742   0.977 -0.2199 -0.5136 -0.3200
12940TIP3    H160311   3.912   2.675   0.910 -0.4943 -0.0340 -0.8650
12940TIP3    H260312   3.817   2.715   1.020  1.1563 -2.1261  1.4332
12941TIP3   OH260313   4.968   5.888  11.843  0.1625 -0.0069  0.1756
12941TIP3    H160314   5.004   5.841  11.918 -0.5530  2.4817  2.2411
12941TIP3    H260315   4.884   5.922  11.874 -1.4885 -1.0830 -2.7071
12942TIP3   OH260316   4.669   3.590  15.165  0.0828 -0.1030 -0.6247
12942TIP3    H160317   4.675   3.499  15.138  2.3879 -0.4316  0.7499
12942TIP3    H260318   4.634   3.587  15.254  0.8298  0.2482 -0.3023
12943TIP3   OH260319   1.461   4.347   3.871  0.4086 -0.1355  0.3571
12943TIP3    H160320   1.409   4.426   3.861 -0.6388 -0.7104  1.0822
12943TIP3    H260321   1.423   4.285   3.809  2.3765  0.4401 -1.5553
12944TIP3   OH260322   2.255   0.291  12.856 -0.1871  0.1194  0.3107
12944TIP3    H160323   2.186   0.328  12.911 -0.1376  0.1483  0.3540
12944TIP3    H260324   2.326   0.355  12.861 -1.3857  1.8530 -2.4738
12945TIP3   OH260325   0.440   3.435  13.901  0.4110 -0.2787 -0.0955
12945TIP3    H160326   0.472   3.346  13.889  0.3913 -0.3761  0.5209
12945TIP3    H260327   0.445   3.449  13.996 -1.0522 -0.1777 -0.0125
12946TIP3   OH260328   0.580   0.168  15.896 -0.3022  0.2429  0.2067
12946TIP3    H160329   0.573   0.246  15.841  0.1747  0.4582  0.4383
12946TIP3    H260330   0.596   0.202  15.984  1.0071 -0.1101  0.1384
12947TIP3   OH260331   6.206   5.868   2.416 -0.2376  0.9376 -0.2447
12947TIP3    H160332   6.221   5.961   2.431 -0.2377  0.7306  1.2230
12947TIP3    H260333   6.291   5.833   2.392 -0.1625  1.2573 -0.4402
12948TIP3   OH260334   1.788   5.514   5.044 -0.4553  0.1688 -0.2668
12948TIP3    H160335   1.706   5.492   5.000 -0.9372 -1.5281  1.3583
12948TIP3    H260336   1.845   5.439   5.027  1.0676  1.6097 -1.9275
12949TIP3   OH260337   1.232   6.329   3.764 -0.4764 -0.7317 -0.5780
12949TIP3    H160338   1.236   6.279   3.682 -0.6744 -0.1783 -0.9341
12949TIP3    H260339   1.181   6.406   3.742 -0.5481 -0.5833  0.0810
12950TIP3   OH260340   6.447   4.152  15.502  0.7161  0.5227 -0.1428
12950TIP3    H160341   6.519   4.148  15.439 -0.2174  0.1702 -1.2013
12950TIP3    H260342   6.489   4.136  15.587  1.6306 -1.4064 -0.9190
12951TIP3   OH260343   5.198   5.167   0.022 -0.1273  1.0858  0.1539
12951TIP3    H160344   5.191   5.075   0.049  1.1167  1.2640  1.1722
12951TIP3    H260345   5.290   5.178  -0.001 -0.2249  2.1332  0.2266
12952TIP3   OH260346   2.184   0.445  16.422  0.2939  0.0065  0.0756
12952TIP3    H160347   2.168   0.537  16.445 -1.8846  0.0427 -1.2871
12952TIP3    H260348   2.141   0.433  16.337  0.3112 -2.3257  0.3205
12953TIP3   OH260349   3.190   2.332  14.302 -0.1334 -0.7617 -0.1710
12953TIP3    H160350   3.155   2.244  14.293  0.1821 -1.2830  2.8129
12953TIP3    H260351   3.278   2.320  14.337  0.1465  0.7359 -0.2705
12954TIP3   OH260352   1.047   5.026  16.760 -0.1392  0.0089 -0.1386
12954TIP3    H160353   1.077   5.016  16.670 -1.5104 -1.5159 -0.4700
12954TIP3    H260354   1.126   5.011  16.813  0.0845 -2.3924 -1.0073
12955TIP3   OH260355   3.658   2.332  15.272 -0.0091  0.0486 -0.3787
12955TIP3    H160356   3.672   2.246  15.312  2.2316  0.6662  0.3020
12955TIP3    H260357   3.670   2.394  15.344 -3.1308  0.9743 -0.4815
12956TIP3   OH260358   3.215   6.102  13.142  0.1103  0.1335  0.0943
12956TIP3    H160359   3.133   6.074  13.182 -0.7511  2.3497  0.0442
12956TIP3    H260360   3.189   6.163  13.073  1.7920  1.0957  0.2412
12957TIP3   OH260361   2.443   0.810   5.566 -0.0069  0.0518  0.1225
12957TIP3    H160362   2.480   0.726   5.538 -0.0509 -0.0578  0.3898
12957TIP3    H260363   2.414   0.795   5.656 -1.3138 -0.0548 -0.3062
12958TIP3   OH260364   4.036   5.805   5.895 -0.6320  0.1485  0.2882
12958TIP3    H160365   4.050   5.825   5.988  0.3384 -1.4755  0.5455
12958TIP3    H260366   4.097   5.733   5.877 -0.9178  0.3187 -1.5762
12959TIP3   OH260367   0.379   2.125   0.580  0.3732 -0.2279 -0.6113
12959TIP3    H160368   0.339   2.089   0.501 -0.8552 -0.5808  0.1333
12959TIP3    H260369   0.311   2.116   0.647  1.0517  0.9180  0.2638
12960TIP3   OH260370   3.221   0.639   5.490 -0.3232  0.0798  0.2886
12960TIP3    H160371   3.222   0.596   5.576 -0.1981 -0.5763 -0.0377
12960TIP3    H260372   3.238   0.569   5.428 -0.7534  0.4927 -0.3068
12961TIP3   OH260373   1.860   2.050  15.950  0.2910  0.2297  0.2896
12961TIP3    H160374   1.832   2.052  15.858  0.2287 -3.4189  0.0976
12961TIP3    H260375   1.796   2.105  15.995 -0.5305  0.9531 -1.6429
12962TIP3   OH260376   3.451   3.292   5.958  0.0683 -0.4904  0.4976
12962TIP3    H160377   3.485   3.250   6.038 -0.3201 -3.1914 -0.6269
12962TIP3    H260378   3.529   3.315   5.908  0.2969 -0.4062  0.8871
12963TIP3   OH260379   3.508   0.634  13.208 -0.2618 -0.7713  0.2647
12963TIP3    H160380   3.533   0.640  13.301  1.4118 -0.7528 -0.1621
12963TIP3    H260381   3.453   0.555  13.204  0.8329 -1.6154  1.0486
12964TIP3   OH260382   1.191   0.012   0.213  0.4460  0.4991  0.3387
12964TIP3    H160383   1.194  -0.060   0.151 -1.5268 -0.1317  0.9048
12964TIP3    H260384   1.235  -0.022   0.291  0.7142  0.3980  0.1453
12965TIP3   OH260385   3.882   0.557   2.364 -0.9270  0.0094 -0.2461
12965TIP3    H160386   3.935   0.506   2.425 -0.3113  0.9906  0.0527
12965TIP3    H260387   3.929   0.552   2.281 -0.5954  0.5109 -0.0904
12966TIP3   OH260388   1.192   5.621   0.705 -0.0663  0.0854  1.0059
12966TIP3    H160389   1.252   5.693   0.722 -0.6864  0.4488  1.7609
12966TIP3    H260390   1.153   5.602   0.791 -0.9023 -0.2433  0.5668
12967TIP3   OH260391   2.991   2.143  16.697  0.3434 -0.4196  0.2341
12967TIP3    H160392   2.940   2.159  16.777 -0.9015  1.5582 -0.8830
12967TIP3    H260393   2.927   2.113  16.633  1.1534 -0.9743 -0.3376
12968TIP3   OH260394   2.953   1.506   0.708 -0.5428  0.0842 -0.2015
12968TIP3    H160395   2.925   1.597   0.698  0.8243  0.5600  0.0448
12968TIP3    H260396   2.992   1.503   0.796  1.8460 -0.0210 -1.1944
12969TIP3   OH260397   1.834   6.284  17.172  0.2239  0.4151 -0.1668
12969TIP3    H160398   1.826   6.320  17.084  0.9274 -0.2733 -0.5235
12969TIP3    H260399   1.832   6.189  17.160  1.2197  0.2999  0.4487
12970TIP3   OH260400   5.310   2.927  11.388 -0.2036  0.1147  0.2356
12970TIP3    H160401   5.264   2.848  11.358  0.5157 -0.2113 -0.0213
12970TIP3    H260402   5.250   2.999  11.366 -0.5497 -0.2959 -0.1846
12971TIP3   OH260403   4.256   4.663  16.549  0.5142 -0.7955  0.2486
12971TIP3    H160404   4.313   4.740  16.543  0.3121 -0.6118  0.6256
12971TIP3    H260405   4.220   4.653  16.461  0.8965 -0.7328  0.0832
12972TIP3   OH260406   6.490   5.313  11.576 -0.6580 -0.4795  0.4540
12972TIP3    H160407   6.436   5.258  11.519 -2.4462  1.9499 -0.3609
12972TIP3    H260408   6.437   5.326  11.654  0.8607 -1.9537  1.8201
12973TIP3   OH260409   3.943   0.769  14.249  0.3426  1.0768  0.2821
12973TIP3    H160410   3.948   0.824  14.326 -0.5332  1.6554 -0.0656
12973TIP3    H260411   4.033   0.766  14.216  0.4071  2.3492  0.2818
12974TIP3   OH260412   3.588   0.139  14.373  0.0202 -0.1591  0.1825
12974TIP3    H160413   3.574   0.131  14.278 -1.7260 -0.3848  0.4167
12974TIP3    H260414   3.650   0.069  14.394  0.1560 -0.3297 -0.7553
12975TIP3   OH260415   5.791   0.392   0.901  0.0669 -0.3973 -0.0403
12975TIP3    H160416   5.762   0.478   0.871 -0.5452 -1.3560 -2.4349
12975TIP3    H260417   5.885   0.390   0.879 -0.3545 -1.0539 -2.0227
12976TIP3   OH260418   2.753   2.118   6.559 -0.1270 -0.2145 -0.1788
12976TIP3    H160419   2.839   2.157   6.541 -0.2051  0.2396  0.3741
12976TIP3    H260420   2.732   2.148   6.648 -0.4030 -1.1519  0.0840
12977TIP3   OH260421   6.793   4.532   1.518 -0.2038 -0.1259 -0.1406
12977TIP3    H160422   6.852   4.466   1.556 -0.9109  0.0408  1.3385
12977TIP3    H260423   6.803   4.608   1.576 -1.9720 -0.1565  0.2586
12978TIP3   OH260424   1.635   2.692  15.717 -0.5789  0.0925 -0.3377
12978TIP3    H160425   1.621   2.607  15.674 -0.0123  1.1252 -2.7760
12978TIP3    H260426   1.677   2.671  15.800 -2.0520 -2.0908 -0.0730
12979TIP3   OH260427   5.485   5.959  14.484  0.3827  0.1339 -0.4709
12979TIP3    H160428   5.406   5.906  14.484 -0.5537  1.4527 -1.2099
12979TIP3    H260429   5.550   5.907  14.531 -1.4592 -0.1723  1.8803
12980TIP3   OH260430   0.311   1.905   5.258 -0.6678  0.3436  0.1169
12980TIP3    H160431   0.272   1.989   5.232 -2.1546 -0.2872  0.2005
12980TIP3    H260432   0.240   1.841   5.246  0.7587 -1.1146 -1.0539
12981TIP3   OH260433   6.793   2.688   2.245 -0.1679  0.1919 -0.6257
12981TIP3    H160434   6.856   2.711   2.313 -0.1789  0.3741 -0.6771
12981TIP3    H260435   6.750   2.609   2.277  0.5622 -0.3225 -0.8933
12982TIP3   OH260436   4.266   3.183   2.135  0.0129 -0.1137  0.3281
12982TIP3    H160437   4.216   3.203   2.056 -0.6628  0.1741  0.8091
12982TIP3    H260438   4.235   3.247   2.199  0.2456 -0.6034  0.9381
12983TIP3   OH260439   0.535   5.931  13.953 -0.2614  0.5922 -0.2137
12983TIP3    H160440   0.548   5.968  14.040 -2.7348  0.3439  0.3520
12983TIP3    H260441   0.619   5.941  13.908  0.8223  1.4469  1.9230
12984TIP3   OH260442   4.264   0.110  13.699 -0.1095  0.1343 -0.5615
12984TIP3    H160443   4.171   0.085  13.691  0.0877 -0.2508 -1.9765
12984TIP3    H260444   4.306   0.031  13.732 -0.3202  0.4041  0.3731
12985TIP3   OH260445   1.066   2.047   3.911 -0.6741  0.4434  0.3536
12985TIP3    H160446   1.064   2.135   3.872  2.4011  1.1474  1.4361
12985TIP3    H260447   1.137   2.002   3.865 -1.2290 -0.9675  0.8234
12986TIP3   OH260448   6.601   2.585  15.979  0.0808  0.3348 -0.2130
12986TIP3    H160449   6.579   2.530  16.054  0.9185  0.4413  0.1234
12986TIP3    H260450   6.556   2.544  15.906  0.7252 -0.8402  0.0198
12987TIP3   OH260451   0.435   4.031   3.293  0.2511 -0.0418 -0.1201
12987TIP3    H160452   0.457   4.118   3.327  2.6496  0.6422 -3.0023
12987TIP3    H260453   0.459   3.972   3.365  0.1758  1.5292  1.2836
12988TIP3   OH260454   4.893   4.849   1.368 -0.4751 -0.3774  0.4412
12988TIP3    H160455   4.839   4.794   1.424 -0.0574 -0.9584  0.2738
12988TIP3    H260456   4.912   4.795   1.292 -0.9820  0.3857 -0.2340
12989TIP3   OH260457   6.804   3.842  17.124  0.1484  0.5159 -0.0537
12989TIP3    H160458   6.816   3.931  17.093 -1.5516  0.9483  0.3801
12989TIP3    H260459   6.799   3.789  17.045 -0.2033  1.0155 -0.3732
12990TIP3   OH260460   2.351   6.769   6.385  0.0525 -0.3726  0.1267
12990TIP3    H160461   2.334   6.857   6.419  1.6601  0.4616 -1.1078
12990TIP3    H260462   2.388   6.722   6.459  1.3658  0.7213  0.1963
12991TIP3   OH260463   5.450   0.567  11.208 -0.4081  0.4043  0.2597
12991TIP3    H160464   5.516   0.563  11.139 -1.5190  1.2982 -0.9127
12991TIP3    H260465   5.500   0.567  11.290  0.9506 -0.4568 -0.5334
12992TIP3   OH260466   5.836   5.845  15.925 -0.2965  0.3708 -0.6870
12992TIP3    H160467   5.930   5.835  15.939 -0.7430 -0.8477  2.3864
12992TIP3    H260468   5.826   5.933  15.888  1.9995  0.6959 -0.6895
12993TIP3   OH260469   2.339   3.469  14.643  0.3072  0.3509 -0.4873
12993TIP3    H160470   2.345   3.487  14.736  0.7444 -0.2384 -0.4001
12993TIP3    H260471   2.393   3.537  14.602  0.3861  0.4081 -0.2909
12994TIP3   OH260472   6.305   5.769  12.176  0.4212  0.2870 -0.3138
12994TIP3    H160473   6.225   5.782  12.126 -0.0682  0.7345  0.5558
12994TIP3    H260474   6.353   5.851  12.168  1.2535 -0.3047 -1.6049
12995TIP3   OH260475   2.084   2.053  11.872  0.4144  0.4377 -0.0247
12995TIP3    H160476   2.129   1.992  11.930 -0.6989 -2.5121 -2.0252
12995TIP3    H260477   2.025   2.102  11.929 -0.3778 -2.0740  1.4619
12996TIP3   OH260478   1.079   2.573   2.518  0.2458  0.2027 -0.2466
12996TIP3    H160479   1.059   2.578   2.425  2.2463  1.1701 -0.6842
12996TIP3    H260480   1.132   2.651   2.535 -0.0226  0.0142  1.6987
12997TIP3   OH260481   6.348   1.900  16.865  0.1248  0.7964  0.7412
12997TIP3    H160482   6.436   1.926  16.840  0.3765  0.0767  0.8672
12997TIP3    H260483   6.353   1.880  16.958 -0.0644  0.3274  0.6573
12998TIP3   OH260484   6.420   3.618  14.939  0.2247 -0.5254  0.1433
12998TIP3    H160485   6.401   3.684  14.871 -0.2137  0.2710  1.0128
12998TIP3    H260486   6.512   3.596  14.925  0.6954  1.0685  0.4805
12999TIP3   OH260487   1.205   1.283  12.077  0.3137 -0.5607 -0.5477
12999TIP3    H160488   1.229   1.367  12.039  0.4135  0.9387  2.5219
12999TIP3    H260489   1.117   1.297  12.112  0.3329 -1.7140  0.0233
13000TIP3   OH260490   2.006   1.239   0.340  0.0632 -0.3227  0.2498
13000TIP3    H160491   2.023   1.151   0.305  1.2529  0.9876 -2.7918
13000TIP3    H260492   1.920   1.262   0.305  0.3058  0.1811 -0.0229
13001TIP3   OH260493   2.284   6.796  15.892 -0.2203 -0.7941  0.4281
13001TIP3    H160494   2.318   6.731  15.953 -0.4380  0.2554  1.7367
13001TIP3    H260495   2.345   6.794  15.818  1.4654 -0.4857  1.7283
13002TIP3   OH260496   4.922   4.987  15.365 -0.5488 -0.1272 -0.4716
13002TIP3    H160497   5.001   4.947  15.402  0.4630  0.7690 -1.5615
13002TIP3    H260498   4.867   5.005  15.441  1.9215  2.7061  0.9191
13003TIP3   OH260499   1.546   1.018   5.228 -0.2562 -0.1375  0.4892
13003TIP3    H160500   1.451   1.010   5.220 -0.0582 -1.9354 -0.6710
13003TIP3    H260501   1.560   1.054   5.316 -2.0111  1.0759  0.3174
13004TIP3   OH260502   6.251   0.699   6.144  1.4139  0.0367  0.3592
13004TIP3    H160503   6.200   0.743   6.213  2.2887  1.4011  0.1694
13004TIP3    H260504   6.333   0.748   6.140  2.0434 -1.0580 -0.5294
13005TIP3   OH260505   6.242   2.498  16.533 -0.7556 -0.0331  0.0875
13005TIP3    H160506   6.177   2.519  16.599  0.8053 -1.1015  2.0951
13005TIP3    H260507   6.323   2.484  16.583  0.1041 -2.6781 -1.8041
13006TIP3   OH260508   3.589   2.686   0.326 -0.3510 -0.0295 -0.0940
13006TIP3    H160509   3.537   2.725   0.395 -0.8457 -1.8245  0.6058
13006TIP3    H260510   3.669   2.657   0.370 -0.0710  0.0416 -0.5519
13007TIP3   OH260511   1.022   0.910   0.514  0.0567  0.7459 -0.2087
13007TIP3    H160512   0.956   0.877   0.453  0.6622  0.6161 -0.8099
13007TIP3    H260513   0.985   0.992   0.547 -0.4460  0.6283 -0.4600
13008TIP3   OH260514   3.904   6.696   4.602 -0.2289  0.1416 -0.1494
13008TIP3    H160515   3.839   6.651   4.550 -0.5296  0.3780  0.0176
13008TIP3    H260516   3.926   6.774   4.551  0.0625 -0.0327 -0.2932
13009TIP3   OH260517   1.115   0.242  12.506  0.0107  0.3682  0.3961
13009TIP3    H160518   1.074   0.254  12.592  2.0992 -0.3821  1.5622
13009TIP3    H260519   1.044   0.209  12.450 -0.8357 -1.6838  2.5255
13010TIP3   OH260520   3.728   1.584  10.560 -0.6053 -0.2263  0.4350
13010TIP3    H160521   3.730   1.620  10.472 -1.0655 -0.1836  0.4407
13010TIP3    H260522   3.641   1.606  10.593 -1.1756 -1.9793  0.1778
13011TIP3   OH260523   1.316   6.078  15.472 -1.1438  0.1270  0.2546
13011TIP3    H160524   1.322   5.984  15.454 -2.4431  0.0949 -0.1001
13011TIP3    H260525   1.273   6.115  15.395  0.9394  1.3165 -0.4249
13012TIP3   OH260526   1.692   3.630   3.634  0.0030 -0.1884  0.0050
13012TIP3    H160527   1.754   3.593   3.572 -1.4509 -1.2591 -0.8933
13012TIP3    H260528   1.726   3.605   3.720  2.6969  2.3641 -0.1877
13013TIP3   OH260529   2.871   3.193   4.744  0.0569 -0.3885  0.2600
13013TIP3    H160530   2.944   3.203   4.806 -0.4091 -0.3161  0.7989
13013TIP3    H260531   2.911   3.151   4.667  0.4286 -1.4575  1.0118
13014TIP3   OH260532   2.349   3.260   2.547 -0.1764  0.0733 -0.0966
13014TIP3    H160533   2.289   3.248   2.621 -0.7594 -2.4408 -0.8668
13014TIP3    H260534   2.383   3.172   2.529  2.0661  1.0599 -1.1121
13015TIP3   OH260535   5.558   4.024  13.807  0.2616 -0.1354  0.1956
13015TIP3    H160536   5.613   4.001  13.881 -0.4545 -2.5011  0.0784
13015TIP3    H260537   5.605   4.095  13.763  2.0162 -0.4909  1.4009
13016TIP3   OH260538   3.241   1.995  11.289  0.0587 -0.8312  0.0278
13016TIP3    H160539   3.326   1.957  11.312  0.0179 -0.4353  0.8488
13016TIP3    H260540   3.178   1.925  11.307  0.1223 -0.8358  0.2308
13017TIP3   OH260541   1.422   5.347   4.646 -0.3085 -0.3603 -0.4475
13017TIP3    H160542   1.485   5.353   4.574  1.3824 -0.5038  0.9634
13017TIP3    H260543   1.464   5.291   4.711 -1.1879  0.8073  1.2203
13018TIP3   OH260544   1.362   0.294   1.648 -0.5677 -0.0267 -0.2522
13018TIP3    H160545   1.399   0.373   1.608  0.0252 -0.4178 -0.4862
13018TIP3    H260546   1.279   0.280   1.601  0.1127 -0.4775 -1.3756
13019TIP3   OH260547   6.110   6.730  14.966 -0.6430 -0.1081  0.7313
13019TIP3    H160548   6.201   6.709  14.987 -0.0810  1.4416 -0.0544
13019TIP3    H260549   6.067   6.645  14.960  0.7498 -0.8658  1.0835
13020TIP3   OH260550   4.456   1.955  10.838  0.5178 -0.0529 -0.5019
13020TIP3    H160551   4.405   1.917  10.910  1.2034 -0.1463 -0.0589
13020TIP3    H260552   4.397   2.019  10.799  0.7758  1.4467  1.3952
13021TIP3   OH260553   6.439   2.807  15.958 -0.5527 -0.0743  0.4489
13021TIP3    H160554   6.505   2.737  15.962 -0.5204 -0.0986 -0.4005
13021TIP3    H260555   6.476   2.871  15.897 -1.6117 -0.4130 -0.5777
13022TIP3   OH260556   5.566   3.225  13.829 -0.6562  0.8815  0.4710
13022TIP3    H160557   5.582   3.131  13.824 -0.1347  0.8725  1.8274
13022TIP3    H260558   5.561   3.254  13.738  0.4622 -0.2456  0.0223
13023TIP3   OH260559   1.547   6.095   0.086  0.1416 -0.2623  0.1571
13023TIP3    H160560   1.629   6.099   0.037  0.6870  0.9344  1.1155
13023TIP3    H260561   1.526   6.002   0.090  1.1999 -0.5521 -0.4963
13024TIP3   OH260562   1.320   2.300   2.246 -0.3108 -0.4021 -0.4040
13024TIP3    H160563   1.378   2.242   2.296  0.9289 -0.5121 -1.8860
13024TIP3    H260564   1.302   2.252   2.165  1.1567  1.4070 -1.9078
13025TIP3   OH260565   1.571   0.923  12.520 -0.5898  0.2856 -0.1286
13025TIP3    H160566   1.651   0.892  12.561 -1.1066  0.9916  1.5226
13025TIP3    H260567   1.548   0.856  12.456  0.2829 -0.8640  0.7293
13026TIP3   OH260568   6.514   3.294   1.505 -0.4928  0.7412  0.0566
13026TIP3    H160569   6.534   3.295   1.598 -1.3739  0.4140  0.2543
13026TIP3    H260570   6.561   3.370   1.470 -0.6065  1.1896  0.8600
13027TIP3   OH260571   6.165   5.525  11.558 -0.1400 -0.3442 -0.2039
13027TIP3    H160572   6.140   5.617  11.566 -1.9283 -0.7112 -0.9563
13027TIP3    H260573   6.240   5.515  11.617 -1.5057  1.0094  1.9198
13028TIP3   OH260574   2.198   4.543  13.031 -0.3210 -0.1401  0.2522
13028TIP3    H160575   2.188   4.485  13.106 -1.2392 -0.6034 -0.2024
13028TIP3    H260576   2.108   4.569  13.009  0.0002  0.6546 -0.1734
13029TIP3   OH260577   0.818   3.046  16.658 -0.3070  0.4616 -0.4728
13029TIP3    H160578   0.815   3.142  16.654 -0.6495  0.5747  1.5023
13029TIP3    H260579   0.753   3.023  16.724  0.3466 -1.0827 -0.3376
13030TIP3   OH260580   6.612   3.933  15.582 -0.3280  0.0975  0.5229
13030TIP3    H160581   6.576   3.898  15.501  0.2132  0.3450  0.1658
13030TIP3    H260582   6.569   3.883  15.651 -2.6107  1.4795  0.2235
13031TIP3   OH260583   3.824   2.293  13.706  0.1370  0.0698  0.5396
13031TIP3    H160584   3.902   2.329  13.749 -0.3802  0.3314  1.2728
13031TIP3    H260585   3.759   2.284  13.776 -0.5114 -0.1013 -0.0691
13032TIP3   OH260586   1.986   5.298   0.933 -0.3511 -0.3778  0.1048
13032TIP3    H160587   1.969   5.216   0.981 -1.6258  0.2306  0.7417
13032TIP3    H260588   2.005   5.270   0.844 -0.3039 -1.4005  0.4220
13033TIP3   OH260589   0.782   1.011  12.866  0.3589 -0.3643  0.3873
13033TIP3    H160590   0.777   0.937  12.927  0.0675 -0.8221 -0.1742
13033TIP3    H260591   0.706   1.065  12.888 -0.6835 -1.3702 -0.6108
13034TIP3   OH260592   2.117   1.312   0.874  0.6223 -0.1145 -0.2615
13034TIP3    H160593   2.129   1.296   0.780  0.5404 -1.5713 -0.0491
13034TIP3    H260594   2.204   1.338   0.905  1.0935 -1.3890 -0.4362
13035TIP3   OH260595   3.593   1.470   2.780  0.1227 -1.0015 -0.0768
13035TIP3    H160596   3.518   1.411   2.776 -0.2886 -0.4381 -1.2854
13035TIP3    H260597   3.556   1.554   2.807  0.1594 -0.5161 -1.4623
13036TIP3   OH260598   5.088   1.756   1.002  0.1031 -0.7091 -0.2499
13036TIP3    H160599   5.033   1.746   0.925 -1.0734  0.2981  0.4271
13036TIP3    H260600   5.165   1.804   0.970 -1.1292  1.2003 -0.5353
13037TIP3   OH260601   6.178   3.294  11.262  0.2352  0.8348  0.4459
13037TIP3    H160602   6.223   3.258  11.186  0.3489  2.4991 -0.3099
13037TIP3    H260603   6.097   3.330  11.226 -0.8987 -0.5351  1.5154
13038TIP3   OH260604   4.800   4.793  16.692 -0.0815 -0.1351 -0.1490
13038TIP3    H160605   4.827   4.884  16.687  0.0988 -0.1259  0.8164
13038TIP3    H260606   4.721   4.788  16.639  0.0785  0.5146 -0.4521
13039TIP3   OH260607   6.218   4.552  15.627  0.0950  0.0011 -0.2032
13039TIP3    H160608   6.279   4.483  15.604  1.3958  0.3136  1.9960
13039TIP3    H260609   6.250   4.629  15.579  0.6013 -0.1755 -0.1601
13040TIP3   OH260610   0.650   3.271   1.957 -0.8650  0.1189  0.1309
13040TIP3    H160611   0.664   3.194   1.902 -2.1767  1.9740 -3.1461
13040TIP3    H260612   0.735   3.315   1.959 -1.2181  1.0837 -2.3918
13041TIP3   OH260613   2.793   4.180  11.074 -0.3134 -0.6690  0.2932
13041TIP3    H160614   2.823   4.257  11.025  0.9513 -0.1157  1.8414
13041TIP3    H260615   2.853   4.174  11.148 -0.9083 -2.6747  0.6814
13042TIP3   OH260616   6.280   1.409   3.547 -0.2449  0.3567  0.2329
13042TIP3    H160617   6.239   1.396   3.462  0.0444  1.2181 -0.0476
13042TIP3    H260618   6.360   1.357   3.544 -0.3680  0.1759  0.0847
13043TIP3   OH260619   0.616   4.609  12.104 -0.2786  0.0731 -0.0650
13043TIP3    H160620   0.553   4.573  12.041  0.0346  1.2729 -1.1201
13043TIP3    H260621   0.694   4.629  12.052  1.0286 -1.3727  1.2160
13044TIP3   OH260622   5.913   6.106  13.025 -0.0910  0.0771  0.0536
13044TIP3    H160623   5.911   6.158  13.105  0.2138 -0.2711  0.2870
13044TIP3    H260624   5.911   6.171  12.954  1.4877  0.4825  0.3365
13045TIP3   OH260625   6.066   2.169   6.541  0.4125  0.1636  0.0243
13045TIP3    H160626   6.045   2.076   6.527  0.7305 -0.1776  1.6819
13045TIP3    H260627   6.004   2.198   6.608 -0.3572  1.4560 -1.1804
13046TIP3   OH260628   4.239   2.497  10.403 -0.4478  0.5089 -0.0572
13046TIP3    H160629   4.161   2.504  10.348 -1.7753 -0.2512  1.6173
13046TIP3    H260630   4.218   2.427  10.465  0.5902  1.8689  1.9437
13047TIP3   OH260631   6.134   1.398   4.966  0.2150  0.3813 -0.0934
13047TIP3    H160632   6.187   1.460   4.916  0.5919  0.4660  0.4076
13047TIP3    H260633   6.164   1.312   4.937  0.6241  0.4286  0.1855
13048TIP3   OH260634   2.884   4.910   1.654 -0.3099  0.2010  0.9060
13048TIP3    H160635   2.944   4.907   1.580 -1.1379  0.8813  0.1929
13048TIP3    H260636   2.919   4.978   1.711 -0.5685  0.8100  0.3426
13049TIP3   OH260637   3.551   5.610   0.558 -0.2436 -0.0737  0.2897
13049TIP3    H160638   3.542   5.705   0.564  0.7516 -0.0273  1.2754
13049TIP3    H260639   3.619   5.597   0.492 -0.0296 -0.0841  0.5118
13050TIP3   OH260640   3.316   2.827  13.816 -0.3905  0.0064  0.5826
13050TIP3    H160641   3.276   2.903  13.773  0.9740  0.0926 -0.5865
13050TIP3    H260642   3.409   2.833  13.794 -0.3144 -2.2218  0.1123
13051TIP3   OH260643   0.753   2.563  11.161  0.0250 -0.3046 -0.3282
13051TIP3    H160644   0.664   2.576  11.128 -0.2116  1.1206  0.7550
13051TIP3    H260645   0.765   2.468  11.162 -0.8738 -0.4796 -2.0063
13052TIP3   OH260646   6.631   1.165  12.049 -0.3944 -0.2563  0.3549
13052TIP3    H160647   6.552   1.114  12.068  0.8332 -1.1924  3.3734
13052TIP3    H260648   6.699   1.100  12.035  0.6152  0.5259  1.4758
13053TIP3   OH260649   2.490   0.688   2.566 -0.2164  0.1308 -0.0152
13053TIP3    H160650   2.502   0.758   2.501  0.1041 -1.9686 -2.3646
13053TIP3    H260651   2.578   0.652   2.579 -0.4372 -0.1145  0.8856
13054TIP3   OH260652   6.752   0.571  12.623  0.3914 -0.1958  0.1547
13054TIP3    H160653   6.697   0.534  12.554  0.5394  1.4515 -0.9009
13054TIP3    H260654   6.841   0.569  12.586  0.8358 -1.3888  1.2250
13055TIP3   OH260655   1.450   4.078  12.257  0.7121  0.4448  0.0129
13055TIP3    H160656   1.439   4.112  12.346 -1.0068 -0.4492  0.1702
13055TIP3    H260657   1.469   4.156  12.205 -1.1279  1.4251  0.7031
13056TIP3   OH260658   6.218   2.815   1.609 -0.1275  0.1338 -0.3657
13056TIP3    H160659   6.129   2.787   1.586  0.0080 -0.4209 -0.2153
13056TIP3    H260660   6.273   2.782   1.538  0.0102  0.1488 -0.2667
13057TIP3   OH260661   5.322   6.653   6.465  0.3448 -0.0979  0.4379
13057TIP3    H160662   5.416   6.638   6.473  0.3384  0.3454  1.5472
13057TIP3    H260663   5.314   6.714   6.392  0.8859 -0.3704  0.1420
13058TIP3   OH260664   5.262   1.372   6.386  0.0411 -0.6578 -0.0348
13058TIP3    H160665   5.172   1.341   6.390  0.4826 -1.9024  0.9380
13058TIP3    H260666   5.257   1.464   6.413 -0.7468 -1.1299  1.5151
13059TIP3   OH260667   1.257   3.441  14.846 -0.2463  0.5159  0.0895
13059TIP3    H160668   1.301   3.466  14.764 -0.8039  1.1781 -0.0154
13059TIP3    H260669   1.327   3.442  14.912  0.6700 -2.0545 -0.7025
13060TIP3   OH260670   1.371   5.752  16.849  0.5814 -0.4953  0.0871
13060TIP3    H160671   1.346   5.821  16.911 -2.5918 -0.2179 -1.3121
13060TIP3    H260672   1.408   5.683  16.904 -0.3421  0.5012  2.0733
13061TIP3   OH260673   3.539   0.628  12.506  0.3127  0.4231 -0.0554
13061TIP3    H160674   3.479   0.616  12.432  0.8198  0.1024 -0.4220
13061TIP3    H260675   3.482   0.640  12.582 -0.2890 -2.2964  0.0270
13062TIP3   OH260676   3.320   4.570   2.063  0.2959  0.6654  0.1996
13062TIP3    H160677   3.301   4.636   2.129  0.9400  0.3698  0.6866
13062TIP3    H260678   3.325   4.618   1.980  3.6297  1.7320  0.8852
13063TIP3   OH260679   1.045   2.079  14.498 -0.4652 -0.4266 -0.2677
13063TIP3    H160680   1.034   2.010  14.432 -0.9222  0.1726 -0.8326
13063TIP3    H260681   0.965   2.076  14.549 -0.4504 -0.3634 -0.2412
13064TIP3   OH260682   1.161   6.624   1.464 -0.6733  0.3315 -0.5069
13064TIP3    H160683   1.144   6.564   1.537  2.4381 -1.2871 -0.9241
13064TIP3    H260684   1.092   6.690   1.471 -1.0217 -0.1675  3.4006
13065TIP3   OH260685   5.224   2.526  12.980 -0.3686  0.0679 -0.6670
13065TIP3    H160686   5.130   2.540  12.992 -0.5134 -1.8204  0.9160
13065TIP3    H260687   5.233   2.504  12.887 -1.5877 -0.2982 -0.7230
13066TIP3   OH260688   2.419   2.044   5.227 -0.4705 -0.0489  0.5227
13066TIP3    H160689   2.508   2.047   5.190 -1.1567  1.1068 -1.1791
13066TIP3    H260690   2.397   1.951   5.228  1.2405 -0.4993  2.3165
13067TIP3   OH260691   3.336   1.331   3.991 -0.4119 -0.2971  0.1719
13067TIP3    H160692   3.346   1.239   3.964  0.7252 -0.1417 -0.0048
13067TIP3    H260693   3.341   1.380   3.909  0.0375 -0.0163  0.3647
13068TIP3   OH260694   2.159   5.609  15.974  0.0788 -0.4416  0.0527
13068TIP3    H160695   2.101   5.597  15.899 -0.0887 -0.8955  0.2520
13068TIP3    H260696   2.242   5.570  15.946 -0.1443 -1.1076  0.2988
13069TIP3   OH260697   3.940   5.434  12.878  0.0327 -0.0250  0.1899
13069TIP3    H160698   4.021   5.417  12.927  1.3931  2.5963 -0.9248
13069TIP3    H260699   3.933   5.359  12.818  0.7393 -1.0852  1.3814
13070TIP3   OH260700   4.973   1.915   4.938  0.6268 -0.0442 -0.9332
13070TIP3    H160701   5.058   1.871   4.940  1.7093  1.9140 -1.0637
13070TIP3    H260702   4.953   1.924   4.845  2.1198  2.6874 -1.0911
13071TIP3   OH260703   0.531   0.108  13.115 -0.6386 -0.1302  0.1651
13071TIP3    H160704   0.616   0.120  13.157  0.1712 -3.8462 -0.0892
13071TIP3    H260705   0.472   0.087  13.187 -1.4213  2.2167  0.3131
13072TIP3   OH260706   5.975   5.946   2.899 -0.0613  0.0910  0.0339
13072TIP3    H160707   5.982   6.031   2.856 -0.3423  0.8543  1.4542
13072TIP3    H260708   5.894   5.909   2.865  0.9351 -0.4269 -1.9373
13073TIP3   OH260709   6.167   0.158  13.085 -0.2098  0.2419 -0.2948
13073TIP3    H160710   6.095   0.221  13.083  0.0995  0.5767 -1.4411
13073TIP3    H260711   6.173   0.124  12.996  1.5454  0.8031 -0.4310
13074TIP3   OH260712   6.380   0.339  12.405  0.4103 -0.1244  0.3878
13074TIP3    H160713   6.317   0.411  12.415 -0.3452 -0.7233  0.0279
13074TIP3    H260714   6.456   0.380  12.364 -0.0431  0.4631  0.1187
13075TIP3   OH260715   4.489   3.876  12.907 -0.3261 -0.0331  0.0077
13075TIP3    H160716   4.446   3.960  12.889  0.1373  0.4413  1.0394
13075TIP3    H260717   4.483   3.866  13.002  0.4083 -0.7328 -0.0098
13076TIP3   OH260718   0.414   0.164   5.853  0.0651  0.1005  0.0662
13076TIP3    H160719   0.353   0.092   5.867  2.0687 -1.2879  2.6246
13076TIP3    H260720   0.491   0.122   5.813  0.8541  1.0042  0.6046
13077TIP3   OH260721   1.143   0.307   1.977 -0.5695  0.2845  0.0100
13077TIP3    H160722   1.106   0.390   1.946  0.0348  0.5296 -0.0919
13077TIP3    H260723   1.238   0.319   1.965 -0.4218 -0.1105  0.7684
13078TIP3   OH260724   3.781   1.214  11.866 -0.4677 -0.5961 -0.1106
13078TIP3    H160725   3.739   1.272  11.930  3.3928  2.6168 -0.0545
13078TIP3    H260726   3.738   1.235  11.783 -1.4498 -0.2191  0.4762
13079TIP3   OH260727   2.150   4.298   3.964  0.7980 -0.0451  0.5046
13079TIP3    H160728   2.132   4.384   3.926 -0.9303  0.4913  2.4027
13079TIP3    H260729   2.243   4.301   3.988  1.0990  0.7505 -0.6790
13080TIP3   OH260730   3.881   5.525  14.297 -0.5443  0.0717 -0.3430
13080TIP3    H160731   3.856   5.433  14.295  1.3252 -0.4621 -2.4057
13080TIP3    H260732   3.869   5.550  14.389 -1.0510 -2.2360  0.2971
13081TIP3   OH260733   5.796   1.994  16.463  0.1815  0.7234 -0.7092
13081TIP3    H160734   5.717   1.982  16.412  0.5873  2.0487 -1.7015
13081TIP3    H260735   5.793   2.086  16.490  1.2373  0.7080 -0.5087
13082TIP3   OH260736   1.687   0.091  13.447  0.1772 -0.3063  0.4279
13082TIP3    H160737   1.628   0.161  13.417  1.5968  0.9724  0.5263
13082TIP3    H260738   1.671   0.020  13.386 -0.9617  0.2614  0.0240
13083TIP3   OH260739   4.479   6.565  13.655 -0.2377  0.1895 -0.1600
13083TIP3    H160740   4.386   6.576  13.673 -0.2984  0.5735 -0.6969
13083TIP3    H260741   4.494   6.614  13.574  0.3908 -0.0317 -0.1821
13084TIP3   OH260742   4.062   6.040   5.736 -0.0317  0.0677  0.6309
13084TIP3    H160743   4.109   6.018   5.656 -2.5788  0.9953 -1.2908
13084TIP3    H260744   4.063   5.960   5.788  1.1478 -0.7647 -0.6159
13085TIP3   OH260745   2.576   3.971  12.841 -0.0057  0.3434 -0.3563
13085TIP3    H160746   2.638   3.901  12.821  0.4503  0.8746 -0.8422
13085TIP3    H260747   2.517   3.934  12.906  0.8336 -0.1701  0.1188
13086TIP3   OH260748   3.265   6.790  16.660 -0.4918 -0.1743  0.3570
13086TIP3    H160749   3.244   6.708  16.615  1.7636 -0.2782 -0.6632
13086TIP3    H260750   3.182   6.820  16.696 -1.3449 -3.1179  1.1624
13087TIP3   OH260751   3.060   6.791   0.627 -0.0030 -0.0293  0.0674
13087TIP3    H160752   3.032   6.867   0.576  2.3007 -0.9350 -2.7904
13087TIP3    H260753   3.011   6.718   0.589 -0.5549 -0.3363  1.3136
13088TIP3   OH260754   5.580   3.607  16.481 -0.4509 -0.0321 -0.0864
13088TIP3    H160755   5.488   3.624  16.501 -0.4464  1.8919 -1.4254
13088TIP3    H260756   5.579   3.569  16.393  0.0273  0.0427 -0.1271
13089TIP3   OH260757   2.203   1.715  13.131  0.6648 -0.4425  0.3964
13089TIP3    H160758   2.222   1.622  13.144  0.3642 -0.7554 -1.1778
13089TIP3    H260759   2.191   1.750  13.219  1.3157 -1.7744  1.0402
13090TIP3   OH260760   3.108   2.879  15.847  0.2653 -0.0939  0.5300
13090TIP3    H160761   3.163   2.956  15.863 -0.1744  0.0333  1.5021
13090TIP3    H260762   3.064   2.898  15.764  1.7854 -0.2709 -0.3515
13091TIP3   OH260763   3.947   0.320  12.897 -1.0766 -0.4766  0.2742
13091TIP3    H160764   3.995   0.306  12.815  1.4718  1.1587  1.3913
13091TIP3    H260765   3.958   0.237  12.945  0.9563 -0.0471  0.6203
13092TIP3   OH260766   0.870   0.972  11.221 -0.3078 -0.3689 -0.1415
13092TIP3    H160767   0.903   1.060  11.205  1.7315 -0.8207  1.1819
13092TIP3    H260768   0.860   0.934  11.134  1.7563  0.1767 -0.6737
13093TIP3   OH260769   4.939   5.658   4.254 -0.7749 -0.0054  0.6386
13093TIP3    H160770   4.939   5.702   4.170 -1.6807  0.5387  0.9073
13093TIP3    H260771   4.846   5.652   4.278 -0.4745  1.2115  2.2869
13094TIP3   OH260772   5.377   0.167  15.871  0.4598  0.0858  0.2240
13094TIP3    H160773   5.433   0.095  15.902 -0.9359 -1.3114 -0.3464
13094TIP3    H260774   5.313   0.179  15.941  1.3094  1.5338  0.7841
13095TIP3   OH260775   2.677   4.471  16.259 -0.9159  0.1587  0.1260
13095TIP3    H160776   2.589   4.442  16.283 -0.5542 -1.0750  0.0342
13095TIP3    H260777   2.681   4.562  16.289 -0.6485 -1.0641  4.5882
13096TIP3   OH260778   2.059   0.554   5.562 -0.3840 -0.5001 -0.4292
13096TIP3    H160779   2.025   0.566   5.474  1.4817  0.6768 -1.0348
13096TIP3    H260780   2.146   0.518   5.549 -0.4322 -1.2011  0.9892
13097TIP3   OH260781   1.482   0.042   0.954 -0.4350  0.3554  0.4787
13097TIP3    H160782   1.500  -0.028   0.892  0.6564  2.1536 -1.3312
13097TIP3    H260783   1.416   0.004   1.013  0.4372 -2.3193 -0.0988
13098TIP3   OH260784   6.522   2.416  11.639 -0.4034 -0.0329 -0.4820
13098TIP3    H160785   6.604   2.369  11.620 -0.4439 -0.0838 -0.5316
13098TIP3    H260786   6.471   2.353  11.691 -0.2841  0.1121 -0.1853
13099TIP3   OH260787   4.467   4.159   1.116  0.3868  1.1301  0.2746
13099TIP3    H160788   4.404   4.096   1.151 -0.1426  0.3513 -1.9290
13099TIP3    H260789   4.545   4.149   1.172 -0.8901  1.0886  2.1356
13100TIP3   OH260790   6.223   2.966  11.650  0.2635  0.4422 -0.4442
13100TIP3    H160791   6.182   2.971  11.737  1.4821  0.6271  0.1452
13100TIP3    H260792   6.163   3.013  11.592 -0.9651 -0.3634  0.1257
13101TIP3   OH260793   0.168   1.844  11.474 -0.1849  0.7325 -0.1922
13101TIP3    H160794   0.252   1.890  11.470 -0.3694  1.3328  1.9377
13101TIP3    H260795   0.123   1.882  11.549 -1.1980 -1.5119  0.4080
13102TIP3   OH260796   0.914   2.048   1.371 -0.2768  0.2667 -0.4056
13102TIP3    H160797   0.876   1.969   1.331  0.4766 -0.3735  0.1021
13102TIP3    H260798   0.994   2.016   1.414 -0.3474  1.1863  0.4283
13103TIP3   OH260799   4.778   3.377  15.872 -0.4099 -0.0754  0.0115
13103TIP3    H160800   4.824   3.358  15.954 -0.5162  0.4825  0.2056
13103TIP3    H260801   4.688   3.396  15.899 -0.6950 -0.8689 -0.3351
13104TIP3   OH260802   6.778   3.588   5.530 -0.1703 -0.2599 -0.2394
13104TIP3    H160803   6.760   3.564   5.439 -1.7272 -0.2988  0.0509
13104TIP3    H260804   6.807   3.679   5.525  0.9672 -0.6377 -0.8720
13105TIP3   OH260805   1.980   0.646  11.649  0.2974 -0.7420 -0.1988
13105TIP3    H160806   1.918   0.649  11.576  0.6084 -1.7483 -0.5301
13105TIP3    H260807   1.980   0.735  11.685 -1.1702 -0.6648 -0.3137
13106TIP3   OH260808   0.305   5.179  13.251 -0.0164 -1.0160 -0.2133
13106TIP3    H160809   0.301   5.262  13.299 -0.9068 -0.8042 -0.6198
13106TIP3    H260810   0.291   5.112  13.317  0.6021 -0.8416  0.1031
13107TIP3   OH260811   1.828   6.232   3.554  0.1131  0.1964 -0.5580
13107TIP3    H160812   1.900   6.221   3.617  1.2343  4.2221 -0.8371
13107TIP3    H260813   1.863   6.196   3.472  1.0088  0.2606 -0.2197
13108TIP3   OH260814   2.846   5.273   5.415  0.7230 -0.8138 -0.0206
13108TIP3    H160815   2.917   5.323   5.457 -0.4394  0.5392  0.4012
13108TIP3    H260816   2.868   5.275   5.322 -0.0198  1.8413 -0.2269
13109TIP3   OH260817   6.459   0.863  13.881  0.1813 -0.7170  0.2555
13109TIP3    H160818   6.451   0.936  13.943 -1.1484 -1.0196  0.4711
13109TIP3    H260819   6.374   0.860  13.837  0.9549 -0.7952 -1.2843
13110TIP3   OH260820   4.130   2.820   5.427 -0.4768 -0.4826 -0.3283
13110TIP3    H160821   4.135   2.727   5.445 -0.8011 -0.4447 -0.0268
13110TIP3    H260822   4.040   2.835   5.398 -0.0023 -0.5266 -1.9473
13111TIP3   OH260823   0.874   6.328   1.919  0.1025 -0.1786 -0.2939
13111TIP3    H160824   0.873   6.303   2.011  1.2311 -0.1131 -0.2518
13111TIP3    H260825   0.807   6.396   1.912  0.8338  0.6663  0.7264
13112TIP3   OH260826   0.395   0.541   5.121  0.2922  0.3022 -0.1478
13112TIP3    H160827   0.487   0.553   5.145  0.6537 -0.2979 -1.1770
13112TIP3    H260828   0.347   0.562   5.201  1.4949 -3.3516  1.8100
13113TIP3   OH260829   2.552   3.990   0.672 -0.2162  0.2565 -0.3632
13113TIP3    H160830   2.511   4.070   0.705  1.5073  0.7881  0.5996
13113TIP3    H260831   2.553   3.931   0.748  0.7243  0.2390 -0.3788
13114TIP3   OH260832   3.906   2.290   1.492 -0.4147  0.6895 -0.1318
13114TIP3    H160833   3.917   2.315   1.584 -2.1698  3.4991 -0.5440
13114TIP3    H260834   3.860   2.206   1.496  1.1248 -0.1392  1.4968
13115TIP3   OH260835   5.451   2.234  13.642 -0.2499  0.1238  0.3387
13115TIP3    H160836   5.403   2.218  13.561  1.5498  0.2201 -0.8173
13115TIP3    H260837   5.384   2.254  13.707 -1.6733  2.2876 -1.6486
13116TIP3   OH260838   3.770   2.247   5.022  0.2379  0.0574 -0.2153
13116TIP3    H160839   3.845   2.300   5.049 -0.0491  0.0892  0.5525
13116TIP3    H260840   3.765   2.258   4.927  1.2676 -0.0371 -0.2930
13117TIP3   OH260841   5.824   3.741   6.399  0.5541 -0.0016  0.0055
13117TIP3    H160842   5.893   3.807   6.397  0.0433  0.6172  1.4050
13117TIP3    H260843   5.815   3.720   6.492  1.0144 -2.3901 -0.4197
13118TIP3   OH260844   2.622   5.523   3.816 -0.4618  0.1500 -0.3615
13118TIP3    H160845   2.571   5.465   3.873  0.5412 -1.2701 -0.8755
13118TIP3    H260846   2.694   5.554   3.872 -0.2396 -0.1686 -0.4712
13119TIP3   OH260847   2.041   4.895  13.130  0.1692 -0.1794  0.2188
13119TIP3    H160848   1.958   4.943  13.134  0.9807  1.3555 -0.3884
13119TIP3    H260849   2.036   4.846  13.048  1.4458  3.1570 -2.0607
13120TIP3   OH260850   6.636   3.499  14.754 -0.4261  0.5529  0.3240
13120TIP3    H160851   6.668   3.442  14.684 -0.3457  1.4000 -0.3331
13120TIP3    H260852   6.619   3.439  14.827 -1.7238 -0.5159 -0.8216
13121TIP3   OH260853   5.651   1.552  11.629  0.1211  0.5893  0.3226
13121TIP3    H160854   5.692   1.545  11.543 -0.6913  2.6707 -0.3165
13121TIP3    H260855   5.588   1.480  11.633  2.1326 -1.2362  0.3863
13122TIP3   OH260856   6.526   5.292  12.567 -0.6421 -0.0042  0.6750
13122TIP3    H160857   6.448   5.290  12.511  0.6652 -1.6113 -1.1748
13122TIP3    H260858   6.549   5.385  12.571 -0.3501  0.1157 -2.1250
13123TIP3   OH260859   1.324   1.135   3.733  0.6083  0.1321 -0.5351
13123TIP3    H160860   1.303   1.127   3.826  1.5391  1.4286 -0.1711
13123TIP3    H260861   1.287   1.057   3.692 -3.1209  1.2360  0.3024
13124TIP3   OH260862   3.722   4.849   0.898 -0.3272 -0.4728  0.3747
13124TIP3    H160863   3.703   4.873   0.807  0.2830  1.4796  0.7020
13124TIP3    H260864   3.818   4.846   0.902 -0.3114  0.6014  1.1949
13125TIP3   OH260865   0.801   5.288   2.791 -0.0576 -0.2299  0.2443
13125TIP3    H160866   0.772   5.344   2.863  0.9003  0.3088  0.2298
13125TIP3    H260867   0.894   5.271   2.809  0.3497  0.3729 -1.1448
13126TIP3   OH260868   0.134   3.080   0.768  0.0361 -0.1403 -0.7223
13126TIP3    H160869   0.159   3.168   0.795 -0.2634 -0.2040 -0.2312
13126TIP3    H260870   0.126   3.086   0.672  0.2122  0.3117 -0.7122
13127TIP3   OH260871   0.256   4.607   3.274  0.2828 -0.1069  0.8597
13127TIP3    H160872   0.205   4.566   3.205  3.7185 -2.8644 -0.3618
13127TIP3    H260873   0.213   4.581   3.355 -2.8499  1.7676 -0.0192
13128TIP3   OH260874   2.991   4.153  13.483 -0.5307 -0.6538  0.0899
13128TIP3    H160875   2.903   4.129  13.511 -1.0546  2.1990  1.1889
13128TIP3    H260876   2.978   4.202  13.402  0.2167 -1.4609 -0.5380
13129TIP3   OH260877   2.129   4.469  12.431  0.0487  0.7467 -0.0540
13129TIP3    H160878   2.178   4.484  12.350 -0.9459 -0.7057 -0.9841
13129TIP3    H260879   2.136   4.375  12.446  0.3775  1.0186  1.6845
13130TIP3   OH260880   2.296   5.315  16.734  0.0552 -0.6345 -0.0374
13130TIP3    H160881   2.260   5.260  16.804  0.9151  0.4028  1.2602
13130TIP3    H260882   2.390   5.303  16.740  0.2125  0.4279 -0.1963
13131TIP3   OH260883   5.993   6.594  14.007  0.9202  0.1852 -0.2355
13131TIP3    H160884   5.907   6.626  14.035  0.8480 -1.1985  1.2729
13131TIP3    H260885   5.988   6.592  13.912 -0.1199  1.7000 -0.2520
13132TIP3   OH260886   5.365   1.244   4.500 -0.2794  0.3027  0.0697
13132TIP3    H160887   5.394   1.198   4.579  2.8854 -1.9154 -2.1268
13132TIP3    H260888   5.407   1.330   4.505  2.7469 -1.0217 -0.6077
13133TIP3   OH260889   6.581   1.898   5.848  0.4022 -0.8775 -0.7605
13133TIP3    H160890   6.604   1.957   5.920 -1.6143 -1.2986  0.3205
13133TIP3    H260891   6.625   1.935   5.772 -0.5292  1.9054 -0.0949
13134TIP3   OH260892   3.044   1.654   4.296 -0.2679 -0.2141 -0.4208
13134TIP3    H160893   2.983   1.584   4.273  0.9492 -1.3974 -0.1478
13134TIP3    H260894   3.082   1.627   4.379 -0.6628  1.3948  0.3281
13135TIP3   OH260895   2.748   3.643  14.362 -0.0654  0.1999  0.2554
13135TIP3    H160896   2.841   3.656  14.377  0.3419 -0.5902 -1.3904
13135TIP3    H260897   2.738   3.549  14.348 -0.8787  0.4422 -0.9430
13136TIP3   OH260898   3.556   1.910  15.207 -0.0750  0.7442 -0.0134
13136TIP3    H160899   3.628   1.972  15.199  1.5369 -1.1043 -0.3647
13136TIP3    H260900   3.549   1.892  15.300 -1.0492  1.9758  0.1737
13137TIP3   OH260901   3.313   0.800  16.200 -0.0045  0.0122  0.0655
13137TIP3    H160902   3.237   0.858  16.196  0.0735  0.0616 -0.9291
13137TIP3    H260903   3.380   0.844  16.148 -0.0896 -1.1535 -1.0927
13138TIP3   OH260904   1.914   1.618  12.127 -0.0783  0.1863 -0.0602
13138TIP3    H160905   1.904   1.585  12.217 -1.6739 -0.7285 -0.5444
13138TIP3    H260906   1.984   1.682  12.134 -0.3531  0.3498  1.9073
13139TIP3   OH260907   4.927   4.931   4.356 -0.0899  0.3515 -0.5636
13139TIP3    H160908   4.960   4.842   4.368 -1.0767 -0.0291 -0.6051
13139TIP3    H260909   4.963   4.958   4.271  1.0462  0.3872 -0.0883
13140TIP3   OH260910   3.924   0.162   2.956  0.8159  0.3751  0.0839
13140TIP3    H160911   3.886   0.125   3.035  2.4420 -0.6794  0.4073
13140TIP3    H260912   3.953   0.086   2.905  2.1377  1.1212 -0.3136
13141TIP3   OH260913   3.881   2.215   0.282  0.3234  0.1813  0.4269
13141TIP3    H160914   3.793   2.252   0.288 -0.9189 -2.4155 -0.4418
13141TIP3    H260915   3.933   2.282   0.239 -0.5682  2.7610  3.0696
13142TIP3   OH260916   4.635   3.452  12.292  0.3630  0.1873  0.3370
13142TIP3    H160917   4.710   3.480  12.343  1.1517 -1.3653  0.0900
13142TIP3    H260918   4.660   3.467  12.201  0.3649 -0.2661  0.2583
13143TIP3   OH260919   2.935   0.797  11.108 -0.3011 -0.0217  0.2486
13143TIP3    H160920   2.921   0.736  11.180 -1.5844  1.8839  1.7477
13143TIP3    H260921   2.915   0.747  11.029 -2.5660 -1.2385  1.4902
13144TIP3   OH260922   6.350   4.371   2.044 -0.0849  0.0371  0.0566
13144TIP3    H160923   6.305   4.438   2.096 -0.7027 -0.4779  0.2036
13144TIP3    H260924   6.359   4.410   1.958 -2.1348 -0.3415 -0.3999
13145TIP3   OH260925   6.413   6.647   0.824  0.2560  0.0686 -0.2854
13145TIP3    H160926   6.398   6.732   0.864 -0.6173 -0.9014  1.5938
13145TIP3    H260927   6.338   6.594   0.853  1.3888 -1.6647 -0.3977
13146TIP3   OH260928   2.383   4.956  15.232 -0.2613 -0.5454  0.0303
13146TIP3    H160929   2.451   5.022  15.217  0.0559 -1.1381 -1.3550
13146TIP3    H260930   2.362   4.924  15.144 -2.6084 -0.1263  0.3613
13147TIP3   OH260931   0.286   5.822   4.333 -0.0777 -0.0508  0.1811
13147TIP3    H160932   0.365   5.771   4.352 -0.3779 -0.4376  0.4175
13147TIP3    H260933   0.227   5.759   4.291  0.2397  0.5653 -1.2661
13148TIP3   OH260934   6.028   4.385  13.426 -0.5548 -0.1227  0.3332
13148TIP3    H160935   5.961   4.443  13.389 -0.5293  0.6596  1.4558
13148TIP3    H260936   6.059   4.432  13.503 -0.8117 -1.8259  1.5058
13149TIP3   OH260937   0.849   1.828   1.863  0.2106 -0.6556  0.5558
13149TIP3    H160938   0.824   1.802   1.951  0.5208 -1.2940  0.4650
13149TIP3    H260939   0.772   1.810   1.809 -0.0340 -0.1163  0.7154
13150TIP3   OH260940   4.123   4.234  15.840  0.4999 -0.3414  0.9640
13150TIP3    H160941   4.153   4.321  15.866  2.0312 -0.1727 -1.0965
13150TIP3    H260942   4.203   4.183  15.831  0.0583 -0.6854 -1.9958
13151TIP3   OH260943   3.411   0.558  11.460 -0.0737  0.1162 -0.5229
13151TIP3    H160944   3.406   0.654  11.465 -2.2893  0.1704 -2.1974
13151TIP3    H260945   3.456   0.541  11.377  1.0064 -0.3512  0.1302
13152TIP3   OH260946   4.814   4.867   5.184 -0.0269 -0.3998 -0.3526
13152TIP3    H160947   4.904   4.864   5.215 -0.0951  1.4087  0.1447
13152TIP3    H260948   4.777   4.782   5.209  1.1953 -0.6939  0.5221
13153TIP3   OH260949   2.935   5.001  15.102  0.0035 -0.1354  0.5391
13153TIP3    H160950   2.844   5.027  15.118 -0.1797  0.3232 -1.1054
13153TIP3    H260951   2.956   5.038  15.016  0.7700 -2.7674 -0.5033
13154TIP3   OH260952   2.859   1.692  11.844  0.5026 -0.6265 -0.4237
13154TIP3    H160953   2.925   1.731  11.901 -0.3517 -0.5284  0.5204
13154TIP3    H260954   2.829   1.765  11.789 -0.9155  0.0589  1.1733
13155TIP3   OH260955   0.961   5.823  10.929  0.1491 -0.7219  0.4320
13155TIP3    H160956   0.893   5.757  10.913  0.3733 -0.9808  0.5275
13155TIP3    H260957   1.009   5.828  10.846 -1.9942  1.8790 -0.8154
13156TIP3   OH260958   0.355   0.352  16.198  0.1123 -0.1012  0.1907
13156TIP3    H160959   0.389   0.353  16.288 -0.5105 -1.9250  0.4778
13156TIP3    H260960   0.323   0.263  16.185  1.8597 -0.4640 -2.4762
13157TIP3   OH260961   2.320   0.202  11.845 -0.4496  0.6958  0.5192
13157TIP3    H160962   2.334   0.271  11.780 -1.8859 -1.5959 -2.4962
13157TIP3    H260963   2.232   0.218  11.878 -0.5303  0.6898  0.3123
13158TIP3   OH260964   3.126   1.880   5.108 -0.4152 -0.0971 -0.6634
13158TIP3    H160965   3.136   1.785   5.099 -0.7307 -0.6089  2.9657
13158TIP3    H260966   3.052   1.891   5.168  0.4524  2.3787  0.0867
13159TIP3   OH260967   6.477   3.525   2.529 -0.6111  0.0521  0.0308
13159TIP3    H160968   6.486   3.434   2.500  0.0302  0.5455 -1.4528
13159TIP3    H260969   6.435   3.519   2.614 -1.3925 -1.5903 -0.4260
13160TIP3   OH260970   6.781   1.860   6.513  0.1928  0.0460 -0.2354
13160TIP3    H160971   6.834   1.917   6.568  1.0421 -1.0830  0.1766
13160TIP3    H260972   6.790   1.773   6.553 -1.0600 -0.3815 -0.8250
13161TIP3   OH260973   2.297   2.778   5.782 -0.3280  0.4158  0.6207
13161TIP3    H160974   2.220   2.767   5.726  0.3245  0.0743 -0.2387
13161TIP3    H260975   2.267   2.833   5.855 -1.3946  0.2201  0.3394
13162TIP3   OH260976   5.168   5.182  15.093 -0.1340  0.0732 -0.1375
13162TIP3    H160977   5.263   5.179  15.102 -0.1689 -0.6671  0.0789
13162TIP3    H260978   5.144   5.091  15.073 -0.7467  0.3441 -0.6554
13163TIP3   OH260979   4.909   0.869   1.228  0.6230 -0.3333  0.1169
13163TIP3    H160980   4.909   0.799   1.163  2.3836  1.0221 -1.4875
13163TIP3    H260981   5.002   0.884   1.245  0.3037  1.6514  0.3142
13164TIP3   OH260982   0.148   4.493  14.518 -0.0168  0.3054 -0.7390
13164TIP3    H160983   0.155   4.535  14.603 -0.7268 -0.0165 -0.5088
13164TIP3    H260984   0.054   4.481  14.505  0.0936  0.1872 -1.4865
13165TIP3   OH260985   4.002   2.233  13.272  0.3118  0.0486  0.3323
13165TIP3    H160986   4.076   2.273  13.316  0.9844 -4.0204  3.4670
13165TIP3    H260987   3.927   2.250  13.329 -0.2215  0.1499 -0.3732
13166TIP3   OH260988   3.833   4.356  16.201 -0.5672  0.2694  0.5889
13166TIP3    H160989   3.744   4.367  16.234 -0.3640 -0.0655  1.2803
13166TIP3    H260990   3.826   4.367  16.107 -1.4510 -0.4616  0.5606
13167TIP3   OH260991   1.451   4.791   5.127 -0.3289 -0.2867 -0.1873
13167TIP3    H160992   1.369   4.835   5.147  0.5544  0.5799  1.7541
13167TIP3    H260993   1.516   4.836   5.181  1.4998 -0.7170 -1.9074
13168TIP3   OH260994   0.595   1.879   1.428  0.1196 -0.3830  0.8194
13168TIP3    H160995   0.604   1.949   1.493 -1.7052 -0.2196  0.9537
13168TIP3    H260996   0.530   1.820   1.467  0.0623 -1.0301 -0.2424
13169TIP3   OH260997   2.813   1.918   3.059  0.7112  0.3878 -0.1274
13169TIP3    H160998   2.786   1.892   3.147  0.3646 -0.3862 -0.4563
13169TIP3    H260999   2.801   2.013   3.058  1.8658  0.5748  1.0429
13170TIP3   OH261000   4.526   1.415   2.704 -0.1585 -0.1285 -0.1547
13170TIP3    H161001   4.604   1.360   2.699 -1.5796 -2.2259 -0.5023
13170TIP3    H261002   4.548   1.484   2.767  2.2230 -0.1770 -0.8597
13171TIP3   OH261003   0.631   4.362   0.643  0.0744  0.3043 -0.4681
13171TIP3    H161004   0.551   4.404   0.612 -0.6759  0.5509  1.6686
13171TIP3    H261005   0.686   4.354   0.565 -1.5741  1.1469 -1.7624
13172TIP3   OH261006   4.832   1.525   2.478  0.3599 -0.0148 -0.3715
13172TIP3    H161007   4.783   1.600   2.443  0.9943 -0.4216 -2.2726
13172TIP3    H261008   4.823   1.532   2.573 -0.5109  1.8344 -0.5500
13173TIP3   OH261009   6.569   2.757   1.624 -0.4613 -0.0822  0.0725
13173TIP3    H161010   6.642   2.696   1.637 -0.3588  0.0592  0.1521
13173TIP3    H261011   6.606   2.843   1.642 -0.5514  0.0252 -0.2605
13174TIP3   OH261012   0.134   2.052  12.481 -0.3588  0.2782  0.5222
13174TIP3    H161013   0.120   2.096  12.397  0.9545 -0.2540  0.0051
13174TIP3    H261014   0.047   2.024  12.508 -0.7982  0.4426 -0.6702
13175TIP3   OH261015   2.998   3.182  15.367  0.6604  0.1679  0.2752
13175TIP3    H161016   3.085   3.183  15.327  0.5305  1.8715 -0.0076
13175TIP3    H261017   3.014   3.199  15.460  0.8335 -2.4052  0.8075
13176TIP3   OH261018   5.247   0.011   4.575 -0.4484 -0.1681 -0.0721
13176TIP3    H161019   5.309   0.038   4.643 -1.2891 -1.4716  1.2713
13176TIP3    H261020   5.240   0.088   4.517  1.1203  0.5872  0.6636
13177TIP3   OH261021   3.858   1.297   0.697 -0.5029  0.0855  0.3994
13177TIP3    H161022   3.925   1.248   0.649  0.7060  2.7430 -0.8493
13177TIP3    H261023   3.781   1.294   0.642 -0.2490  0.0608  0.0413
13178TIP3   OH261024   6.058   0.683  17.164 -0.3530 -0.2169 -0.0560
13178TIP3    H161025   6.020   0.726  17.241  0.0343  1.1676 -0.6009
13178TIP3    H261026   6.122   0.747  17.130 -0.7148 -0.6651 -1.6734
13179TIP3   OH261027   2.603   5.045  15.586  0.7284 -0.7603 -0.2661
13179TIP3    H161028   2.533   5.064  15.649 -0.8086 -0.2604 -2.0292
13179TIP3    H261029   2.614   5.126  15.537  2.6274 -0.8165 -0.0211
13180TIP3   OH261030   5.654   0.629  12.368 -0.6619 -0.1888 -0.4483
13180TIP3    H161031   5.616   0.626  12.280 -1.0960  0.6041 -0.2980
13180TIP3    H261032   5.749   0.629  12.353 -0.7303  0.5169 -0.9578
13181TIP3   OH261033   0.677   5.562   6.219  0.0172 -0.0486  0.2552
13181TIP3    H161034   0.617   5.594   6.286 -1.0535 -1.6518  0.1164
13181TIP3    H261035   0.624   5.559   6.139  1.4911  2.6709 -0.9575
13182TIP3   OH261036   0.046   5.834  13.960  0.1873  0.2666 -0.4650
13182TIP3    H161037   0.027   5.886  14.038 -0.0120  0.3939 -0.5985
13182TIP3    H261038   0.132   5.865  13.931 -0.3792  1.2707 -1.1505
13183TIP3   OH261039   2.260   1.326  15.131  0.8105 -0.5115 -0.1092
13183TIP3    H161040   2.320   1.396  15.155 -0.7851  0.3088  1.7182
13183TIP3    H261041   2.177   1.370  15.114  0.1322 -1.8327 -0.3430
13184TIP3   OH261042   5.513   5.202   0.830  0.2284  0.4609 -0.0937
13184TIP3    H161043   5.524   5.200   0.735 -0.8958 -1.0648 -0.2388
13184TIP3    H261044   5.595   5.168   0.864  1.4811  2.9994 -0.3610
13185TIP3   OH261045   4.458   1.790  13.679  0.4567  0.6130 -0.4333
13185TIP3    H161046   4.505   1.836  13.610 -0.5846  0.7487 -1.0721
13185TIP3    H261047   4.366   1.797  13.654  0.2930 -2.8758 -1.2407
13186TIP3   OH261048   6.573   2.465  14.746  0.4834  0.2124  0.1989
13186TIP3    H161049   6.514   2.540  14.736 -0.1179 -0.3300 -0.4601
13186TIP3    H261050   6.517   2.389  14.729  1.3775 -0.3127 -0.4572
13187TIP3   OH261051   6.588   0.812   5.100  0.6369 -0.2630 -0.6441
13187TIP3    H161052   6.668   0.840   5.144  0.0490 -1.9752  1.7052
13187TIP3    H261053   6.528   0.885   5.110  2.0084  1.3224 -3.0307
13188TIP3   OH261054   4.454   4.955  12.904  0.1514  0.5793 -0.0602
13188TIP3    H161055   4.389   4.886  12.917  0.5509  0.2089 -0.0157
13188TIP3    H261056   4.402   5.032  12.883 -0.2965  0.2462 -0.2024
13189TIP3   OH261057   0.503   1.992   1.143  0.6020  0.3465 -0.3521
13189TIP3    H161058   0.567   2.026   1.081  1.4284 -0.8820 -0.2060
13189TIP3    H261059   0.426   2.048   1.132  1.1719  0.9135 -1.5836
13190TIP3   OH261060   3.823   2.221   1.099 -0.4723 -0.4938  0.1706
13190TIP3    H161061   3.887   2.248   1.165  0.6870  0.1282 -1.1613
13190TIP3    H261062   3.757   2.290   1.100  1.2793  1.3006 -1.6023
13191TIP3   OH261063   2.322   2.459  12.404 -0.1119 -0.5119  0.0508
13191TIP3    H161064   2.239   2.431  12.440  0.7740 -1.8925  1.1104
13191TIP3    H261065   2.363   2.379  12.370  1.4001 -0.1294  0.8673
13192TIP3   OH261066   5.998   3.750   4.550  0.0268  0.7901 -0.1824
13192TIP3    H161067   5.926   3.739   4.487  0.7987  0.0460 -0.9559
13192TIP3    H261068   6.075   3.764   4.495  0.7456 -0.0644  0.6014
13193TIP3   OH261069   2.417   2.543  12.652  0.5882  0.2684 -0.2457
13193TIP3    H161070   2.452   2.457  12.676  0.0967  0.1395  0.0253
13193TIP3    H261071   2.381   2.530  12.564 -1.7326 -0.4956  0.7301
13194TIP3   OH261072   1.497   3.773   5.825  0.2168 -0.2850  0.1186
13194TIP3    H161073   1.404   3.750   5.827 -0.5694  2.0215 -2.9442
13194TIP3    H261074   1.540   3.694   5.791 -0.4996 -1.4497  1.7613
13195TIP3   OH261075   2.648   1.312   0.825 -0.1646  0.1453 -0.1281
13195TIP3    H161076   2.720   1.283   0.769  0.7779  1.0005  0.6072
13195TIP3    H261077   2.602   1.231   0.847  1.4705 -0.6413  0.5947
13196TIP3   OH261078   2.512   2.972   5.479 -0.0930  0.1743  0.7996
13196TIP3    H161079   2.476   2.887   5.457 -0.0102  0.3317  0.0256
13196TIP3    H261080   2.493   2.983   5.572 -1.1399 -0.1800  0.6361
13197TIP3   OH261081   2.708   2.567  16.028  0.0508  0.3771  0.5785
13197TIP3    H161082   2.639   2.633  16.032  0.3266  0.5902  2.1621
13197TIP3    H261083   2.789   2.616  16.019  0.3791  0.3832  2.9510
13198TIP3   OH261084   2.873   0.207   0.890 -0.2086  0.3445 -0.4417
13198TIP3    H161085   2.840   0.177   0.806  0.2030  1.0648 -0.8713
13198TIP3    H261086   2.808   0.270   0.921 -0.2627  0.2267 -0.3173
13199TIP3   OH261087   5.195   4.128  14.820 -0.0379  0.0937  0.2515
13199TIP3    H161088   5.153   4.042  14.828 -2.6315  1.2857  0.3223
13199TIP3    H261089   5.174   4.157  14.731 -0.2797  1.1838  0.6522
13200TIP3   OH261090   4.841   5.570   0.994 -0.0516  0.4187 -0.0852
13200TIP3    H161091   4.902   5.535   0.930  0.2199  1.5334 -0.4716
13200TIP3    H261092   4.782   5.498   1.014 -0.2678  0.0898 -1.7521
13201TIP3   OH261093   0.829   2.780  15.862  0.8414  0.2699  0.0452
13201TIP3    H161094   0.775   2.836  15.807  1.7935  0.7206 -0.4459
13201TIP3    H261095   0.860   2.837  15.932  1.4403  0.2326 -0.1939
13202TIP3   OH261096   6.058   3.377  16.586 -0.1012  0.4989  0.1327
13202TIP3    H161097   5.989   3.440  16.607  0.3503  0.5591  1.4982
13202TIP3    H261098   6.027   3.294  16.620 -0.5711 -0.0069 -1.4284
13203TIP3   OH261099   2.336   2.135  15.504 -0.0524 -0.2190  0.8207
13203TIP3    H161100   2.425   2.166  15.484  0.4504 -0.7170  2.1366
13203TIP3    H261101   2.349   2.044  15.531 -0.7236  0.2116  2.7254
13204TIP3   OH261102   2.799   4.931  12.673 -0.4645  0.0768  0.2791
13204TIP3    H161103   2.819   4.994  12.604  2.7400 -0.4149  0.5803
13204TIP3    H261104   2.718   4.889  12.645 -1.2773  2.4525 -1.2447
13205TIP3   OH261105   5.121   4.697  13.752  0.3250  0.3053 -0.1637
13205TIP3    H161106   5.079   4.619  13.787  0.6786  0.2915  0.2279
13205TIP3    H261107   5.183   4.665  13.687 -0.1862  0.3194 -0.6715
13206TIP3   OH261108   3.179   0.250   4.624  0.4795  0.4754  0.2189
13206TIP3    H161109   3.084   0.260   4.621  0.5658  1.7911  1.0513
13206TIP3    H261110   3.213   0.318   4.567  0.9267 -0.6727 -0.9369
13207TIP3   OH261111   5.746   6.482   6.234 -0.1538  0.0356 -0.3004
13207TIP3    H161112   5.701   6.552   6.281  1.7897 -0.6708  2.9249
13207TIP3    H261113   5.687   6.407   6.241 -0.9253  0.5532 -1.1240
13208TIP3   OH261114   1.570   2.733  16.230  0.2267 -0.1867 -0.0959
13208TIP3    H161115   1.479   2.753  16.206 -0.0500  1.6812  2.1111
13208TIP3    H261116   1.563   2.683  16.311  0.9974  3.4529  2.4960
13209TIP3   OH261117   6.657   6.512   5.039 -0.0167 -0.0368  0.0679
13209TIP3    H161118   6.581   6.455   5.030 -1.0148  1.3691 -0.7487
13209TIP3    H261119   6.698   6.485   5.121  0.3170 -2.7925 -0.8884
13210TIP3   OH261120   3.772   1.943   6.047 -0.5538  0.7025  0.0800
13210TIP3    H161121   3.775   1.936   5.952  0.2350  1.0295  0.0756
13210TIP3    H261122   3.859   1.916   6.076 -1.2664 -0.9237  0.8267
13211TIP3   OH261123   4.291   0.861   3.275  0.0799 -0.3486 -0.2823
13211TIP3    H161124   4.271   0.804   3.201  2.0021 -0.5784 -0.6766
13211TIP3    H261125   4.276   0.950   3.241  0.6773 -0.4663 -0.8966
13212TIP3   OH261126   0.781   3.787  16.140 -0.4886  0.6102 -0.5447
13212TIP3    H161127   0.707   3.848  16.150 -1.4219 -0.7447  1.8973
13212TIP3    H261128   0.744   3.712  16.093 -0.1342  0.7379 -1.0274
13213TIP3   OH261129   5.734   2.862  12.253 -0.5844  0.0950  0.3969
13213TIP3    H161130   5.802   2.830  12.313  1.2331  3.7259  0.5502
13213TIP3    H261131   5.777   2.864  12.168 -1.6331 -0.5978 -0.1749
13214TIP3   OH261132   2.778   6.126  16.199  0.1638 -0.0642 -0.1333
13214TIP3    H161133   2.771   6.030  16.194 -0.8346  0.0693 -2.2027
13214TIP3    H261134   2.866   6.146  16.167  0.0284 -0.2396 -0.6175
13215TIP3   OH261135   1.161   2.865   1.488  0.0734  0.0420 -0.2137
13215TIP3    H161136   1.141   2.811   1.565 -1.2495  2.2457  1.0710
13215TIP3    H261137   1.081   2.864   1.436  0.6908 -0.7566 -1.1827
13216TIP3   OH261138   1.888   6.619  13.767  0.2135  0.2205 -0.0353
13216TIP3    H161139   1.848   6.696  13.808 -1.4472 -0.7999  0.3836
13216TIP3    H261140   1.916   6.565  13.841 -0.0658 -0.2833 -0.2949
13217TIP3   OH261141   2.268   1.979   4.609 -0.1963  0.1812  0.1153
13217TIP3    H161142   2.350   2.025   4.629  0.2514 -0.2514 -0.7075
13217TIP3    H261143   2.295   1.893   4.579 -0.8048  0.8085 -2.4276
13218TIP3   OH261144   0.097   3.103   4.512 -0.0093 -0.1493 -0.4289
13218TIP3    H161145   0.111   3.011   4.489  1.2732 -0.3515  0.9946
13218TIP3    H261146   0.006   3.120   4.488 -0.5693 -2.0728  0.1699
13219TIP3   OH261147   4.450   5.721   3.297 -0.5992 -0.1206 -0.3796
13219TIP3    H161148   4.455   5.729   3.392  1.3898 -2.6243 -0.1390
13219TIP3    H261149   4.367   5.761   3.273  0.5409  4.2135  1.8598
13220TIP3   OH261150   3.575   6.186   1.833  0.3735 -0.0282  0.3889
13220TIP3    H161151   3.526   6.269   1.834  1.8890  0.9679 -1.4597
13220TIP3    H261152   3.620   6.186   1.749  1.8752 -1.8966  1.1250
13221TIP3   OH261153   3.122   1.601   1.631 -0.2905 -0.0534 -0.2216
13221TIP3    H161154   3.215   1.621   1.621 -0.0945 -0.4583  0.6433
13221TIP3    H261155   3.108   1.522   1.579  0.2610 -1.0094  1.0281
13222TIP3   OH261156   6.408   2.878  13.621  0.4914 -0.8532  0.6172
13222TIP3    H161157   6.319   2.910  13.614  0.4673 -0.7893  1.2218
13222TIP3    H261158   6.453   2.916  13.546 -0.0059 -0.9584  0.2581
13223TIP3   OH261159   3.524   2.379   0.627  0.1926  0.4333  0.2555
13223TIP3    H161160   3.439   2.335   0.629  0.1865  0.3816 -0.6185
13223TIP3    H261161   3.558   2.362   0.538 -0.3792  3.2377 -0.5895
13224TIP3   OH261162   2.517   0.079   4.555 -0.5583 -0.2946 -0.4273
13224TIP3    H161163   2.604   0.111   4.577 -0.1106 -0.3166 -2.0481
13224TIP3    H261164   2.462   0.105   4.629  1.1477 -1.9232  1.5014
13225TIP3   OH261165   0.663   5.885  17.008 -0.3897 -0.2043  0.4156
13225TIP3    H161166   0.580   5.837  17.015 -1.3514  1.1178 -1.1638
13225TIP3    H261167   0.654   5.957  17.070 -1.2479  1.0052 -1.0549
13226TIP3   OH261168   2.355   3.848  14.616 -0.2913 -0.1504 -0.2585
13226TIP3    H161169   2.382   3.913  14.552 -0.2816 -0.0632 -0.1655
13226TIP3    H261170   2.259   3.852  14.615 -0.2927 -0.2003 -0.3204
13227TIP3   OH261171   0.900   1.080   1.866 -0.0312  0.6002  0.2409
13227TIP3    H161172   0.880   1.019   1.937 -1.2227 -2.3981 -2.4546
13227TIP3    H261173   0.995   1.091   1.870 -0.0092  0.0944  1.9465
13228TIP3   OH261174   1.888   5.127  13.196 -0.0196  0.4399  0.1230
13228TIP3    H161175   1.907   5.155  13.106  2.2400  0.2024  0.4794
13228TIP3    H261176   1.793   5.119  13.198 -0.2702  1.9956 -1.7928
13229TIP3   OH261177   5.735   6.647   5.773 -0.0728  0.0288 -0.2499
13229TIP3    H161178   5.683   6.576   5.811  0.1610  0.5664  1.1321
13229TIP3    H261179   5.678   6.687   5.708 -0.9478 -0.1791  0.3752
13230TIP3   OH261180   1.826   1.019  10.196  0.1297 -0.2105 -0.5358
13230TIP3    H161181   1.748   1.042  10.246 -1.4064 -2.1291 -1.9189
13230TIP3    H261182   1.877   0.964  10.256 -1.3785 -1.9552 -0.7749
13231TIP3   OH261183   0.823   5.706  15.665 -0.4455 -0.4679  0.0604
13231TIP3    H161184   0.895   5.716  15.602 -0.8095 -1.1557 -0.4774
13231TIP3    H261185   0.867   5.695  15.750  0.0489  0.4653 -0.0590
13232TIP3   OH261186   4.855   2.628  13.706 -0.3073 -0.0113  0.3750
13232TIP3    H161187   4.912   2.589  13.773  2.0019  0.1040 -1.4074
13232TIP3    H261188   4.871   2.722  13.713 -0.2101  0.0155 -0.1727
13233TIP3   OH261189   6.662   5.450   2.145 -0.2340 -0.0138  0.1252
13233TIP3    H161190   6.688   5.484   2.060  1.1204  1.1979  0.9929
13233TIP3    H261191   6.583   5.398   2.127 -0.3270  0.7203 -1.7516
13234TIP3   OH261192   1.161   5.384  16.922 -0.1111 -0.0087  0.4523
13234TIP3    H161193   1.077   5.383  16.876  0.7442  0.0438 -1.1666
13234TIP3    H261194   1.211   5.313  16.883  0.7311  0.1827  1.1489
13235TIP3   OH261195   4.027   4.766  12.663 -0.2961  0.2106 -0.0813
13235TIP3    H161196   4.041   4.800  12.575  3.5808  3.1577  1.3709
13235TIP3    H261197   4.097   4.701  12.676 -0.0372  0.6958  1.1632
13236TIP3   OH261198   4.806   2.739   2.397 -0.0124  0.1803 -0.5244
13236TIP3    H161199   4.875   2.735   2.331  1.0923  2.0295  0.4287
13236TIP3    H261200   4.851   2.720   2.479 -0.8281  0.5217  0.0043
13237TIP3   OH261201   2.958   0.756   4.147  0.1904  0.2160 -0.5656
13237TIP3    H161202   3.003   0.839   4.133 -0.6964  0.6345 -1.0679
13237TIP3    H261203   2.889   0.755   4.081 -0.4045 -0.4880  0.0426
13238TIP3   OH261204   1.819   4.500   4.810 -0.0364 -0.1859  0.5640
13238TIP3    H161205   1.849   4.416   4.773  0.1246 -0.0106  0.2919
13238TIP3    H261206   1.724   4.490   4.817 -0.0562 -0.2678  0.2162
13239TIP3   OH261207   5.557   3.274  16.127 -0.3176 -0.4439  0.0151
13239TIP3    H161208   5.530   3.216  16.056 -1.1095  1.4061 -1.2779
13239TIP3    H261209   5.629   3.227  16.170  1.5018 -0.8623 -3.1664
13240TIP3   OH261210   1.825   5.917  16.744 -0.6164 -0.1546 -0.6837
13240TIP3    H161211   1.772   5.914  16.824 -0.7198  0.3537 -0.7288
13240TIP3    H261212   1.771   5.873  16.679 -1.4275  1.1914 -0.9717
13241TIP3   OH261213   6.426   2.961   0.626 -0.2254  0.0349 -0.1288
13241TIP3    H161214   6.497   2.909   0.588  1.0456  1.5754 -0.0012
13241TIP3    H261215   6.470   3.019   0.688 -1.8192 -0.0111  1.1048
13242TIP3   OH261216   6.371   1.747  17.108  0.5857 -0.1936  0.1203
13242TIP3    H161217   6.448   1.789  17.146  0.8117  0.4093 -0.9812
13242TIP3    H261218   6.389   1.653  17.116  1.8924 -0.0657 -1.0184
13243TIP3   OH261219   0.638   6.284   2.609 -0.2845  0.0506  0.1802
13243TIP3    H161220   0.703   6.274   2.678 -0.6807 -1.4113  0.3740
13243TIP3    H261221   0.570   6.221   2.631 -1.6266  1.3083 -0.2002
13244TIP3   OH261222   3.589   0.674   6.410 -0.1753  0.0749 -0.2771
13244TIP3    H161223   3.543   0.738   6.355  0.1510 -0.7554 -1.5814
13244TIP3    H261224   3.566   0.589   6.371  1.4990 -0.4346 -0.2418
13245TIP3   OH261225   6.701   3.440   2.331  0.0811 -0.2089 -0.0953
13245TIP3    H161226   6.756   3.450   2.409  1.3881 -0.5133 -0.9559
13245TIP3    H261227   6.621   3.488   2.353  0.6758  0.2635  1.1811
13246TIP3   OH261228   5.723   2.128  10.645  0.5170  0.0921  0.2083
13246TIP3    H161229   5.696   2.200  10.589  1.3090  0.1946 -0.0543
13246TIP3    H261230   5.817   2.142  10.659  0.4204 -0.1855  1.1910
13247TIP3   OH261231   2.668   5.412   1.881  0.3987 -0.0209  0.5128
13247TIP3    H161232   2.742   5.472   1.881 -0.2268  0.7749 -0.3024
13247TIP3    H261233   2.707   5.326   1.863  1.4829 -0.1690  3.0217
13248TIP3   OH261234   3.824   4.552  10.971 -0.1347  0.4781  0.0288
13248TIP3    H161235   3.766   4.616  10.929  0.9732  0.0890 -2.2315
13248TIP3    H261236   3.782   4.467  10.953  0.4988  0.2851 -0.5538
13249TIP3   OH261237   4.654   0.518  12.098  0.1295  0.7164 -0.2303
13249TIP3    H161238   4.604   0.451  12.052  0.3475  0.4175 -0.0364
13249TIP3    H261239   4.647   0.494  12.190  0.1457  1.0037 -0.1538
13250TIP3   OH261240   3.717   1.456   6.210 -0.0056  0.7951 -0.1142
13250TIP3    H161241   3.707   1.481   6.302  1.6164  1.9170 -0.1984
13250TIP3    H261242   3.811   1.446   6.197 -0.1799  0.8073 -1.6846
13251TIP3   OH261243   4.842   5.607  16.574 -0.4106 -0.1274 -0.1407
13251TIP3    H161244   4.764   5.646  16.533 -0.7431  0.9595  1.4082
13251TIP3    H261245   4.815   5.518  16.596 -1.1582  0.1738  0.1938
13252TIP3   OH261246   5.680   0.875   0.471 -1.2390 -0.6920 -0.2732
13252TIP3    H161247   5.698   0.920   0.388  1.8556  0.6066  0.9483
13252TIP3    H261248   5.640   0.943   0.526  1.1305 -0.0150  0.7506
13253TIP3   OH261249   1.526   4.684   1.640  0.0657 -0.6339 -0.0127
13253TIP3    H161250   1.614   4.678   1.604  0.5670 -0.5331  1.1431
13253TIP3    H261251   1.479   4.609   1.602  0.7111 -0.8210 -0.4573
13254TIP3   OH261252   2.897   2.834   3.777  0.3256 -0.7413 -0.3733
13254TIP3    H161253   2.954   2.870   3.710 -1.2226  3.1069  0.1551
13254TIP3    H261254   2.951   2.835   3.857  0.5362 -0.2572 -0.5166
13255TIP3   OH261255   5.479   5.050  11.838 -0.4281  0.0717  0.6019
13255TIP3    H161256   5.554   4.993  11.854 -0.4728 -0.6710 -1.4969
13255TIP3    H261257   5.410   5.015  11.894  0.0462 -0.9066  0.5991
13256TIP3   OH261258   2.554   5.797  11.490  1.0783  0.3396  0.2974
13256TIP3    H161259   2.649   5.791  11.495  1.1012 -0.2677 -0.6039
13256TIP3    H261260   2.537   5.891  11.480  1.7256  0.3288 -1.3852
13257TIP3   OH261261   3.358   4.212  12.835 -0.0401 -0.1455  0.9762
13257TIP3    H161262   3.371   4.171  12.750  0.1030 -0.7182  1.2685
13257TIP3    H261263   3.273   4.256  12.828 -0.1859 -0.4750  0.6494
13258TIP3   OH261264   5.112   2.945   3.747 -0.6684  0.1275 -0.2624
13258TIP3    H161265   5.185   2.901   3.703  1.0995  3.1247 -0.5460
13258TIP3    H261266   5.045   2.954   3.680 -1.3706 -2.5175 -0.0422
13259TIP3   OH261267   4.473   6.104   0.072  0.4037  0.3409 -0.1124
13259TIP3    H161268   4.514   6.040   0.014  0.0687  0.8288 -0.9087
13259TIP3    H261269   4.381   6.076   0.078  0.0836  1.1537 -1.0621
13260TIP3   OH261270   2.222   1.283  12.692  0.1240 -0.5266 -0.0794
13260TIP3    H161271   2.294   1.344  12.710 -1.4043  0.9002  1.6544
13260TIP3    H261272   2.261   1.196  12.704  1.9719  0.1222 -0.9963
13261TIP3   OH261273   4.806   6.137   5.486 -0.7033  0.0508 -0.0557
13261TIP3    H161274   4.877   6.095   5.438  0.0071  0.0586  0.9534
13261TIP3    H261275   4.790   6.079   5.561 -0.4653  0.9987  0.7511
13262TIP3   OH261276   5.485   5.764  12.375  0.1552  0.4582 -0.3169
13262TIP3    H161277   5.576   5.772  12.404  0.6286  0.7629 -1.8094
13262TIP3    H261278   5.476   5.673  12.349 -0.0417  0.3694  0.0603
13263TIP3   OH261279   1.423   2.918   3.153 -0.2686  0.2349  0.4340
13263TIP3    H161280   1.507   2.888   3.118 -0.4837 -1.1368  1.0537
13263TIP3    H261281   1.395   2.986   3.091  1.2267  0.6529  0.1548
13264TIP3   OH261282   2.568   6.729   5.525  0.8202 -0.0657 -0.7846
13264TIP3    H161283   2.591   6.669   5.596  0.4342  0.7520  0.0506
13264TIP3    H261284   2.558   6.672   5.448  1.9765 -0.8753 -0.3636
13265TIP3   OH261285   5.713   3.091  14.730  0.1291  0.7011 -0.4961
13265TIP3    H161286   5.773   3.032  14.777  0.4005  0.2029 -1.4406
13265TIP3    H261287   5.698   3.163  14.791  0.3977  0.0277  0.3896
13266TIP3   OH261288   1.936   1.046   4.222  0.5344  0.2039  0.7415
13266TIP3    H161289   1.885   1.021   4.299 -4.2381  2.1735 -1.3397
13266TIP3    H261290   1.983   1.124   4.248  0.0765  0.0669  2.0298
13267TIP3   OH261291   3.074   3.709   6.057 -0.0053  0.5179  0.0648
13267TIP3    H161292   2.981   3.691   6.069  0.3943 -0.1731  2.4875
13267TIP3    H261293   3.115   3.623   6.054  0.7448  0.8407  0.7703
13268TIP3   OH261294   6.416   1.894   0.219  0.0022 -0.2452  0.3846
13268TIP3    H161295   6.478   1.833   0.260 -0.4424 -0.8315  0.1899
13268TIP3    H261296   6.362   1.925   0.291  1.4362  1.4140  0.8260
13269TIP3   OH261297   4.032   2.039   2.983 -0.2076  0.7377 -0.0892
13269TIP3    H161298   4.120   2.005   2.970 -0.9586 -1.1245 -0.7172
13269TIP3    H261299   4.037   2.090   3.064  1.1933 -0.3284  0.5305
13270TIP3   OH261300   4.867   5.831  15.149 -0.4293 -0.4156  0.4174
13270TIP3    H161301   4.773   5.841  15.163 -0.5071  2.2356 -1.1910
13270TIP3    H261302   4.907   5.860  15.231 -0.9657 -1.0299  0.9127
13271TIP3   OH261303   2.976   5.378  14.153 -0.0521 -0.1237  0.0207
13271TIP3    H161304   3.025   5.299  14.128 -1.2123 -1.3035  1.3050
13271TIP3    H261305   3.036   5.450  14.133  0.7458 -1.2409 -1.9428
13272TIP3   OH261306   1.305   6.495  13.911 -0.4522 -0.0082  0.2206
13272TIP3    H161307   1.254   6.502  13.991 -0.3906  0.5025  0.2208
13272TIP3    H261308   1.380   6.553  13.925 -0.1229 -0.3877  0.0359
13273TIP3   OH261309   5.666   0.313  10.272 -0.4027  0.3068  0.2399
13273TIP3    H161310   5.727   0.387  10.271 -2.4328  2.1142 -1.1708
13273TIP3    H261311   5.604   0.335  10.342 -1.0243 -0.0629 -0.1886
13274TIP3   OH261312   2.822   1.828   4.199 -0.1009  0.1185 -0.0757
13274TIP3    H161313   2.891   1.812   4.263  0.4019 -0.5988 -0.7737
13274TIP3    H261314   2.868   1.837   4.115 -0.7650  0.7825 -0.3786
13275TIP3   OH261315   5.686   3.742   1.758 -0.2652  0.7166 -0.3449
13275TIP3    H161316   5.730   3.731   1.843 -0.2307  0.8609 -0.3432
13275TIP3    H261317   5.742   3.697   1.696  0.3669  1.6621 -0.4851
13276TIP3   OH261318   3.168   1.893   1.030 -0.0448 -0.2931  0.6374
13276TIP3    H161319   3.255   1.858   1.014  0.3593  0.6038  0.8074
13276TIP3    H261320   3.160   1.896   1.126 -0.6526 -1.2886  0.6334
13277TIP3   OH261321   6.761   5.138   0.294  0.0653  0.5050  0.3345
13277TIP3    H161322   6.838   5.184   0.261  0.4350 -0.1014  0.3490
13277TIP3    H261323   6.778   5.127   0.388 -0.5655  1.4013  0.5653
13278TIP3   OH261324   5.108   5.771  12.076  0.1910  0.1063  0.1003
13278TIP3    H161325   5.076   5.822  12.151  0.7224  0.4372  0.1068
13278TIP3    H261326   5.166   5.705  12.115 -0.7107 -0.7027  0.1208
13279TIP3   OH261327   3.263   5.836   4.223  0.0232 -0.2720  0.2136
13279TIP3    H161328   3.350   5.812   4.190  0.2563  1.6263 -0.7243
13279TIP3    H261329   3.280   5.910   4.282 -0.5725 -2.5666  3.5047
13280TIP3   OH261330   3.436   6.302   0.166  0.0119  0.6901  0.4887
13280TIP3    H161331   3.525   6.269   0.169  0.0937  0.8913  0.3015
13280TIP3    H261332   3.445   6.393   0.139 -0.3853  0.1351 -1.7357
13281TIP3   OH261333   1.262   0.624  15.411  0.1601 -0.4833  0.3067
13281TIP3    H161334   1.246   0.687  15.481  0.6356 -0.3181  0.2730
13281TIP3    H261335   1.305   0.550  15.454  0.6043 -0.3113  0.1709
13282TIP3   OH261336   1.800   4.750  12.766 -0.2234  0.1128  0.0923
13282TIP3    H161337   1.764   4.674  12.811 -0.5533 -0.2342 -0.7304
13282TIP3    H261338   1.772   4.740  12.675  0.7868  0.5571 -0.2942
13283TIP3   OH261339   0.744   5.492  16.281 -0.1208 -0.0214  0.0359
13283TIP3    H161340   0.649   5.477  16.278 -0.0480 -0.4097 -0.6096
13283TIP3    H261341   0.761   5.544  16.203  0.3476 -0.8734 -0.4418
13284TIP3   OH261342   4.795   4.680  10.685  0.2087  0.0978  0.1053
13284TIP3    H161343   4.806   4.687  10.780 -1.2367 -1.9762  0.5100
13284TIP3    H261344   4.708   4.641  10.675 -0.9692  2.9821 -2.2208
13285TIP3   OH261345   1.324   3.145   0.265 -0.1061 -0.5079  0.1159
13285TIP3    H161346   1.248   3.200   0.285  0.0226 -0.0568 -0.5935
13285TIP3    H261347   1.393   3.207   0.242  0.0533 -0.9570 -0.6738
13286TIP3   OH261348   3.074   3.496  15.297  0.5586 -0.0948  0.5117
13286TIP3    H161349   3.030   3.438  15.235  1.5964  0.8733 -1.2209
13286TIP3    H261350   3.164   3.463  15.300  1.1187  1.2279 -0.3634
13287TIP3   OH261351   3.027   3.231   3.324 -0.3592  0.0420 -0.2119
13287TIP3    H161352   3.111   3.231   3.278 -0.8405  0.4016 -1.1213
13287TIP3    H261353   2.996   3.321   3.315 -0.6378  0.0250  0.5206
13288TIP3   OH261354   1.340   5.929   2.294 -0.2902  0.0948  0.5427
13288TIP3    H161355   1.408   5.992   2.266 -0.1209 -0.7111 -0.9338
13288TIP3    H261356   1.351   5.854   2.235 -1.7988 -0.4862  0.9654
13289TIP3   OH261357   4.921   5.167   3.187  0.0099 -0.0458  0.0017
13289TIP3    H161358   4.926   5.097   3.122  1.9588  1.5146 -1.6535
13289TIP3    H261359   4.830   5.195   3.186 -0.7782 -2.3946  0.5914
13290TIP3   OH261360   3.847   0.485  11.913 -0.6243 -0.0541  0.2074
13290TIP3    H161361   3.767   0.512  11.958 -0.2197 -0.5362  1.2525
13290TIP3    H261362   3.855   0.546  11.840 -3.6706 -1.9165 -1.9496
13291TIP3   OH261363   0.683   4.393  13.459 -0.1452  0.1933  0.0910
13291TIP3    H161364   0.744   4.325  13.433 -0.0189  0.9213 -1.6536
13291TIP3    H261365   0.596   4.353  13.453 -0.0169 -0.0588 -0.0500
13292TIP3   OH261366   6.134   5.029  13.705  0.1242 -0.1827 -0.3566
13292TIP3    H161367   6.181   5.099  13.751  0.6857 -2.3058  2.5933
13292TIP3    H261368   6.043   5.041  13.730  0.1463 -0.1936 -0.2696
13293TIP3   OH261369   4.303   6.294   4.644 -0.6714 -0.2109 -0.3280
13293TIP3    H161370   4.258   6.378   4.637  2.4990  1.6323 -0.3620
13293TIP3    H261371   4.303   6.260   4.555  0.2419  1.0569 -0.8441
13294TIP3   OH261372   3.520   4.860  13.527 -0.1712  0.3532 -0.5256
13294TIP3    H161373   3.514   4.954  13.506 -0.3524  0.3836 -0.3479
13294TIP3    H261374   3.601   4.852  13.577  0.1662  0.3108 -1.0780
13295TIP3   OH261375   1.670   1.243  12.551 -0.8229 -0.3249  0.2453
13295TIP3    H161376   1.758   1.249  12.589 -1.4003 -0.2017  1.6491
13295TIP3    H261377   1.673   1.167  12.494 -0.4201 -1.7889  2.1066
13296TIP3   OH261378   0.757   5.900   0.369 -0.4462 -0.0593  0.5834
13296TIP3    H161379   0.773   5.942   0.453  2.3226  0.7442 -0.2248
13296TIP3    H261380   0.818   5.826   0.367 -1.9656 -1.3652  0.0891
13297TIP3   OH261381   0.019   5.973  16.725  0.3893  0.6490  0.4856
13297TIP3    H161382  -0.023   5.922  16.794  1.2153  0.6748  1.0264
13297TIP3    H261383   0.098   5.923  16.704 -0.7948 -0.3877 -1.8268
13298TIP3   OH261384   2.730   0.372  14.052 -0.4870  0.1703  0.0451
13298TIP3    H161385   2.781   0.452  14.065  0.0152  0.2597 -2.1316
13298TIP3    H261386   2.668   0.372  14.124  0.7514  1.5229  1.1799
13299TIP3   OH261387   0.425   4.001   3.735 -0.3275  0.7246  0.1054
13299TIP3    H161388   0.361   3.929   3.739 -0.4636  0.8276 -0.1687
13299TIP3    H261389   0.508   3.960   3.761 -0.4244  0.4926  0.0567
13300TIP3   OH261390   1.642   6.130  14.328  0.1251 -0.3239 -0.1694
13300TIP3    H161391   1.557   6.091  14.344  0.3770 -0.5755  0.5656
13300TIP3    H261392   1.624   6.224  14.322 -0.0522 -0.2561  1.1499
13301TIP3   OH261393   3.314   4.814   4.925  0.1549  0.1457  0.1299
13301TIP3    H161394   3.259   4.768   4.863  1.5139 -0.8282 -0.4054
13301TIP3    H261395   3.389   4.757   4.938 -0.3101  0.0733  3.1053
13302TIP3   OH261396   0.461   4.326   3.269 -0.0807 -0.6622 -0.3210
13302TIP3    H161397   0.451   4.349   3.177 -1.4504 -0.1599 -0.0682
13302TIP3    H261398   0.549   4.357   3.292  0.7953 -1.9588 -1.7700
13303TIP3   OH261399   2.234   4.206   2.588 -0.7341  0.4451  0.0559
13303TIP3    H161400   2.245   4.111   2.589  1.2081  0.5757  2.6554
13303TIP3    H261401   2.313   4.238   2.543 -1.0028  0.8686 -0.1197
13304TIP3   OH261402   5.751   5.245  14.856  0.1118  0.2599  0.2001
13304TIP3    H161403   5.663   5.247  14.818  0.1064 -2.7100 -0.1378
13304TIP3    H261404   5.795   5.173  14.811  2.7383  1.6152  0.4123
13305TIP3   OH261405   0.979   0.807   4.705  0.4967  0.7884  0.3804
13305TIP3    H161406   1.015   0.741   4.764  0.0338  0.1696 -0.0103
13305TIP3    H261407   0.928   0.865   4.761  0.0159  0.1759  0.5817
13306TIP3   OH261408   2.234   6.699   0.381 -0.7247  0.0389  0.1785
13306TIP3    H161409   2.203   6.656   0.302 -2.5078 -0.9245  1.3347
13306TIP3    H261410   2.245   6.790   0.356  2.0207 -0.7559 -2.0227
13307TIP3   OH261411   4.069   3.191  11.723  0.2644  0.0583  0.1725
13307TIP3    H161412   4.046   3.102  11.749  2.3764 -0.7578 -0.5196
13307TIP3    H261413   3.988   3.228  11.688 -0.4016 -1.9721 -0.5812
13308TIP3   OH261414   0.327   5.334  12.832  0.0777 -0.0870 -0.7190
13308TIP3    H161415   0.398   5.329  12.767  1.7579 -0.9230  1.0500
13308TIP3    H261416   0.354   5.403  12.892 -0.7226 -0.2540 -0.1479
13309TIP3   OH261417   3.453   0.167  13.619 -0.5826  0.1681  0.4166
13309TIP3    H161418   3.538   0.210  13.630 -0.7468 -0.1345  4.0120
13309TIP3    H261419   3.468   0.103  13.548  1.9614  0.6200  0.4287
13310TIP3   OH261420   0.862   3.596   2.896 -0.4981 -0.8113 -0.1587
13310TIP3    H161421   0.945   3.630   2.862  1.4809 -1.5621  3.4205
13310TIP3    H261422   0.805   3.673   2.898  1.2573  0.5756  0.3566
13311TIP3   OH261423   1.468   5.044  16.086  0.5700  0.0899 -0.6385
13311TIP3    H161424   1.458   5.082  15.999  0.1637  2.2557  0.2854
13311TIP3    H261425   1.563   5.043  16.100  0.5801  1.7902 -0.3181
13312TIP3   OH261426   1.075   4.125  12.254  0.4573 -0.0450 -0.9488
13312TIP3    H161427   1.124   4.072  12.191  2.2556  1.0034 -0.4975
13312TIP3    H261428   1.072   4.071  12.333  0.1693 -0.4348 -1.2193
13313TIP3   OH261429   2.660   6.063  14.222  0.1970  0.1480  0.3531
13313TIP3    H161430   2.633   6.128  14.286 -0.1108  1.0647 -0.6644
13313TIP3    H261431   2.600   5.990  14.235 -0.9351  0.9951  0.0336
13314TIP3   OH261432   5.721   1.396   3.025  0.3201  0.3251 -0.2878
13314TIP3    H161433   5.672   1.448   2.961  1.4733  0.2266 -1.2915
13314TIP3    H261434   5.656   1.336   3.062 -0.2658 -0.0346 -1.8261
13315TIP3   OH261435   0.791   2.092   5.949  0.5073 -0.0318 -0.4025
13315TIP3    H161436   0.773   2.174   5.903 -3.6570  0.7472  2.1145
13315TIP3    H261437   0.816   2.118   6.037 -0.4418 -1.4274  0.3179
13316TIP3   OH261438   1.217   2.292  14.618  0.6877  0.2299  0.2873
13316TIP3    H161439   1.165   2.229  14.568  0.1472  1.0595 -0.2218
13316TIP3    H261440   1.266   2.238  14.681 -1.7334 -0.5285  1.6649
13317TIP3   OH261441   2.529   4.326  15.118 -0.7857  0.2360 -0.5559
13317TIP3    H161442   2.564   4.412  15.096 -0.8115  0.7098  1.0748
13317TIP3    H261443   2.495   4.337  15.207 -1.2280 -1.3383 -0.5065
13318TIP3   OH261444   0.715   1.629   0.675 -0.0178 -0.4770  0.2616
13318TIP3    H161445   0.693   1.536   0.668  0.4954 -0.5068 -1.2751
13318TIP3    H261446   0.804   1.630   0.709  0.0031 -0.5502  0.2095
13319TIP3   OH261447   6.169   3.684   4.744 -0.2914  0.0947  0.1890
13319TIP3    H161448   6.107   3.733   4.691 -0.2222 -1.3286 -1.2876
13319TIP3    H261449   6.116   3.644   4.813 -0.9603 -0.7069 -0.7708
13320TIP3   OH261450   1.544   3.054  14.717  0.0128  0.1221 -0.5334
13320TIP3    H161451   1.573   3.114  14.786 -1.6220 -0.1307  0.4336
13320TIP3    H261452   1.483   3.106  14.665 -1.4949 -0.6778  0.3704
13321TIP3   OH261453   5.389   1.120   1.156 -0.2864 -0.0939  0.4634
13321TIP3    H161454   5.481   1.135   1.135 -0.3755  1.0100  0.7917
13321TIP3    H261455   5.346   1.203   1.138 -1.1618 -0.4832  0.6714
13322TIP3   OH261456   4.246   1.102  11.842 -0.0693  0.0248  0.6029
13322TIP3    H161457   4.297   1.041  11.895 -0.6935  1.1198  2.5587
13322TIP3    H261458   4.155   1.078  11.861 -0.3071  1.0705  0.8091
13323TIP3   OH261459   5.088   5.199  14.704  0.0541  0.0007 -0.7172
13323TIP3    H161460   5.168   5.149  14.685  1.1437  1.4480 -0.1316
13323TIP3    H261461   5.118   5.273  14.757 -1.7070  0.5323 -0.4038
13324TIP3   OH261462   4.061   2.327  16.208  0.3985  0.0544 -0.3129
13324TIP3    H161463   4.051   2.233  16.191 -0.6038  0.1457 -0.2894
13324TIP3    H261464   4.059   2.335  16.303  2.1701 -0.0558 -0.2333
13325TIP3   OH261465   2.362   5.358   0.216 -0.5723 -0.1925 -0.3272
13325TIP3    H161466   2.410   5.433   0.251 -2.4442  0.0472  2.0086
13325TIP3    H261467   2.286   5.397   0.171  1.1993 -0.5537 -4.0170
13326TIP3   OH261468   1.413   1.931   2.152 -0.6062 -0.5213  0.1088
13326TIP3    H161469   1.348   1.902   2.216 -0.0385  1.0080  1.4473
13326TIP3    H261470   1.387   1.888   2.070 -1.9914 -1.6736  1.1069
13327TIP3   OH261471   6.005   6.324  11.917 -0.3715 -0.5445  0.1733
13327TIP3    H161472   6.004   6.314  11.822  0.4699 -0.4128  0.1441
13327TIP3    H261473   6.038   6.240  11.950 -3.2623 -1.6580  0.5407
13328TIP3   OH261474   2.756   5.287  13.273 -0.1203  0.2910 -0.1006
13328TIP3    H161475   2.791   5.336  13.348  1.7302  0.3808 -0.9475
13328TIP3    H261476   2.783   5.197  13.289  1.5308  0.5315 -1.2782
13329TIP3   OH261477   6.776   0.653  11.129 -0.2547 -0.1202 -0.2540
13329TIP3    H161478   6.759   0.599  11.206 -3.7153  0.3384 -0.5625
13329TIP3    H261479   6.768   0.743  11.160  0.2390  0.1216 -0.7931
13330TIP3   OH261480   1.449   3.621  12.342  0.1659 -0.5912  1.0151
13330TIP3    H161481   1.435   3.592  12.432  0.5381  0.0486  1.2830
13330TIP3    H261482   1.529   3.674  12.346 -0.2406  0.0715  0.4459
13331TIP3   OH261483   0.756   3.566  10.414  0.3394 -0.3776  0.0362
13331TIP3    H161484   0.701   3.632  10.456 -0.4467  0.2870 -1.8999
13331TIP3    H261485   0.845   3.591  10.437  0.2533  2.8086 -2.3476
13332TIP3   OH261486   0.122   6.346  17.137 -0.6876  0.1471 -0.5693
13332TIP3    H161487   0.098   6.344  17.229 -1.5739  0.1806 -0.7914
13332TIP3    H261488   0.124   6.254  17.110  1.5726 -0.0017 -0.0352
13333TIP3   OH261489   4.969   3.489   5.320 -0.3147  0.2963  0.3549
13333TIP3    H161490   4.956   3.413   5.377 -1.0697 -0.0834 -0.3127
13333TIP3    H261491   4.997   3.558   5.380 -2.2577  0.2515  1.4166
13334TIP3   OH261492   3.014   3.660   3.068 -0.2541  0.2761 -0.3963
13334TIP3    H161493   3.084   3.713   3.029  2.7965 -1.6135  1.9653
13334TIP3    H261494   2.986   3.711   3.144 -0.0606  0.2116 -0.2799
13335TIP3   OH261495   6.368   6.298   4.627 -0.5628 -0.6232 -0.1942
13335TIP3    H161496   6.364   6.267   4.718 -0.8324  0.4260  0.1644
13335TIP3    H261497   6.284   6.273   4.589 -1.3894  0.9757  0.5360
13336TIP3   OH261498   3.452   5.217  11.137  0.2099 -0.5903 -0.2591
13336TIP3    H161499   3.516   5.247  11.201 -0.3682  0.6499 -0.2168
13336TIP3    H261500   3.427   5.296  11.089  0.4943 -1.4574 -1.9108
13337TIP3   OH261501   2.989   4.473   1.351 -0.4342  0.7654  0.2787
13337TIP3    H161502   3.055   4.531   1.388 -0.2087  3.1039 -3.2657
13337TIP3    H261503   2.933   4.531   1.299 -2.9191 -1.6865 -0.0005
13338TIP3   OH261504   0.584   2.779  13.461  0.5245  0.1151  0.0190
13338TIP3    H161505   0.570   2.723  13.385  0.5391  0.2762 -0.1046
13338TIP3    H261506   0.631   2.724  13.523 -1.8027 -0.8983  1.0161
13339TIP3   OH261507   3.551   2.474  12.787 -0.2734 -0.1830 -0.2035
13339TIP3    H161508   3.544   2.546  12.849  0.8049  0.8260 -1.2089
13339TIP3    H261509   3.638   2.482  12.749 -1.1803 -0.2189 -2.4630
13340TIP3   OH261510   6.539   2.938   3.950 -0.1170 -0.3021 -0.0926
13340TIP3    H161511   6.460   2.937   4.004  0.0660  0.7764  0.2228
13340TIP3    H261512   6.531   2.861   3.895 -1.8127  0.2225 -0.6521
13341TIP3   OH261513   0.834   5.320   4.545  0.6253 -0.3404 -0.5610
13341TIP3    H161514   0.840   5.232   4.510  0.7859 -1.1116  1.2747
13341TIP3    H261515   0.742   5.331   4.566  0.8004 -0.5771  0.3786
13342TIP3   OH261516   2.174   0.764   5.218 -0.2959  0.1838 -0.0198
13342TIP3    H161517   2.218   0.827   5.274 -0.7186 -0.0567  0.5889
13342TIP3    H261518   2.084   0.762   5.250  0.0656 -1.8690  0.9980
13343TIP3   OH261519   6.260   0.473   5.186 -0.2442 -0.2683  0.1899
13343TIP3    H161520   6.354   0.484   5.175 -0.2390  0.4039  0.8169
13343TIP3    H261521   6.245   0.379   5.176  0.2048 -0.1570 -1.9192
13344TIP3   OH261522   4.459   2.823  13.045 -0.4912  0.0291  0.2560
13344TIP3    H161523   4.512   2.835  12.966 -1.4898 -0.9556 -0.5879
13344TIP3    H261524   4.501   2.750  13.090 -1.2328 -0.8925 -0.5213
13345TIP3   OH261525   3.320   4.991  15.801  0.3957 -0.1631  0.6852
13345TIP3    H161526   3.333   4.931  15.728 -0.8276  0.3486  0.0145
13345TIP3    H261527   3.263   5.060  15.766  0.3300  0.4527  1.9344
13346TIP3   OH261528   2.277   2.604   1.839 -0.2188 -0.2240 -0.0868
13346TIP3    H161529   2.316   2.518   1.825  1.6952  0.4869  0.6108
13346TIP3    H261530   2.309   2.657   1.766 -0.8984  0.0715 -0.1802
13347TIP3   OH261531   2.758   0.095  14.279  0.2677  0.3619 -0.5374
13347TIP3    H161532   2.761   0.190  14.281  0.7728  0.3389  0.6012
13347TIP3    H261533   2.748   0.069  14.371 -0.5449 -0.6710 -0.8895
13348TIP3   OH261534   1.062   1.072  12.765 -0.3177  0.2657 -0.7779
13348TIP3    H161535   1.031   1.035  12.682 -1.6634 -1.3655  0.3800
13348TIP3    H261536   0.987   1.063  12.824  0.6406  1.2970  0.6538
13349TIP3   OH261537   0.464   4.869  11.529  0.0227 -0.2302 -0.2924
13349TIP3    H161538   0.444   4.837  11.617 -0.1893  0.3841 -0.1155
13349TIP3    H261539   0.383   4.911  11.500  0.1148 -0.3652 -0.7556
13350TIP3   OH261540   0.186   5.126  14.858  0.5354  0.0210 -0.4558
13350TIP3    H161541   0.218   5.096  14.944  1.2410  0.8990 -0.3961
13350TIP3    H261542   0.161   5.217  14.873  0.3741  0.0829 -1.1157
13351TIP3   OH261543   3.381   6.006  12.406 -0.2456 -0.0069 -0.0218
13351TIP3    H161544   3.374   6.003  12.501  0.3514  0.0953  0.0294
13351TIP3    H261545   3.294   5.979  12.374  0.1610 -2.1473  0.5308
13352TIP3   OH261546   5.210   5.335  14.430 -0.2734  0.4395  0.2599
13352TIP3    H161547   5.120   5.348  14.400 -0.6276 -0.0330  1.0876
13352TIP3    H261548   5.217   5.391  14.508 -0.1998 -0.3795  0.8455
13353TIP3   OH261549   0.873   6.539  17.135  0.1525 -0.6371  0.3566
13353TIP3    H161550   0.847   6.451  17.110 -0.3261 -0.7667  1.2628
13353TIP3    H261551   0.790   6.584  17.155  0.4254 -0.1567  0.4319
13354TIP3   OH261552   1.931   5.970  16.282  0.2840  0.5539  0.0703
13354TIP3    H161553   1.994   6.041  16.270 -0.3864  1.1506 -0.0010
13354TIP3    H261554   1.918   5.935  16.194 -1.3228  2.0548 -0.3459
13355TIP3   OH261555   2.570   4.081  14.977  0.6135  0.4728  0.4383
13355TIP3    H161556   2.560   4.170  15.011 -1.8710  0.7094 -0.6452
13355TIP3    H261557   2.576   4.093  14.882  0.2799 -0.5062  0.2826
13356TIP3   OH261558   2.541   5.255   4.263  0.1014  0.3793 -0.3475
13356TIP3    H161559   2.520   5.167   4.233  2.4094 -0.7097  0.9985
13356TIP3    H261560   2.467   5.280   4.319  0.1889 -1.3949  0.6046
13357TIP3   OH261561   1.194   0.828  16.639 -0.4935  0.2240 -0.0565
13357TIP3    H161562   1.267   0.774  16.668 -0.8132 -1.5742 -2.3568
13357TIP3    H261563   1.232   0.914  16.624  1.1783 -0.6685 -1.1623
13358TIP3   OH261564   2.143   3.989  11.435  0.0429 -0.4230  0.8824
13358TIP3    H161565   2.083   3.962  11.365 -0.0249  0.3438  0.6380
13358TIP3    H261566   2.200   4.054  11.393  1.0213 -1.1107  1.1225
13359TIP3   OH261567   1.795   3.703  15.292  0.2168  0.1032 -0.2890
13359TIP3    H161568   1.823   3.779  15.343  0.5309 -1.1773  1.5320
13359TIP3    H261569   1.875   3.653  15.279 -0.2802 -0.8055  0.0981
13360TIP3   OH261570   5.747   2.234   4.814 -0.1454 -0.3153 -0.3241
13360TIP3    H161571   5.683   2.298   4.846 -0.8745 -0.5444 -1.2441
13360TIP3    H261572   5.708   2.149   4.834  0.7014 -0.4853  0.6673
13361TIP3   OH261573   1.193   5.399  13.459  0.0356 -0.2878 -0.2740
13361TIP3    H161574   1.104   5.392  13.424 -0.4894  1.3079  0.6362
13361TIP3    H261575   1.189   5.356  13.545  0.5432 -1.4924 -0.8266
13362TIP3   OH261576   6.469   5.009  15.508 -0.0534 -0.2611  0.2031
13362TIP3    H161577   6.509   5.017  15.421  2.1828 -0.8646  1.1035
13362TIP3    H261578   6.376   4.998  15.490  0.4838 -1.7063 -2.1947
13363TIP3   OH261579   0.874   2.661  13.288  0.2124 -0.6743 -0.3816
13363TIP3    H161580   0.842   2.573  13.309  2.5452 -1.7271 -0.9359
13363TIP3    H261581   0.930   2.684  13.362 -0.1529  0.2390 -0.3820
13364TIP3   OH261582   6.513   1.615  11.336  0.4832 -1.0806 -0.0663
13364TIP3    H161583   6.486   1.693  11.288  0.2579 -0.2483  1.3697
13364TIP3    H261584   6.456   1.545  11.303 -1.6111  0.0579  0.9351
13365TIP3   OH261585   0.827   5.992  12.784 -0.1250  0.1158 -0.0433
13365TIP3    H161586   0.914   5.953  12.785  0.7796  1.7919 -3.0207
13365TIP3    H261587   0.791   5.971  12.698 -2.6389 -0.3444  1.0295
13366TIP3   OH261588   2.576   5.013   0.725  0.4642  0.1008 -0.0491
13366TIP3    H161589   2.658   5.028   0.678  0.4116 -0.9270 -0.4836
13366TIP3    H261590   2.511   4.998   0.657 -0.1024  0.8834  0.2916
13367TIP3   OH261591   1.233   3.957   1.821 -0.2407  0.3366 -0.4429
13367TIP3    H161592   1.250   4.050   1.805  0.6815  0.2275 -0.2027
13367TIP3    H261593   1.140   3.946   1.806 -0.3273  1.2696 -0.6433
13368TIP3   OH261594   0.915   0.882   2.067 -0.6863 -0.1040 -0.1859
13368TIP3    H161595   0.919   0.803   2.012  1.3949  0.5916 -1.1633
13368TIP3    H261596   0.958   0.857   2.148 -2.6689 -0.7723  0.7260
13369TIP3   OH261597   5.275   2.709   1.260  0.1129 -0.6446  0.4551
13369TIP3    H161598   5.337   2.699   1.188  0.6458  0.6021  0.7211
13369TIP3    H261599   5.204   2.649   1.239  0.1230 -0.0823 -1.2666
13370TIP3   OH261600   6.259   1.333   1.946 -0.6817  0.2632  0.5388
13370TIP3    H161601   6.186   1.327   2.008 -2.1823 -0.4413 -1.1808
13370TIP3    H261602   6.220   1.374   1.868  0.0770 -2.3238 -1.3264
13371TIP3   OH261603   1.212   6.613   2.378 -0.5344  0.4421  0.7768
13371TIP3    H161604   1.279   6.572   2.323 -1.1311  1.0197 -0.4322
13371TIP3    H261605   1.152   6.654   2.316 -1.9862  0.0018  1.8342
13372TIP3   OH261606   0.712   3.167   5.285  0.2444 -0.0561 -0.2961
13372TIP3    H161607   0.734   3.204   5.370 -1.4191 -0.0103  0.1488
13372TIP3    H261608   0.737   3.234   5.222  2.1144 -0.3580  0.0750
13373TIP3   OH261609   5.940   2.028  15.042 -0.4490  0.1944  0.7214
13373TIP3    H161610   5.978   2.012  15.129  0.7272  0.9697  0.3775
13373TIP3    H261611   5.994   2.097  15.005 -0.5941 -0.4943 -0.8437
13374TIP3   OH261612   4.824   5.599   4.638 -0.3408  0.0710 -0.2879
13374TIP3    H161613   4.821   5.518   4.587 -1.5836 -1.3192  1.8177
13374TIP3    H261614   4.914   5.631   4.627  0.0668 -1.3722 -1.4833
13375TIP3   OH261615   6.453   6.574   3.452 -0.1554 -0.5799  0.1390
13375TIP3    H161616   6.383   6.638   3.438 -0.4487 -0.3939  2.1231
13375TIP3    H261617   6.462   6.530   3.367 -1.0720  0.9517 -0.8151
13376TIP3   OH261618   0.953   6.352   4.124 -0.5576 -0.4833 -0.0740
13376TIP3    H161619   0.861   6.335   4.143 -0.4524 -1.4333 -0.3231
13376TIP3    H261620   0.983   6.406   4.197 -1.2023 -0.5531  0.2508
13377TIP3   OH261621   0.316   6.376  14.739 -0.2243 -0.5278  0.3848
13377TIP3    H161622   0.361   6.294  14.722 -1.9473 -1.7138  1.2807
13377TIP3    H261623   0.242   6.377  14.678 -0.5443  0.0952  0.7662
13378TIP3   OH261624   4.400   3.803  10.727  0.3922 -0.7761  0.3509
13378TIP3    H161625   4.344   3.745  10.674  1.6163  0.1223 -2.0789
13378TIP3    H261626   4.479   3.752  10.743  0.9317 -0.2859 -0.6579
13379TIP3   OH261627   6.101   0.242   4.964  0.8574 -0.4082 -0.6156
13379TIP3    H161628   6.127   0.251   5.056 -1.9709  2.0971  0.1103
13379TIP3    H261629   6.028   0.181   4.966 -1.0242  1.6930 -0.6311
13380TIP3   OH261630   2.273   3.041   0.130 -0.0343 -0.1248  0.4797
13380TIP3    H161631   2.366   3.017   0.131  0.2905  1.0132 -0.3701
13380TIP3    H261632   2.263   3.103   0.202 -0.5584 -1.6017  1.7353
13381TIP3   OH261633   5.054   3.646   5.526  0.5404  0.2296  0.3936
13381TIP3    H161634   5.016   3.681   5.607  0.1240 -0.2915  0.4288
13381TIP3    H261635   5.102   3.720   5.488  0.2167  0.6529  0.7975
13382TIP3   OH261636   0.358   4.193  16.704 -0.3760  0.1034  0.3149
13382TIP3    H161637   0.379   4.246  16.781 -1.0905 -1.0406  1.3288
13382TIP3    H261638   0.436   4.199  16.649 -0.1789  1.6328  0.7082
13383TIP3   OH261639   3.276   3.385   5.321  0.2335 -0.0025 -0.0251
13383TIP3    H161640   3.309   3.436   5.395  1.2909 -0.1516 -0.3763
13383TIP3    H261641   3.314   3.298   5.332  1.7126  0.3925 -1.5647
13384TIP3   OH261642   3.910   0.489  13.301 -0.2856 -0.2853  0.6197
13384TIP3    H161643   3.832   0.491  13.246 -1.0358  0.3907  1.6862
13384TIP3    H261644   3.959   0.567  13.275 -1.4200  0.9289  1.9801
13385TIP3   OH261645   5.954   6.523  11.678 -0.1255  0.3132  0.2706
13385TIP3    H161646   5.860   6.513  11.661 -0.2929 -2.0634  2.1080
13385TIP3    H261647   5.996   6.471  11.609 -0.2182  0.2740  0.2439
13386TIP3   OH261648   4.182   3.157   3.616  0.3674 -0.2652 -0.3095
13386TIP3    H161649   4.255   3.153   3.679  0.3985  3.3023  0.0507
13386TIP3    H261650   4.104   3.171   3.671 -0.0322 -0.0794 -0.9205
13387TIP3   OH261651   1.156   5.200  17.132 -0.4783  0.2750 -0.4111
13387TIP3    H161652   1.227   5.228  17.188  0.3273 -2.6967  0.2503
13387TIP3    H261653   1.116   5.281  17.101  1.2593  2.0342  1.6102
13388TIP3   OH261654   2.204   2.020   0.835 -0.5649  0.0792 -0.2043
13388TIP3    H161655   2.294   2.005   0.805 -1.2999 -2.4383 -1.4197
13388TIP3    H261656   2.212   2.026   0.930  0.8477 -0.6771 -0.2441
13389TIP3   OH261657   0.428   2.195   5.640  0.3353  0.1586 -0.0687
13389TIP3    H161658   0.373   2.246   5.580 -2.5554  0.0351  2.2366
13389TIP3    H261659   0.415   2.104   5.613 -0.3898  0.1525  0.2807
13390TIP3   OH261660   4.963   1.296  13.938 -0.6638  0.0303 -0.3309
13390TIP3    H161661   4.970   1.201  13.926 -0.0613 -0.3535  2.4234
13390TIP3    H261662   4.886   1.308  13.992 -0.5223  1.0853 -0.3393
13391TIP3   OH261663   0.631   0.089  12.359 -0.3287 -0.0704  0.1895
13391TIP3    H161664   0.573   0.081  12.435 -1.8959  0.0302 -0.9310
13391TIP3    H261665   0.599   0.022  12.298 -0.8330  1.5396 -1.4023
13392TIP3   OH261666   2.554   2.248  15.367 -0.3806  0.1160  0.1977
13392TIP3    H161667   2.556   2.324  15.309  4.0200  0.0616 -0.1065
13392TIP3    H261668   2.560   2.173  15.308 -0.7046 -0.2217  0.5944
13393TIP3   OH261669   3.791   4.444   0.896 -0.0411  0.0202  0.2193
13393TIP3    H161670   3.716   4.497   0.871  0.0507  0.6016  1.1360
13393TIP3    H261671   3.847   4.444   0.818 -1.1428 -0.7481 -0.6180
13394TIP3   OH261672   5.552   6.556   0.391  0.0921 -0.6331  0.4007
13394TIP3    H161673   5.519   6.570   0.480 -0.3389  0.0446  0.1462
13394TIP3    H261674   5.503   6.618   0.337  2.6343  1.3196  0.1589
13395TIP3   OH261675   0.141   5.188  11.315  0.0898  0.1275  0.5940
13395TIP3    H161676   0.074   5.244  11.354 -0.5958  0.9245 -1.6315
13395TIP3    H261677   0.094   5.131  11.255  1.4106  1.3408 -1.7457
13396TIP3   OH261678   3.496   6.609  14.941 -0.2766  0.3131 -0.1869
13396TIP3    H161679   3.468   6.555  14.867 -0.4824  0.2840 -0.0886
13396TIP3    H261680   3.431   6.592  15.009 -0.0473  0.2813  0.0280
13397TIP3   OH261681   4.191   5.836  14.842 -0.1131 -0.1956 -0.3009
13397TIP3    H161682   4.252   5.865  14.774 -1.3366  0.1858 -1.2757
13397TIP3    H261683   4.220   5.881  14.921 -0.5093  1.8896 -1.2581
13398TIP3   OH261684   4.828   1.546   5.010 -0.9365 -0.2904 -0.0741
13398TIP3    H161685   4.822   1.452   5.028  1.4835 -0.5000  0.0584
13398TIP3    H261686   4.880   1.551   4.929  0.6388  0.9326  0.9517
13399TIP3   OH261687   2.157   2.048   0.107 -0.7015  0.1398 -0.0212
13399TIP3    H161688   2.235   1.993   0.105  0.0527  1.1937 -0.5006
13399TIP3    H261689   2.099   2.009   0.042  0.8545  1.3063 -2.2515
13400TIP3   OH261690   1.325   2.582   4.538  0.0446 -0.5975  0.5010
13400TIP3    H161691   1.279   2.521   4.481  1.4361 -1.4535  0.2481
13400TIP3    H261692   1.299   2.669   4.507 -0.9793 -1.0504  0.0519
13401TIP3   OH261693   5.854   4.616  14.916  0.1136  0.6382 -0.1484
13401TIP3    H161694   5.934   4.667  14.903  1.2924 -1.0855  0.0078
13401TIP3    H261695   5.828   4.590  14.827  0.1614  0.5595 -0.1391
13402TIP3   OH261696   6.712   4.820  13.136  0.1468 -0.2459  0.3958
13402TIP3    H161697   6.767   4.896  13.151 -0.0901  0.1329 -0.6157
13402TIP3    H261698   6.722   4.800  13.043  2.5522 -3.3143  1.1445
13403TIP3   OH261699   4.501   1.473   5.587 -0.0868  0.2177  0.6062
13403TIP3    H161700   4.551   1.543   5.547  0.9518 -0.9020 -0.1145
13403TIP3    H261701   4.481   1.505   5.675  1.0395  1.0952  0.5599
13404TIP3   OH261702   4.868   6.396   1.039  0.1136  0.3411 -0.3129
13404TIP3    H161703   4.795   6.420   1.094  0.4738  0.7155  0.0088
13404TIP3    H261704   4.832   6.334   0.976 -0.7491  1.4173 -0.9085
13405TIP3   OH261705   0.380   2.379   0.958 -0.4713  0.8821 -0.2827
13405TIP3    H161706   0.328   2.426   1.022  0.1018  1.6118 -0.3349
13405TIP3    H261707   0.326   2.378   0.879 -0.9217  0.5262  0.0289
13406TIP3   OH261708   1.272   3.468  15.207 -0.0346  0.1350 -0.1562
13406TIP3    H161709   1.246   3.379  15.229 -0.0577  0.4930  1.3842
13406TIP3    H261710   1.196   3.522  15.229  0.1443  0.5930 -0.6328
13407TIP3   OH261711   2.139   4.624  13.989 -0.1202 -0.3143  0.0002
13407TIP3    H161712   2.164   4.551  14.046 -1.5429 -1.0037 -0.2277
13407TIP3    H261713   2.169   4.597  13.902  2.2114  0.8154  0.3804
13408TIP3   OH261714   5.023   6.362  14.137 -0.2021 -0.3522 -0.0122
13408TIP3    H161715   5.034   6.299  14.209  0.1164  0.5088  0.7001
13408TIP3    H261716   4.934   6.396  14.149 -1.5000 -2.6919 -2.0660
13409TIP3   OH261717   2.526   6.713   3.099  0.2577  0.6727 -0.2745
13409TIP3    H161718   2.511   6.803   3.127 -1.4013 -0.2502  2.0844
13409TIP3    H261719   2.572   6.672   3.172 -1.5795 -1.0914 -0.0136
13410TIP3   OH261720   5.388   5.626  14.911 -0.5198  0.0294 -0.4156
13410TIP3    H161721   5.392   5.629  14.815 -0.5042 -0.1470 -0.4211
13410TIP3    H261722   5.338   5.704  14.935 -2.2684 -0.9650 -0.6735
13411TIP3   OH261723   6.622   6.807   0.600  0.2695 -0.0885 -0.0116
13411TIP3    H161724   6.618   6.721   0.559  0.2528  0.2418 -0.7052
13411TIP3    H261725   6.533   6.842   0.592  0.2317 -0.0700  0.4225
13412TIP3   OH261726   0.906   5.617   1.566 -0.0751  0.2688  0.4421
13412TIP3    H161727   0.916   5.712   1.553 -2.3484  0.4933 -0.1351
13412TIP3    H261728   0.873   5.609   1.656  1.1780 -0.0974  0.8898
13413TIP3   OH261729   0.160   3.960  10.415 -0.1611 -0.2565 -0.3341
13413TIP3    H161730   0.198   3.926  10.496 -1.5210  1.3400  1.0343
13413TIP3    H261731   0.199   4.046  10.405 -0.9796  0.0782 -0.6769
13414TIP3   OH261732   4.953   1.903  11.560  0.1390  0.0885  0.2604
13414TIP3    H161733   4.951   1.892  11.655  1.2909 -0.1324  0.2710
13414TIP3    H261734   4.936   1.816  11.526 -1.7362  0.4239  0.2218
13415TIP3   OH261735   0.717   5.694  11.867 -0.5594  0.2812 -0.1523
13415TIP3    H161736   0.722   5.788  11.848 -0.3563  1.1221  3.3726
13415TIP3    H261737   0.808   5.664  11.862 -0.1434  1.0617  1.7167
13416TIP3   OH261738   4.392   1.691  11.431 -0.2003 -0.7398 -1.0595
13416TIP3    H161739   4.456   1.729  11.491 -2.1736 -0.4691  0.9994
13416TIP3    H261740   4.360   1.766  11.380  0.1177 -0.6522 -1.1321
13417TIP3   OH261741   4.962   0.403   4.544  0.1818  0.1431  0.4656
13417TIP3    H161742   4.986   0.435   4.631 -0.0969  0.8585  0.2836
13417TIP3    H261743   4.878   0.444   4.525  0.6841  0.7389 -0.5333
13418TIP3   OH261744   1.861   3.898  15.469  0.1744  0.2142 -0.1424
13418TIP3    H161745   1.951   3.868  15.459  0.0712 -0.4551  0.7851
13418TIP3    H261746   1.836   3.868  15.557 -0.5686  1.3882  0.0657
13419TIP3   OH261747   5.937   5.902  13.200 -0.0313  0.1989 -0.3427
13419TIP3    H161748   5.910   5.967  13.265 -2.0649  0.1837 -1.1055
13419TIP3    H261749   5.927   5.947  13.116 -0.2075 -0.7024 -0.8073
13420TIP3   OH261750   2.740   6.276   5.097  0.5588 -0.1720  0.1647
13420TIP3    H161751   2.727   6.343   5.164 -0.6167  0.6501 -0.8467
13420TIP3    H261752   2.835   6.273   5.084  0.7314  0.2880  1.2036
13421TIP3   OH261753   1.553   1.203  13.421  0.0399  0.1968  0.2027
13421TIP3    H161754   1.563   1.133  13.357 -1.3953  0.8938 -0.8289
13421TIP3    H261755   1.505   1.271  13.375 -0.7947  0.8454  1.9352
13422TIP3   OH261756   4.635   5.895   3.685  0.0824  0.0982  0.2463
13422TIP3    H161757   4.607   5.986   3.686 -0.8861 -0.0033 -3.5832
13422TIP3    H261758   4.730   5.899   3.693 -0.0722  1.2006  2.3052
13423TIP3   OH261759   4.765   2.678   2.089 -0.3576  0.1053 -0.3493
13423TIP3    H161760   4.850   2.711   2.060  0.1317 -0.6218  0.2418
13423TIP3    H261761   4.724   2.752   2.133  0.3324  0.2037  0.1279
13424TIP3   OH261762   2.891   4.643   5.141  0.4915  0.1360 -0.0433
13424TIP3    H161763   2.908   4.737   5.131 -2.5832  0.8751  0.5496
13424TIP3    H261764   2.952   4.615   5.209  1.7610  1.5812 -0.5316
13425TIP3   OH261765   4.264   1.515   2.958 -0.6770 -0.3009 -0.4496
13425TIP3    H161766   4.230   1.486   3.042 -1.0563  1.3954  0.0191
13425TIP3    H261767   4.186   1.536   2.907 -0.4066  0.5816 -0.5093
13426TIP3   OH261768   5.527   5.555   5.943  0.2064  0.4712  0.2253
13426TIP3    H161769   5.494   5.644   5.930 -3.0944 -0.5031  0.9898
13426TIP3    H261770   5.506   5.535   6.034  1.2360 -0.9694  0.1685
13427TIP3   OH261771   5.270   5.054  15.697  0.2018  0.5194  0.3136
13427TIP3    H161772   5.272   4.961  15.719  0.5617  0.6092  0.6811
13427TIP3    H261773   5.271   5.098  15.782  0.4788  0.8610  0.1307
13428TIP3   OH261774   4.932   4.061  11.363  0.3356 -0.0052 -0.4248
13428TIP3    H161775   4.919   4.002  11.438  1.7117  1.0786  0.7346
13428TIP3    H261776   5.012   4.029  11.321  0.2317  0.1071 -0.7062
13429TIP3   OH261777   3.174   0.409   2.041 -0.0954  0.1733  0.0428
13429TIP3    H161778   3.184   0.477   1.974 -0.4115 -0.3414 -0.5322
13429TIP3    H261779   3.251   0.353   2.028 -0.6846 -0.5040 -0.5663
13430TIP3   OH261780   0.641   6.011   2.117  0.1230 -1.1947  0.6123
13430TIP3    H161781   0.578   6.083   2.110  1.4155 -0.0863  0.0840
13430TIP3    H261782   0.674   6.017   2.206  1.6796  0.1571 -0.0099
13431TIP3   OH261783   3.270   4.626  14.594  0.0050  0.0610  0.5475
13431TIP3    H161784   3.300   4.654  14.681  0.3345 -0.2774  0.5407
13431TIP3    H261785   3.319   4.681  14.533  0.0094  0.0772  0.5655
13432TIP3   OH261786   3.083   4.151  10.876  0.2419  0.1805 -0.4995
13432TIP3    H161787   3.139   4.215  10.832 -1.1321  1.0229 -1.0922
13432TIP3    H261788   2.994   4.176  10.851 -0.5006 -0.3308  1.4327
13433TIP3   OH261789   2.235   2.900  11.540  0.2287 -0.7878 -0.1622
13433TIP3    H161790   2.288   2.835  11.586  0.5722 -1.8308 -1.9274
13433TIP3    H261791   2.295   2.973  11.524  0.0544 -0.3328  1.1511
13434TIP3   OH261792   5.380   2.196  15.015  0.0786 -0.1274  0.1182
13434TIP3    H161793   5.448   2.263  15.018 -0.0146 -0.0599  1.0889
13434TIP3    H261794   5.407   2.130  15.079  0.5134 -1.3764 -1.3022
13435TIP3   OH261795   5.020   4.578   4.657  0.6339  0.5497  0.1844
13435TIP3    H161796   4.988   4.500   4.701 -1.7201  0.6630 -1.1550
13435TIP3    H261797   4.975   4.651   4.700 -0.4175  0.7836 -1.2364
13436TIP3   OH261798   6.286   1.039  16.643 -0.0399 -0.2358  0.2869
13436TIP3    H161799   6.192   1.041  16.624 -0.5237  1.5947  2.4191
13436TIP3    H261800   6.323   0.982  16.576 -2.4010  0.5032 -1.8037
13437TIP3   OH261801   5.523   3.016  10.527  0.4032 -0.1796  0.0975
13437TIP3    H161802   5.617   3.021  10.510  0.2340  1.7583 -0.6134
13437TIP3    H261803   5.499   2.926  10.507  2.1669 -0.8294  0.7261
13438TIP3   OH261804   6.528   4.305  16.795  0.0222 -0.8399 -0.0810
13438TIP3    H161805   6.548   4.212  16.779  2.1717 -0.3186 -0.7203
13438TIP3    H261806   6.467   4.303  16.869  1.1296 -2.7220  0.8766
13439TIP3   OH261807   5.479   3.342  11.255 -0.1941  0.0328  0.0663
13439TIP3    H161808   5.478   3.333  11.159  0.4671 -0.6091  0.1069
13439TIP3    H261809   5.471   3.436  11.271  0.5511  0.2255 -0.6441
13440TIP3   OH261810   0.780   1.521   3.851  0.2304 -0.1143 -0.0321
13440TIP3    H161811   0.767   1.587   3.783  0.3128 -0.2096 -0.1404
13440TIP3    H261812   0.785   1.571   3.932  0.7458  0.0525 -0.1617
13441TIP3   OH261813   4.397   6.238  14.981  0.2555 -0.0098  0.7478
13441TIP3    H161814   4.434   6.194  14.904 -1.7022 -1.4688  0.5606
13441TIP3    H261815   4.345   6.170  15.025 -1.5193  1.6804  1.4148
13442TIP3   OH261816   6.736   6.623  13.151  0.0424  0.6115 -0.2734
13442TIP3    H161817   6.748   6.663  13.237  1.1755  3.4122 -1.6068
13442TIP3    H261818   6.794   6.546  13.152  0.7765  1.1439  1.1357
13443TIP3   OH261819   0.285   3.066   5.645 -0.7870  0.3805  0.1929
13443TIP3    H161820   0.270   2.991   5.587  1.1841 -0.9416  1.3117
13443TIP3    H261821   0.375   3.093   5.628 -0.8078  1.2089  1.2737
13444TIP3   OH261822   1.692   2.785   3.435  0.3346  0.1534  0.2168
13444TIP3    H161823   1.705   2.846   3.507  0.8511 -0.9815  1.1008
13444TIP3    H261824   1.601   2.757   3.443  0.2681  0.3451  0.1549
13445TIP3   OH261825   6.156   1.014  14.220  0.1453 -0.7375  0.1652
13445TIP3    H161826   6.110   0.952  14.163 -1.2339  0.4100 -0.0129
13445TIP3    H261827   6.088   1.072  14.253  1.0332 -0.8193  2.3198
13446TIP3   OH261828   1.038   0.088  16.115  0.2394  0.6504 -0.5634
13446TIP3    H161829   1.096   0.096  16.040 -0.8457 -2.4758 -1.9002
13446TIP3    H261830   1.094   0.098  16.191  1.6906  2.0963 -1.7651
13447TIP3   OH261831   2.774   2.604  15.198 -0.0784  0.3089 -0.4627
13447TIP3    H161832   2.791   2.652  15.117 -1.5560 -1.3903 -1.8592
13447TIP3    H261833   2.838   2.533  15.198 -1.5468 -1.0730 -1.3940
13448TIP3   OH261834   0.543   0.799  15.162  0.2630  0.1273 -1.0331
13448TIP3    H161835   0.459   0.844  15.164 -0.4245 -1.0530 -2.2011
13448TIP3    H261836   0.593   0.839  15.234 -0.7746  1.8027 -1.1895
13449TIP3   OH261837   4.426   3.949  10.944  0.0180 -0.5577 -0.2084
13449TIP3    H161838   4.502   3.973  10.891 -0.2043  0.8629  0.0669
13449TIP3    H261839   4.376   3.888  10.890  0.0986  0.4027 -1.3981
13450TIP3   OH261840   2.004   5.403  13.923  0.5487  0.2849 -0.1527
13450TIP3    H161841   2.038   5.483  13.963  0.7932  0.1809 -0.1484
13450TIP3    H261842   1.965   5.354  13.995 -2.5882  1.8628 -0.6115
13451TIP3   OH261843   1.413   5.812  15.913  0.1031  0.1999 -0.3830
13451TIP3    H161844   1.374   5.763  15.986  0.7897  1.3956  0.8302
13451TIP3    H261845   1.386   5.903  15.929 -0.8708  0.3245 -2.4030
13452TIP3   OH261846   3.369   2.360   3.934  0.1455  0.4618 -0.1698
13452TIP3    H161847   3.335   2.443   3.902 -1.9800 -0.2836 -0.0172
13452TIP3    H261848   3.372   2.303   3.857  1.1556  0.5193 -0.1891
13453TIP3   OH261849   1.774   0.638  15.979 -0.5279 -0.0514  0.0106
13453TIP3    H161850   1.687   0.639  15.939 -0.3941  2.7264 -0.4450
13453TIP3    H261851   1.788   0.547  16.005 -2.8529 -0.9062 -1.4176
13454TIP3   OH261852   3.938   6.680   2.789 -0.0553  0.3558 -0.4290
13454TIP3    H161853   3.994   6.715   2.857  1.8793 -0.9261 -1.2866
13454TIP3    H261854   3.947   6.742   2.716 -0.4613  0.5958 -0.2831
13455TIP3   OH261855   2.015   2.565  16.292  0.3611  0.0733  0.3921
13455TIP3    H161856   2.076   2.625  16.335  0.7616  0.5600 -0.8164
13455TIP3    H261857   2.044   2.562  16.201 -0.2065 -1.2627  0.2283
13456TIP3   OH261858   4.698   4.354  15.579  0.0413  0.4995  0.3268
13456TIP3    H161859   4.644   4.298  15.523  0.6490 -0.2166  0.4380
13456TIP3    H261860   4.635   4.406  15.629 -0.5169  1.2720 -1.1153
13457TIP3   OH261861   5.317   6.428   1.225 -0.3486  0.2472 -0.2350
13457TIP3    H161862   5.224   6.405   1.221 -0.0211 -1.2143 -0.1401
13457TIP3    H261863   5.362   6.349   1.193  0.9369  0.0991  1.7929
13458TIP3   OH261864   0.412   5.781  17.033 -0.1925 -0.2539  0.3225
13458TIP3    H161865   0.372   5.864  17.060  1.7935 -0.0225  2.9497
13458TIP3    H261866   0.388   5.719  17.102  1.5489 -0.8389  0.4456
13459TIP3   OH261867   4.194   4.824  15.348  0.2426  0.1272 -0.1759
13459TIP3    H161868   4.147   4.893  15.395  0.7821 -0.5130  1.3475
13459TIP3    H261869   4.272   4.807  15.401 -0.0200 -1.8710 -0.3482
13460TIP3   OH261870   4.605   1.467  15.674  0.1736  0.1114 -0.3934
13460TIP3    H161871   4.603   1.501  15.584  0.0448 -1.5929 -1.0638
13460TIP3    H261872   4.529   1.409  15.679  0.9244 -0.8237  0.4074
13461TIP3   OH261873   6.218   3.927   0.031 -0.1826 -0.3375 -0.3137
13461TIP3    H161874   6.146   3.986   0.053  0.9944  0.8516  0.5771
13461TIP3    H261875   6.234   3.941  -0.062  1.3664  2.3832  0.2443
13462TIP3   OH261876   4.417   5.301  11.303  0.0306  0.0229  0.0013
13462TIP3    H161877   4.425   5.389  11.267  0.1820  0.7750  1.7660
13462TIP3    H261878   4.376   5.250  11.234 -0.9437  1.7095 -0.7083
13463TIP3   OH261879   0.591   0.501   3.224  0.0045  0.6838  0.3229
13463TIP3    H161880   0.523   0.490   3.291  0.3838  2.2611  0.9969
13463TIP3    H261881   0.631   0.586   3.243  0.2233  1.1209 -1.8216
13464TIP3   OH261882   1.626   0.951   0.776 -0.3104 -0.0240  0.7180
13464TIP3    H161883   1.647   0.870   0.823 -0.0896 -0.9710 -0.9335
13464TIP3    H261884   1.597   0.921   0.690  1.2077  1.7063 -0.4511
13465TIP3   OH261885   0.555   4.834   2.033 -0.2100  0.4018  0.4881
13465TIP3    H161886   0.588   4.761   1.980 -0.1353  2.1861 -2.1197
13465TIP3    H261887   0.631   4.862   2.083  0.3693  0.0893 -0.1918
13466TIP3   OH261888   0.556   4.347   2.540 -0.1594  0.2652 -0.7842
13466TIP3    H161889   0.641   4.373   2.503  0.3606  1.8105  1.3236
13466TIP3    H261890   0.524   4.425   2.585 -0.5790 -1.4820  2.2301
13467TIP3   OH261891   1.693   1.620  12.415  0.0811  0.0405  0.2359
13467TIP3    H161892   1.726   1.545  12.366  0.2650 -0.1749  0.6912
13467TIP3    H261893   1.729   1.610  12.503  0.4236  0.8735  0.1918
13468TIP3   OH261894   4.666   2.505   1.443  0.2684 -0.4464 -0.3472
13468TIP3    H161895   4.654   2.478   1.351 -1.4804  0.2166 -0.3512
13468TIP3    H261896   4.646   2.426   1.493 -0.5531 -0.3430 -0.4962
13469TIP3   OH261897   3.026   5.668   0.708 -0.1971 -0.0864  0.4803
13469TIP3    H161898   2.933   5.668   0.730 -0.8805 -0.0488 -2.1660
13469TIP3    H261899   3.029   5.659   0.613  2.5105  0.1288  0.4662
13470TIP3   OH261900   6.576   1.517  17.049 -0.2250 -0.3584 -0.4085
13470TIP3    H161901   6.541   1.567  16.976 -1.2342  1.2857  1.1200
13470TIP3    H261902   6.642   1.460  17.010 -1.0183  0.1565 -2.6335
13471TIP3   OH261903   3.119   4.791  15.854  0.5603 -0.2751 -0.0082
13471TIP3    H161904   3.109   4.784  15.949 -0.1419 -0.2002 -0.0721
13471TIP3    H261905   3.173   4.869  15.841 -0.6114  0.6067  0.2764
13472TIP3   OH261906   2.871   0.652  15.962 -0.0099  0.1177 -0.0576
13472TIP3    H161907   2.922   0.734  15.966 -0.1072  0.2441 -1.1779
13472TIP3    H261908   2.932   0.588  15.926 -0.5290  0.1902 -1.0961
13473TIP3   OH261909   2.191   1.132   2.612  0.1554 -0.1690 -0.7929
13473TIP3    H161910   2.137   1.068   2.660  0.5805 -0.8125 -1.1618
13473TIP3    H261911   2.128   1.185   2.564 -0.1478 -0.9708 -1.2883
13474TIP3   OH261912   2.383   1.552   2.996 -0.6155  0.0217  0.3627
13474TIP3    H161913   2.351   1.521   3.080 -2.0900  0.9028  0.1430
13474TIP3    H261914   2.368   1.646   2.997  0.9116  0.2991 -0.2324
13475TIP3   OH261915   4.841   1.424  14.547  0.0620  0.0029  0.3982
13475TIP3    H161916   4.814   1.460  14.632  0.8495  2.4549 -0.3120
13475TIP3    H261917   4.841   1.499  14.488  1.7881 -1.1755 -1.2222
13476TIP3   OH261918   3.004   5.695   2.615 -0.6224  0.1544 -0.3061
13476TIP3    H161919   3.069   5.705   2.685  1.2043 -1.3624 -1.6581
13476TIP3    H261920   2.922   5.725   2.653  0.1022 -1.4005  2.7840
13477TIP3   OH261921   0.085   2.493   2.609  0.4537  0.3302 -0.2925
13477TIP3    H161922   0.083   2.551   2.533 -1.2564 -0.6682 -1.0552
13477TIP3    H261923   0.029   2.537   2.674 -0.2828 -0.1112 -0.6188
13478TIP3   OH261924   6.184   5.264  16.330  0.3130  0.1139 -0.1748
13478TIP3    H161925   6.122   5.325  16.369  0.8488 -0.0789  1.0419
13478TIP3    H261926   6.183   5.189  16.390 -0.7491 -1.3381 -1.9187
13479TIP3   OH261927   5.500   3.185  13.114 -0.4626 -0.4291 -0.1772
13479TIP3    H161928   5.563   3.149  13.177 -0.7184 -0.5279  0.0235
13479TIP3    H261929   5.422   3.204  13.166 -1.4638 -2.5076 -0.8150
13480TIP3   OH261930   4.401   5.273  16.168  0.0191 -0.2290  0.3438
13480TIP3    H161931   4.373   5.201  16.112 -2.2037  1.9674 -1.5877
13480TIP3    H261932   4.485   5.244  16.204 -0.2484 -3.2790 -1.1913
13481TIP3   OH261933   0.997   0.696   1.086 -0.2889 -0.3794 -0.6661
13481TIP3    H161934   1.013   0.772   1.030  0.6796 -0.0020  0.0923
13481TIP3    H261935   0.953   0.633   1.029 -0.0395  0.2941 -1.6294
13482TIP3   OH261936   2.083   3.653   1.128 -0.0697 -0.5045 -0.4193
13482TIP3    H161937   2.024   3.634   1.201  0.0327  1.6280  0.3081
13482TIP3    H261938   2.148   3.713   1.165  0.8271 -0.5058 -1.9204
13483TIP3   OH261939   3.965   1.715   5.690  0.2333 -0.0348 -0.1896
13483TIP3    H161940   3.912   1.639   5.711  0.0038  0.5074  1.2541
13483TIP3    H261941   4.053   1.680   5.677  0.2432 -0.4894  1.0127
13484TIP3   OH261942   5.761   3.107   3.239 -0.2522  0.2707  0.4274
13484TIP3    H161943   5.709   3.083   3.316 -0.9104  0.2497 -0.0218
13484TIP3    H261944   5.704   3.165   3.189  1.3066  3.0128  1.5594
13485TIP3   OH261945   3.721   3.042   5.093 -0.3088  0.2138 -0.9298
13485TIP3    H161946   3.678   2.961   5.066  1.7427 -0.7052 -1.5698
13485TIP3    H261947   3.660   3.082   5.156 -0.9277 -2.2900  0.1584
13486TIP3   OH261948   1.070   3.558  15.564  0.0015 -0.2426 -0.4283
13486TIP3    H161949   1.108   3.641  15.536  1.4381 -0.3723  0.9185
13486TIP3    H261950   1.006   3.536  15.497  0.9148  1.0297 -1.7792
13487TIP3   OH261951   5.781   2.968  13.103  0.6144 -0.5341  0.5678
13487TIP3    H161952   5.868   2.979  13.066  0.7155  1.0314  1.1903
13487TIP3    H261953   5.785   3.010  13.189 -1.2308  1.3158 -0.1554
13488TIP3   OH261954   2.566   3.328   0.748 -0.0030  0.2507  0.1694
13488TIP3    H161955   2.645   3.280   0.772 -1.0738 -1.2281  0.9253
13488TIP3    H261956   2.594   3.388   0.679  1.2567 -2.0238 -1.4409
13489TIP3   OH261957   4.909   4.567  16.598  0.1703 -0.3802  0.0893
13489TIP3    H161958   4.889   4.658  16.619 -0.5053 -0.6356  0.6036
13489TIP3    H261959   4.988   4.547  16.649 -0.7849 -0.6408  1.5331
13490TIP3   OH261960   5.061   4.980  14.491  0.4729 -0.6549  0.2706
13490TIP3    H161961   5.087   4.974  14.583 -0.6000 -3.0430  0.4743
13490TIP3    H261962   5.077   5.072  14.468  0.2749  0.1411  2.9768
13491TIP3   OH261963   0.418   0.452  12.030 -0.3316 -0.3704  0.4430
13491TIP3    H161964   0.411   0.531  12.083  3.0691 -0.9832  2.0841
13491TIP3    H261965   0.404   0.380  12.092 -0.1104 -1.0589 -0.2845
13492TIP3   OH261966   1.574   4.218  14.267 -0.4606  0.1092 -0.6637
13492TIP3    H161967   1.514   4.159  14.221  0.6012 -1.0161 -0.6614
13492TIP3    H261968   1.609   4.275  14.198  0.5629 -1.0867 -1.1932
13493TIP3   OH261969   6.822   5.951   1.177  0.1675 -0.3045  0.2979
13493TIP3    H161970   6.860   5.912   1.098 -1.1045 -0.1360 -0.4339
13493TIP3    H261971   6.897   5.977   1.230  1.1909  2.2398 -2.1230
13494TIP3   OH261972   3.606   0.744   3.065  0.1307  0.4268  0.1684
13494TIP3    H161973   3.654   0.754   2.983 -1.5632  1.9539 -0.7111
13494TIP3    H261974   3.540   0.677   3.045  0.1975  0.2452  0.5474
13495TIP3   OH261975   2.283   6.135  13.890  0.1655  0.0813  0.0076
13495TIP3    H161976   2.215   6.183  13.842  2.5544  0.5974 -3.2515
13495TIP3    H261977   2.259   6.144  13.982 -1.7974  4.0064 -0.6728
13496TIP3   OH261978   3.541   2.827  14.090 -0.0437 -0.3896  0.0537
13496TIP3    H161979   3.494   2.909  14.080 -1.0021 -1.0899 -1.5852
13496TIP3    H261980   3.633   2.851  14.082 -0.3589  0.3891 -1.8569
13497TIP3   OH261981   1.849   0.464  11.298  0.0412 -0.2568  0.3467
13497TIP3    H161982   1.825   0.537  11.356 -0.0348 -0.3481  0.4321
13497TIP3    H261983   1.803   0.389  11.335 -1.2532 -0.0250 -0.7209
13498TIP3   OH261984   3.657   6.683   2.863 -0.1284 -0.1089  0.2857
13498TIP3    H161985   3.615   6.712   2.783 -1.4020  2.1508  1.6533
13498TIP3    H261986   3.750   6.674   2.840 -0.1437  2.3171 -1.0238
13499TIP3   OH261987   5.749   5.057   0.635 -0.0106  0.3270  0.4272
13499TIP3    H161988   5.752   5.064   0.539 -0.3065  1.6188  0.4921
13499TIP3    H261989   5.840   5.050   0.661  0.4124  3.5811  0.2328
13500TIP3   OH261990   6.359   0.601  13.725 -0.3273  0.1692 -0.0099
13500TIP3    H161991   6.345   0.542  13.799 -1.6242 -0.0421 -0.4039
13500TIP3    H261992   6.309   0.680  13.747 -1.0783 -0.0640 -0.8506
13501TIP3   OH261993   1.267   2.604  16.793 -0.1132  0.2406 -1.2060
13501TIP3    H161994   1.231   2.574  16.876 -0.3877 -0.1870 -1.4748
13501TIP3    H261995   1.257   2.529  16.734  1.9785 -0.2045 -1.0758
13502TIP3   OH261996   1.105   3.929  12.993 -0.2778 -0.5169  1.3296
13502TIP3    H161997   1.051   3.981  12.933 -1.3737 -0.7591  2.0755
13502TIP3    H261998   1.089   3.839  12.966  0.4428 -0.5539  1.0059
13503TIP3   OH261999   4.395   5.317   3.355 -0.5220 -0.2449 -0.4782
13503TIP3    H162000   4.429   5.384   3.296 -0.6446 -0.1446 -0.4347
13503TIP3    H262001   4.432   5.339   3.440 -2.9934  1.6077  0.2280
13504TIP3   OH262002   0.761   5.740   2.877 -0.0662  0.3717 -0.8533
13504TIP3    H162003   0.831   5.691   2.922 -0.3285  1.1256  0.4284
13504TIP3    H262004   0.784   5.832   2.891 -1.8545  0.6557  0.5298
13505TIP3   OH262005   2.095   6.341  11.687 -0.0352 -0.7557 -0.1367
13505TIP3    H162006   2.160   6.409  11.667  1.6874 -2.0152  0.9478
13505TIP3    H262007   2.023   6.389  11.728  0.3536  0.6315 -0.9913
13506TIP3   OH262008   1.756   0.486   3.463 -0.1983 -0.0107  0.2826
13506TIP3    H162009   1.766   0.464   3.370 -0.4119 -1.0230  0.4923
13506TIP3    H262010   1.724   0.576   3.462 -0.7251 -0.1877 -0.6416
13507TIP3   OH262011   1.382   0.886   2.823  0.4340  0.0983 -0.1841
13507TIP3    H162012   1.342   0.939   2.891 -0.8764 -1.8042  0.6258
13507TIP3    H262013   1.475   0.882   2.846  0.2682  0.7363  0.6206
13508TIP3   OH262014   2.591   3.681  15.070 -0.0777 -0.0341  0.3155
13508TIP3    H162015   2.645   3.749  15.029 -0.7435  1.7778  2.2125
13508TIP3    H262016   2.653   3.615  15.100  0.5829 -0.3780 -1.7205
13509TIP3   OH262017   2.268   1.187   2.893  0.4901 -0.0943  0.1252
13509TIP3    H162018   2.224   1.127   2.832  1.6816 -0.3515 -0.5103
13509TIP3    H262019   2.210   1.263   2.897  0.7186  0.2607 -1.9535
13510TIP3   OH262020   0.052   4.749  15.501 -0.0391  0.2302 -0.5336
13510TIP3    H162021   0.009   4.752  15.416  1.7133 -1.7400 -1.5775
13510TIP3    H262022   0.137   4.708  15.484  0.7935  0.7125  2.0048
13511TIP3   OH262023   1.648   2.393  14.344  0.1119 -0.1310 -0.1294
13511TIP3    H162024   1.682   2.475  14.380  0.1462 -0.0980 -0.2356
13511TIP3    H262025   1.661   2.401  14.249  1.3566 -0.8262 -0.0298
13512TIP3   OH262026   4.397   5.557   2.765  0.2787 -0.3778  0.0878
13512TIP3    H162027   4.310   5.564   2.806 -0.4136 -0.4623 -1.2947
13512TIP3    H262028   4.415   5.645   2.732 -0.7165 -0.9958 -2.3231
13513TIP3   OH262029   1.147   6.499  15.631  0.3390  0.5493  0.1805
13513TIP3    H162030   1.064   6.501  15.677 -0.7140 -0.2347 -1.5900
13513TIP3    H262031   1.206   6.450  15.689 -1.3096 -1.5992  0.1366
13514TIP3   OH262032   5.266   2.169  16.035  0.2355  0.1303 -0.4434
13514TIP3    H162033   5.193   2.152  16.095 -0.2939 -1.0559 -1.3677
13514TIP3    H262034   5.278   2.086  15.988  1.2996  0.7203 -1.2632
13515TIP3   OH262035   1.030   0.207  13.432  0.0016 -0.1353  0.2585
13515TIP3    H162036   1.018   0.156  13.351  2.7210 -1.0177  0.3147
13515TIP3    H262037   0.988   0.153  13.499  0.8804 -1.2404 -0.0385
13516TIP3   OH262038   1.046   1.823  16.871 -0.6763  0.7364  0.1788
13516TIP3    H162039   0.986   1.893  16.846  0.9861  2.1860  0.0499
13516TIP3    H262040   1.090   1.856  16.950 -1.6804 -1.2915  1.6827
13517TIP3   OH262041   4.503   2.827   5.981  0.2192 -0.4878 -0.4805
13517TIP3    H162042   4.592   2.807   6.010 -0.1015  0.1904  1.1131
13517TIP3    H262043   4.509   2.914   5.941  0.3309 -0.6103 -0.7331
13518TIP3   OH262044   0.589   0.957   3.926  0.4248  0.0479 -0.1504
13518TIP3    H162045   0.530   0.986   3.996  2.4650  0.4264  1.5042
13518TIP3    H262046   0.668   0.928   3.972  1.0893 -1.6146 -2.2078
13519TIP3   OH262047   3.366   2.709   3.102 -0.3698  0.3158  0.3201
13519TIP3    H162048   3.320   2.775   3.154 -0.9202 -0.5397  0.9500
13519TIP3    H262049   3.301   2.640   3.087  0.9659 -1.5011  2.2865
13520TIP3   OH262050   5.706   5.591   3.840  0.0447 -0.6454 -0.4430
13520TIP3    H162051   5.672   5.501   3.849  0.2497 -0.7375 -0.5785
13520TIP3    H262052   5.629   5.644   3.820 -0.2092 -0.6588  0.4310
13521TIP3   OH262053   1.227   3.549  13.482  0.0701  0.2772 -0.0787
13521TIP3    H162054   1.204   3.551  13.574  4.3885 -0.1838  1.2678
13521TIP3    H262055   1.247   3.640  13.460  2.4017 -0.0106  0.5984
13522TIP3   OH262056   0.866   3.820  14.230 -0.1796  0.7635 -0.3810
13522TIP3    H162057   0.815   3.763  14.173  1.5962 -0.6468 -0.6529
13522TIP3    H262058   0.952   3.826  14.188  1.4774 -0.9323  2.3975
13523TIP3   OH262059   0.269   4.062   0.437 -0.4156 -0.9395 -0.3725
13523TIP3    H162060   0.207   3.989   0.446 -0.4816 -0.7754  0.4984
13523TIP3    H262061   0.242   4.106   0.357 -1.7518 -0.5603  0.2713
13524TIP3   OH262062   6.332   1.901  12.710 -0.4239  0.0257  0.0312
13524TIP3    H162063   6.394   1.959  12.664 -2.1209  0.7990 -1.4539
13524TIP3    H262064   6.309   1.835  12.644 -2.0719  0.4920  0.0992
13525TIP3   OH262065   2.620   2.720  12.989 -0.2627  0.0752  0.0666
13525TIP3    H162066   2.653   2.710  13.079  0.6610  0.6644 -0.1868
13525TIP3    H262067   2.606   2.630  12.959 -1.1355 -0.1082  0.9929
13526TIP3   OH262068   1.428   0.931  15.280  0.0656 -0.7339  0.5635
13526TIP3    H162069   1.346   0.955  15.323  0.5474 -1.4977  1.9502
13526TIP3    H262070   1.411   0.948  15.187 -1.2236  0.3237  0.9557
13527TIP3   OH262071   6.342   0.793  16.531 -0.2066  0.3582  0.1065
13527TIP3    H162072   6.339   0.795  16.435  0.3601 -0.3572  0.0684
13527TIP3    H262073   6.422   0.745  16.552 -0.2189  0.6868  0.9437
13528TIP3   OH262074   2.585   3.550   0.547  0.3342  0.3724 -0.2243
13528TIP3    H162075   2.574   3.472   0.493 -0.9222  0.6168 -0.3367
13528TIP3    H262076   2.526   3.615   0.509  0.4602  0.9951  0.6060
13529TIP3   OH262077   1.076   5.401   4.173 -0.2885  0.1026 -0.0762
13529TIP3    H162078   1.106   5.410   4.263 -2.0598 -0.7785  0.6499
13529TIP3    H262079   1.032   5.484   4.154  0.3561  0.4096 -0.2560
13530TIP3   OH262080   4.936   5.714  13.889 -0.2315 -0.0271  0.7357
13530TIP3    H162081   4.906   5.775  13.821 -0.9100  1.2935  2.1448
13530TIP3    H262082   4.892   5.632  13.867 -1.5539  0.7425  0.3470
13531TIP3   OH262083   5.590   4.695  12.164 -0.3226  0.2315 -0.0931
13531TIP3    H162084   5.535   4.652  12.098  1.0901 -1.5924 -0.1415
13531TIP3    H262085   5.556   4.663  12.248 -1.5040  1.8164  0.0878
13532TIP3   OH262086   0.222   0.817   2.521 -0.0773 -0.4282 -0.5231
13532TIP3    H162087   0.296   0.855   2.569 -0.6887 -0.9470  0.9012
13532TIP3    H262088   0.159   0.794   2.589 -0.6872 -1.8732 -1.5265
13533TIP3   OH262089   2.732   6.790  14.960 -0.2047 -0.3507 -0.5658
13533TIP3    H162090   2.742   6.797  14.865  1.4489 -2.9865 -0.7095
13533TIP3    H262091   2.759   6.875  14.993 -1.8455  0.9891 -2.4581
13534TIP3   OH262092   3.702   3.319   5.861  0.0655 -0.0069  0.3882
13534TIP3    H162093   3.791   3.324   5.826  0.4277 -1.8161  0.9720
13534TIP3    H262094   3.684   3.408   5.892  1.4634  0.5151 -0.1818
13535TIP3   OH262095   1.518   4.030   5.198 -0.2031 -0.3884  0.3192
13535TIP3    H162096   1.429   4.037   5.163 -0.7825 -1.1676  1.5971
13535TIP3    H262097   1.538   3.937   5.193  0.1247 -0.3563  1.0292
13536TIP3   OH262098   4.603   1.470   1.838  0.9887  0.2011  0.4416
13536TIP3    H162099   4.680   1.463   1.895  0.1139 -3.0744  1.4472
13536TIP3    H262100   4.620   1.407   1.767 -0.4990 -0.1429  0.3631
13537TIP3   OH262101   2.185   2.108   4.223 -0.1496 -0.0315 -0.9550
13537TIP3    H162102   2.191   2.027   4.171 -0.7180 -0.7189  0.0360
13537TIP3    H262103   2.095   2.136   4.213 -0.7734 -1.1283  1.0204
13538TIP3   OH262104   6.316   3.526   5.988 -0.1796  0.0792  0.5466
13538TIP3    H162105   6.350   3.438   5.976 -0.1049  0.0876  0.6951
13538TIP3    H262106   6.362   3.560   6.065  1.2495  0.9778 -0.6744
13539TIP3   OH262107   1.684   2.865   0.749  0.1722 -0.0351 -0.3956
13539TIP3    H162108   1.762   2.902   0.790  0.8356 -0.6208 -1.0929
13539TIP3    H262109   1.695   2.883   0.656 -0.2948 -0.5250 -0.5518
13540TIP3   OH262110   5.959   4.018  14.616  0.8208 -0.2370  0.0618
13540TIP3    H162111   5.970   4.085  14.683  0.0741 -1.0326  1.0156
13540TIP3    H262112   5.920   3.944  14.663  1.5169 -1.2955 -0.9802
13541TIP3   OH262113   5.946   2.628  13.437 -0.2652 -0.2005 -0.2273
13541TIP3    H162114   5.915   2.613  13.348  0.3742 -2.4674 -0.1289
13541TIP3    H262115   6.041   2.630  13.430 -0.2305  0.3401  0.3051
13542TIP3   OH262116   5.935   2.673   5.566 -0.1350 -0.3692 -0.1506
13542TIP3    H162117   5.894   2.587   5.562 -1.4149  0.2314 -0.2300
13542TIP3    H262118   6.020   2.660   5.523 -1.0244 -1.1911 -1.7853
13543TIP3   OH262119   4.581   2.917  14.688 -0.0002 -0.0078  0.2806
13543TIP3    H162120   4.500   2.965  14.701  0.1055  0.5072 -0.8648
13543TIP3    H262121   4.569   2.872  14.604  0.5304 -0.7016  0.5641
13544TIP3   OH262122   6.319   6.685  16.306 -0.0399 -0.3415 -0.3032
13544TIP3    H162123   6.393   6.626  16.319  1.0950  0.7612 -1.3507
13544TIP3    H262124   6.250   6.630  16.271  0.4795 -1.3092  0.1716
13545TIP3   OH262125   3.714   0.435   1.386  0.0266  0.3257  0.1122
13545TIP3    H162126   3.743   0.352   1.423  2.0619  1.4629  1.2386
13545TIP3    H262127   3.794   0.488   1.379 -1.1067  1.9980 -1.1120
13546TIP3   OH262128   6.192   6.042  14.386  0.1374  0.1099 -0.6767
13546TIP3    H162129   6.159   6.004  14.467 -1.2333  3.6656  0.6165
13546TIP3    H262130   6.115   6.084  14.346  0.9535 -0.7687 -3.4328
13547TIP3   OH262131   2.328   4.031   0.503  0.0289 -0.7332  0.1306
13547TIP3    H162132   2.387   4.038   0.428  0.2864  0.0151  0.3986
13547TIP3    H262133   2.386   4.030   0.579 -0.3071  0.2886  0.4097
13548TIP3   OH262134   6.242   4.871  14.378 -0.0064 -0.7846  0.1251
13548TIP3    H162135   6.156   4.887  14.340 -0.1787  0.9010  1.1419
13548TIP3    H262136   6.267   4.954  14.419  0.4903 -2.2179  2.9895
13549TIP3   OH262137   2.523   6.698  14.705 -0.0211 -0.6713 -0.0596
13549TIP3    H162138   2.513   6.755  14.781  1.2882  1.6746 -1.5167
13549TIP3    H262139   2.439   6.707  14.658  0.2226  0.2232 -0.3475
13550TIP3   OH262140   4.014   2.424  11.360 -0.4810 -0.3953  0.0413
13550TIP3    H162141   4.051   2.346  11.402 -1.0202 -0.6347  0.0849
13550TIP3    H262142   3.982   2.393  11.276  1.2290  0.2240 -0.8974
13551TIP3   OH262143   0.122   6.189  14.689  0.2606  0.5435  0.1233
13551TIP3    H162144   0.185   6.121  14.663 -2.3240 -1.3615 -1.6786
13551TIP3    H262145   0.099   6.167  14.779 -0.7438 -1.2430 -0.5195
13552TIP3   OH262146   0.609   6.056   0.012 -0.7907 -0.0865  0.0151
13552TIP3    H162147   0.575   6.018   0.093  0.5583  0.5334  0.9137
13552TIP3    H262148   0.650   6.139   0.040 -0.2948  0.1329 -1.2969
13553TIP3   OH262149   2.080   0.798   4.693  0.0359 -0.6123 -0.0289
13553TIP3    H162150   2.131   0.826   4.768  0.5294 -3.4344  0.7824
13553TIP3    H262151   2.134   0.820   4.617  0.6338  0.0122  0.5662
13554TIP3   OH262152   6.259   6.644   5.601  0.0824  0.1458 -0.3844
13554TIP3    H162153   6.214   6.602   5.527  0.7772 -0.5018 -0.4563
13554TIP3    H262154   6.191   6.656   5.667  0.1077 -2.5196  0.2410
13555TIP3   OH262155   2.867   6.068   3.371  0.1432 -0.8914 -0.0286
13555TIP3    H162156   2.838   5.984   3.335  3.1088 -1.9228 -0.2675
13555TIP3    H262157   2.905   6.114   3.296 -2.3186  1.2244 -0.1338
13556TIP3   OH262158   2.750   0.759   4.551  0.0896  0.1790  0.2811
13556TIP3    H162159   2.682   0.693   4.564  0.7327 -0.0684  3.1114
13556TIP3    H262160   2.709   0.841   4.581  0.5934  0.2607  0.7689
13557TIP3   OH262161   0.465   1.602  12.840 -0.1638  0.1323  0.2388
13557TIP3    H162162   0.495   1.513  12.861  0.7980  0.6400  1.0611
13557TIP3    H262163   0.397   1.620  12.905 -0.8109 -0.2216 -0.3205
13558TIP3   OH262164   3.218   3.587   6.684  0.0335 -0.1851  0.4483
13558TIP3    H162165   3.290   3.600   6.623 -0.5802 -0.3243 -0.3196
13558TIP3    H262166   3.164   3.666   6.675 -0.2311 -0.3501  0.5696
13559TIP3   OH262167   1.016   2.862  15.239  0.3392 -0.1684 -0.8320
13559TIP3    H162168   0.999   2.865  15.333 -0.5269 -1.1178 -0.9322
13559TIP3    H262169   1.096   2.913  15.227  0.3633  0.1150  0.3919
13560TIP3   OH262170   0.522   3.795   1.741 -0.0378 -0.2995  0.5929
13560TIP3    H162171   0.440   3.835   1.769  0.1481 -0.8996  2.0549
13560TIP3    H262172   0.498   3.742   1.666 -0.8898 -0.0724  0.6939
13561TIP3   OH262173   4.061   4.353   4.863  0.5690 -0.4344  0.0177
13561TIP3    H162174   4.063   4.259   4.847  1.9579 -0.4165 -0.0325
13561TIP3    H262175   4.148   4.384   4.836  0.1975  0.8322  0.1974
13562TIP3   OH262176   5.708   0.799   4.779 -0.0101  0.4459 -0.7897
13562TIP3    H162177   5.645   0.869   4.797 -2.1872 -1.1470 -1.8497
13562TIP3    H262178   5.764   0.835   4.710 -1.0716  1.1905 -1.2971
13563TIP3   OH262179   4.993   1.587  12.558 -0.5329 -0.1705  0.0772
13563TIP3    H162180   5.041   1.504  12.555 -0.5802 -0.1855 -0.4062
13563TIP3    H262181   4.973   1.600  12.651 -0.1476 -0.4809  0.2048
13564TIP3   OH262182   3.835   4.379   5.522 -0.8617 -0.0176  0.1265
13564TIP3    H162183   3.881   4.300   5.552 -2.1786 -0.1013  2.2005
13564TIP3    H262184   3.754   4.345   5.483 -0.8124  0.2451 -0.1968
13565TIP3   OH262185   4.641   2.470  12.248  0.6352  0.1012 -0.0079
13565TIP3    H162186   4.547   2.458  12.262  0.4953  2.0955  1.2093
13565TIP3    H262187   4.670   2.389  12.207 -1.4796 -0.8537  0.2521
13566TIP3   OH262188   1.947   6.133   0.153 -0.6972 -0.2581  0.0906
13566TIP3    H162189   1.996   6.162   0.230 -1.8344 -1.8662  1.4776
13566TIP3    H262190   1.895   6.210   0.128 -0.1289  0.3578  0.7472
13567TIP3   OH262191   5.651   6.824   5.988 -0.2748  0.7480  0.6664
13567TIP3    H162192   5.681   6.799   6.075 -1.0332 -1.1285  0.4258
13567TIP3    H262193   5.680   6.753   5.931  0.1199  1.8971 -0.6275
13568TIP3   OH262194   6.449   1.948  12.161  0.9152  0.4928  0.7507
13568TIP3    H162195   6.497   1.936  12.079  0.5619  0.2053  0.5831
13568TIP3    H262196   6.395   1.869  12.169 -0.7025  1.4899  0.1502
13569TIP3   OH262197   5.058   1.589  12.102  0.0578 -0.1283 -0.0424
13569TIP3    H162198   5.065   1.557  12.192  0.2140  2.1916  0.8269
13569TIP3    H262199   4.970   1.564  12.075 -0.3150 -0.0847  1.0802
13570TIP3   OH262200   3.143   6.280  12.945  0.2022 -0.7230  0.7937
13570TIP3    H162201   3.090   6.343  12.995 -0.1613 -0.9148  0.6448
13570TIP3    H262202   3.184   6.333  12.877  0.9665 -0.3903  1.4892
13571TIP3   OH262203   0.949   0.515   3.232  0.5665  0.5514  0.1642
13571TIP3    H162204   0.903   0.465   3.299 -0.1704  2.3873  1.0900
13571TIP3    H262205   1.034   0.472   3.223  0.1175 -0.5846  1.2166
13572TIP3   OH262206   5.609   5.504  16.727 -0.4706  0.0418  0.3294
13572TIP3    H162207   5.605   5.559  16.806 -0.4097 -0.4998  0.7135
13572TIP3    H262208   5.521   5.511  16.689 -0.5718  0.1122  0.5734
13573TIP3   OH262209   0.283   3.684  12.289  0.2197 -0.0793 -0.3979
13573TIP3    H162210   0.189   3.691  12.304  0.3872  1.3108  0.1940
13573TIP3    H262211   0.312   3.775  12.277  1.7075 -0.3365  0.8825
13574TIP3   OH262212   4.606   0.462   2.766 -0.0014  0.0541  1.0707
13574TIP3    H162213   4.694   0.498   2.772 -0.1263  0.6900 -0.4955
13574TIP3    H262214   4.551   0.525   2.813  0.2658  0.0885  1.3377
13575TIP3   OH262215   4.893   3.336  16.112  0.9593  0.0150  0.2007
13575TIP3    H162216   4.867   3.355  16.202  1.1670  2.6922 -0.2089
13575TIP3    H262217   4.988   3.322  16.117  0.6772 -2.0094  0.6379
13576TIP3   OH262218   6.295   1.624  16.716 -0.0382 -0.3279  0.0268
13576TIP3    H162219   6.305   1.662  16.629  1.4250 -1.4439 -0.3539
13576TIP3    H262220   6.372   1.654  16.764  0.3045 -1.4503  0.2151
13577TIP3   OH262221   0.031   1.069   0.754  0.2104 -0.2196 -0.2915
13577TIP3    H162222   0.082   1.073   0.673 -1.7011 -0.0188 -1.5564
13577TIP3    H262223   0.071   0.999   0.805  1.7210 -0.0616 -1.2105
13578TIP3   OH262224   6.369   4.559   1.814  0.3452  0.6145  0.2019
13578TIP3    H162225   6.430   4.627   1.842  0.3218  0.6381  0.1962
13578TIP3    H262226   6.305   4.605   1.759 -0.0580  0.7124  0.7438
13579TIP3   OH262227   6.826   4.519   5.734 -0.2749 -0.3081 -0.4683
13579TIP3    H162228   6.866   4.485   5.814 -0.2425 -0.4202 -0.5317
13579TIP3    H262229   6.847   4.612   5.735  0.2834 -0.4262 -0.6747
13580TIP3   OH262230   6.835   3.741  12.428  0.7035 -0.1729 -0.1165
13580TIP3    H162231   6.851   3.792  12.507  0.5724  0.0431 -0.2284
13580TIP3    H262232   6.803   3.657  12.460  0.3157  0.0351  0.0528
13581TIP3   OH262233   2.246   0.908   2.237  0.6998 -0.1129 -0.1760
13581TIP3    H162234   2.276   0.907   2.328 -3.2857  1.2998  1.3498
13581TIP3    H262235   2.241   1.001   2.214 -2.3202 -0.1826 -0.2096
13582TIP3   OH262236   2.312   2.336   4.949 -0.2008 -0.0735 -0.0954
13582TIP3    H162237   2.269   2.399   5.007 -0.4484 -2.1732  2.1863
13582TIP3    H262238   2.404   2.362   4.950 -0.5054  1.1076 -0.4425
13583TIP3   OH262239   6.280   3.594   5.722 -0.1114  0.2308  0.1882
13583TIP3    H162240   6.288   3.581   5.817 -0.1380 -0.6480  0.0778
13583TIP3    H262241   6.331   3.522   5.684 -1.4322 -0.3952 -0.4634
13584TIP3   OH262242   0.225   3.006  12.383 -0.8355 -0.1267 -0.1196
13584TIP3    H162243   0.180   2.979  12.303 -2.6005 -0.5528  0.9697
13584TIP3    H262244   0.157   3.004  12.451  0.5136  0.6325  1.3154
13585TIP3   OH262245   2.643   2.958  14.821  0.3229  0.4188  0.2592
13585TIP3    H162246   2.714   2.917  14.773  0.5833  1.4950 -0.3206
13585TIP3    H262247   2.634   2.907  14.901 -1.4850 -2.7267 -1.7548
13586TIP3   OH262248   4.838   0.923   5.459 -0.0371  0.0546  0.2608
13586TIP3    H162249   4.868   1.001   5.411 -0.2524 -0.1866 -0.2743
13586TIP3    H262250   4.844   0.852   5.396  0.0859 -0.3559  0.7268
13587TIP3   OH262251   1.613   5.085  13.224 -0.0182  0.0069 -0.4461
13587TIP3    H162252   1.551   5.097  13.152 -1.7563  1.9211  1.2506
13587TIP3    H262253   1.584   5.146  13.292  1.8097 -1.3673  1.7293
13588TIP3   OH262254   6.356   5.347   2.152 -0.3174 -0.5600 -0.1847
13588TIP3    H162255   6.327   5.257   2.140 -0.4978 -0.3385 -1.6255
13588TIP3    H262256   6.372   5.355   2.246  0.3954 -2.2953 -0.1177
13589TIP3   OH262257   3.484   0.366  11.781 -0.1786 -1.0650 -0.2391
13589TIP3    H162258   3.549   0.436  11.777  0.4656 -1.6916 -0.9971
13589TIP3    H262259   3.413   0.403  11.833  0.7228 -0.3284  0.5009
13590TIP3   OH262260   1.415   1.440  15.658 -0.5556  0.0313 -0.3407
13590TIP3    H162261   1.498   1.451  15.611 -0.5766 -3.3698 -1.4858
13590TIP3    H262262   1.419   1.351  15.692 -2.8100  0.5958  1.6325
13591TIP3   OH262263   0.624   3.505   4.497 -0.5369 -0.5136  0.0914
13591TIP3    H162264   0.644   3.478   4.408  0.1125  0.1078  0.0383
13591TIP3    H262265   0.708   3.531   4.534 -1.1629  2.0776 -0.0907
13592TIP3   OH262266   4.171   2.895   0.162  0.3910  0.2390  0.2083
13592TIP3    H162267   4.196   2.863   0.249  2.1427 -1.5414 -0.8888
13592TIP3    H262268   4.180   2.990   0.169  0.8534  0.1118  1.8607
13593TIP3   OH262269   6.339   0.221   1.831  0.1982 -0.2332  0.3770
13593TIP3    H162270   6.358   0.219   1.737 -0.8880 -1.9001  0.1272
13593TIP3    H262271   6.414   0.177   1.871  0.1121 -0.6155  0.1355
13594TIP3   OH262272   0.212   6.302  15.428 -0.1335  0.1484 -0.1879
13594TIP3    H162273   0.301   6.281  15.402  0.3544  1.6991  0.0953
13594TIP3    H262274   0.164   6.219  15.422  1.3049 -0.6953 -0.3778
13595TIP3   OH262275   1.080   4.713   4.027  0.0404  0.0314  0.3322
13595TIP3    H162276   1.028   4.778   3.978  0.7565 -1.0725 -2.0160
13595TIP3    H262277   1.023   4.636   4.031  0.3749 -0.2106  0.3929
13596TIP3   OH262278   6.809   5.722  10.737  0.8369 -0.0199 -0.5406
13596TIP3    H162279   6.828   5.704  10.829 -1.2270  0.1947 -0.0034
13596TIP3    H262280   6.771   5.640  10.704 -0.3754  0.5296 -0.5724
13597TIP3   OH262281   5.130   4.921  15.992 -0.0410  0.6927  0.0284
13597TIP3    H162282   5.156   4.987  16.056 -0.1502 -0.1930  1.0096
13597TIP3    H262283   5.079   4.857  16.042  1.3829 -0.9651 -0.5588
13598TIP3   OH262284   5.617   1.268  15.884  0.4052 -0.4611 -0.1933
13598TIP3    H162285   5.640   1.276  15.977  1.0347 -1.3757 -0.2609
13598TIP3    H262286   5.700   1.279  15.838  0.3554 -1.5325 -0.5626
13599TIP3   OH262287   5.084   6.306  15.938 -0.8509 -0.2486 -0.5347
13599TIP3    H162288   5.176   6.301  15.963 -1.1521 -1.8427  0.4317
13599TIP3    H262289   5.037   6.321  16.020 -1.4212  1.5979 -1.1468
13600TIP3   OH262290   5.186   4.393   4.238  0.0929 -0.1432 -0.7340
13600TIP3    H162291   5.140   4.419   4.318  1.6886  0.8480 -0.0888
13600TIP3    H262292   5.277   4.421   4.252  1.4712 -3.9029 -1.0377
13601TIP3   OH262293   2.791   4.709   5.528 -0.0152 -0.2157 -0.0267
13601TIP3    H162294   2.831   4.769   5.465  0.1296 -0.5145 -0.2146
13601TIP3    H262295   2.743   4.767   5.587 -0.6926  0.0333 -0.7902
13602TIP3   OH262296   5.196   1.002   1.572 -0.1726  0.3063 -0.8550
13602TIP3    H162297   5.110   1.030   1.603  0.0114 -0.8203  0.8371
13602TIP3    H262298   5.257   1.063   1.612  0.0482 -1.0243  0.9932
13603TIP3   OH262299   0.869   4.550  16.005 -0.1251 -0.2168  0.4615
13603TIP3    H162300   0.925   4.473  15.996 -0.0712 -0.4403  2.3134
13603TIP3    H262301   0.813   4.530  16.080 -2.5720  0.0851 -1.1440
13604TIP3   OH262302   3.850   0.022   3.801  0.1165 -0.3825  0.3095
13604TIP3    H162303   3.873   0.036   3.709  1.8534  0.3299  0.8077
13604TIP3    H262304   3.846   0.110   3.838 -0.8013 -0.6568  0.8708
13605TIP3   OH262305   6.092   4.654  14.519 -0.0989 -0.0626  0.2696
13605TIP3    H162306   6.083   4.697  14.604  0.4782 -0.2983  0.4555
13605TIP3    H262307   6.157   4.707  14.472  0.1216 -0.3431  0.2521
13606TIP3   OH262308   4.792   2.444   6.511 -0.3914  0.4648  0.0728
13606TIP3    H162309   4.851   2.500   6.460  1.2164 -0.2802  1.0427
13606TIP3    H262310   4.794   2.359   6.467  0.9769 -0.1725  1.2774
13607TIP3   OH262311   3.012   3.703  14.372 -0.5825  0.1250 -0.3803
13607TIP3    H162312   3.059   3.735  14.295  1.0264  0.4620  0.7054
13607TIP3    H262313   3.078   3.658  14.424 -1.4727  0.4897  1.1363
13608TIP3   OH262314   3.710   3.584   3.548  0.0951  0.3279  0.4271
13608TIP3    H162315   3.676   3.504   3.506  1.8505 -0.9013  1.2296
13608TIP3    H262316   3.718   3.561   3.640  1.9130  0.9435  0.4687
13609TIP3   OH262317   4.976   4.634   2.698  0.1554  0.7291  0.2522
13609TIP3    H162318   4.954   4.721   2.665  0.8166  0.5151 -0.7857
13609TIP3    H262319   5.067   4.642   2.728  0.4450  0.2436 -0.4593
13610TIP3   OH262320   1.975   2.796   0.602 -0.3850 -0.1323 -0.1824
13610TIP3    H162321   1.923   2.760   0.530  0.3335  0.0562 -0.8113
13610TIP3    H262322   2.056   2.744   0.600 -1.7356 -2.6523  2.8190
13611TIP3   OH262323   5.641   3.395  12.020 -0.3570  0.7851 -0.0321
13611TIP3    H162324   5.678   3.315  12.056 -0.6847  0.5844 -0.1414
13611TIP3    H262325   5.571   3.418  12.081  0.3564  1.5284  0.5506
13612TIP3   OH262326   3.883   5.972  15.109  0.4147 -0.7136  0.1158
13612TIP3    H162327   3.949   5.905  15.128  1.5069 -0.2956 -1.9695
13612TIP3    H262328   3.927   6.035  15.054 -1.1629  0.7376  0.4272
13613TIP3   OH262329   3.222   0.425   5.346  0.6769 -0.4394  0.0965
13613TIP3    H162330   3.142   0.373   5.335 -0.0070  0.9701 -2.4015
13613TIP3    H262331   3.284   0.365   5.387 -1.1532 -2.0713  0.6515
13614TIP3   OH262332   5.241   3.106  13.674 -0.4262  0.1520 -0.0867
13614TIP3    H162333   5.252   3.102  13.770  1.4867  0.0389 -0.2588
13614TIP3    H262334   5.200   3.190  13.658 -0.1866  0.4570  0.8047
13615TIP3   OH262335   3.076   3.062  12.772 -0.6126  0.3278  0.4260
13615TIP3    H162336   3.072   3.019  12.687  1.9182  2.0472 -0.6855
13615TIP3    H262337   3.062   3.155  12.753 -2.3389  0.5258  2.2605
13616TIP3   OH262338   0.224   0.838  17.116 -0.3731 -0.5987  0.3727
13616TIP3    H162339   0.297   0.898  17.132 -1.1138  1.0147 -1.8272
13616TIP3    H262340   0.244   0.798  17.031 -1.9733 -0.1884 -0.2386
13617TIP3   OH262341   3.803   3.314   3.177  0.1102  0.8371  0.5222
13617TIP3    H162342   3.862   3.340   3.247 -1.7693 -1.1557  3.0456
13617TIP3    H262343   3.820   3.220   3.165 -2.9445 -0.0348  1.9547
13618TIP3   OH262344   4.542   6.065  16.848 -0.8624  0.6693 -0.6901
13618TIP3    H162345   4.459   6.062  16.800  0.7854 -0.6608 -3.7927
13618TIP3    H262346   4.608   6.045  16.782  1.7042 -1.2953  2.1657
13619TIP3   OH262347   4.919   4.019  17.010  0.4281 -0.4725  0.4738
13619TIP3    H162348   4.865   3.942  16.992  0.0350  0.3477 -2.4028
13619TIP3    H262349   4.857   4.092  17.007  1.2998  0.2593 -0.5154
13620TIP3   OH262350   5.783   3.190   3.814 -0.1002  0.1903 -0.3533
13620TIP3    H162351   5.844   3.131   3.768  1.6533  1.3143  0.4431
13620TIP3    H262352   5.711   3.202   3.752  0.5745 -1.0063 -1.4351
13621TIP3   OH262353   6.665   5.580   1.911 -0.6185  0.2997  0.5395
13621TIP3    H162354   6.736   5.629   1.869 -0.5086  0.2928  0.7178
13621TIP3    H262355   6.602   5.646   1.937 -1.5541  0.1785 -1.2512
13622TIP3   OH262356   0.242   4.699   3.717  0.1331  0.0652 -0.5083
13622TIP3    H162357   0.190   4.632   3.673 -0.0496  1.2370 -2.1824
13622TIP3    H262358   0.317   4.652   3.754  0.7237 -0.9182 -2.7853
13623TIP3   OH262359   4.952   3.664   0.550 -0.3189 -0.1170 -0.2308
13623TIP3    H162360   5.006   3.738   0.579 -1.2649  0.1454  0.9610
13623TIP3    H262361   5.008   3.587   0.562  0.3550  0.2974 -0.6136
13624TIP3   OH262362   2.457   4.467   3.290 -0.4504 -0.1195  0.2069
13624TIP3    H162363   2.493   4.427   3.210  0.2020  0.3091  0.2780
13624TIP3    H262364   2.362   4.457   3.281 -0.3233 -1.8602  0.3099
13625TIP3   OH262365   2.952   0.402   4.051 -0.5953 -0.2667  0.1904
13625TIP3    H162366   2.947   0.489   4.092 -1.9271  0.2095 -0.9133
13625TIP3    H262367   2.863   0.368   4.056 -0.0074 -1.7639  0.9515
13626TIP3   OH262368   3.596   0.137  14.072 -0.1611  0.4321 -0.4416
13626TIP3    H162369   3.607   0.042  14.067  0.6155  0.5207 -0.6326
13626TIP3    H262370   3.598   0.165  13.980 -2.0362  0.4773 -0.4933
13627TIP3   OH262371   1.743   2.211   0.845  0.2123  0.1569  0.3249
13627TIP3    H162372   1.718   2.246   0.759  1.0295  0.2006  0.1018
13627TIP3    H262373   1.738   2.116   0.835  0.1100  0.1652  0.2919
13628TIP3   OH262374   1.220   5.869   3.727  0.8095 -0.4243 -0.4115
13628TIP3    H162375   1.197   5.930   3.657 -2.7139  0.4771  1.2850
13628TIP3    H262376   1.275   5.920   3.787 -0.4290  0.4926 -0.0208
13629TIP3   OH262377   3.381   6.640  13.730 -1.1144 -0.1078 -0.0239
13629TIP3    H162378   3.392   6.549  13.704  0.0187  0.5309 -1.9919
13629TIP3    H262379   3.399   6.641  13.824 -2.2568 -2.0583  0.2685
13630TIP3   OH262380   0.602   5.493  12.001  0.4251  0.3213 -0.0569
13630TIP3    H162381   0.577   5.442  11.924 -0.0112  1.2250 -0.5287
13630TIP3    H262382   0.654   5.565  11.967  1.0657  0.1905  0.6106
13631TIP3   OH262383   2.625   2.805  15.051  0.4168 -0.3031  0.3303
13631TIP3    H162384   2.574   2.732  15.018  0.4456  0.3513 -1.2637
13631TIP3    H262385   2.578   2.834  15.129 -2.1860  0.7639 -1.4897
13632TIP3   OH262386   5.768   1.278   4.279 -0.0926  0.4861  0.1908
13632TIP3    H162387   5.698   1.262   4.216 -1.9833 -0.2856  2.3411
13632TIP3    H262388   5.784   1.193   4.320  2.9589  0.3732 -0.9588
13633TIP3   OH262389   3.335   2.846  16.886  0.2922 -0.1297 -0.5375
13633TIP3    H162390   3.390   2.885  16.954 -1.7757  0.0451  1.1343
13633TIP3    H262391   3.320   2.757  16.915 -0.5149 -0.0936 -0.8193
13634TIP3   OH262392   5.531   3.395  12.938  0.1122  0.2148  0.6818
13634TIP3    H162393   5.510   3.328  13.003 -2.0066 -0.9216 -1.0718
13634TIP3    H262394   5.467   3.383  12.868  2.0888  1.5664 -1.5270
13635TIP3   OH262395   5.128   2.559  15.383  0.0107 -0.3215  0.1883
13635TIP3    H162396   5.040   2.523  15.395  0.0294 -0.3321  0.2960
13635TIP3    H262397   5.179   2.485  15.349 -0.0025 -0.3380  0.2039
13636TIP3   OH262398   0.959   3.215  11.855  0.5439 -0.4346 -0.5380
13636TIP3    H162399   0.938   3.154  11.925  1.5981  0.5810  0.7101
13636TIP3    H262400   0.909   3.183  11.779 -1.0397 -1.2462  0.7947
13637TIP3   OH262401   5.075   2.579   5.344 -0.0810 -0.1523 -0.1321
13637TIP3    H162402   5.001   2.521   5.326 -0.1038 -0.0479 -0.3817
13637TIP3    H262403   5.040   2.667   5.326  0.8843 -0.2588 -2.9711
13638TIP3   OH262404   1.618   5.320   2.121 -0.6219 -0.0612 -0.5554
13638TIP3    H162405   1.617   5.342   2.214  1.3304 -0.9119 -0.2746
13638TIP3    H262406   1.677   5.384   2.082 -0.9679 -0.0746 -1.1145
13639TIP3   OH262407   3.196   6.389   5.579 -0.0267 -0.0553 -0.8017
13639TIP3    H162408   3.269   6.334   5.606 -0.4706 -0.0270  0.5325
13639TIP3    H262409   3.210   6.472   5.625 -1.1939 -0.2397 -0.0799
13640TIP3   OH262410   2.455   5.103   6.163 -0.4077 -0.0479 -0.3616
13640TIP3    H162411   2.417   5.188   6.185 -0.4037  0.0219 -0.6210
13640TIP3    H262412   2.383   5.041   6.171 -0.5328  0.0581 -0.6862
13641TIP3   OH262413   6.746   5.791   4.266 -0.1782  0.0498 -0.0198
13641TIP3    H162414   6.808   5.861   4.246  0.4915 -0.2410  0.9715
13641TIP3    H262415   6.801   5.714   4.279 -0.9239 -0.7314 -1.3043
13642TIP3   OH262416   4.045   2.925   4.190  0.2896 -0.1820 -0.0997
13642TIP3    H162417   4.022   2.834   4.208 -1.4571  0.0920 -0.7173
13642TIP3    H262418   3.995   2.975   4.254  0.7414  0.3818 -0.1785
13643TIP3   OH262419   4.255   0.507  12.322 -0.0537 -0.1657  0.1984
13643TIP3    H162420   4.211   0.581  12.365  1.1427  0.1203  0.9805
13643TIP3    H262421   4.342   0.541  12.300  0.0726 -0.9657 -0.5645
13644TIP3   OH262422   5.144   3.402   3.775  0.5866 -0.2128 -0.1236
13644TIP3    H162423   5.050   3.411   3.758  0.8187  1.0007 -0.8592
13644TIP3    H262424   5.181   3.488   3.753  1.9966 -0.9397 -0.7322
13645TIP3   OH262425   5.814   3.839  11.584 -0.5219  0.7875 -0.1014
13645TIP3    H162426   5.797   3.750  11.616 -0.9294  0.7418 -0.4425
13645TIP3    H262427   5.786   3.896  11.656 -0.8920  0.6641 -0.1465
13646TIP3   OH262428   1.670   0.430  14.390  0.0163  0.3022  0.1279
13646TIP3    H162429   1.747   0.413  14.336 -0.7583 -1.7477 -0.3914
13646TIP3    H262430   1.623   0.499  14.343  0.6449  0.3396 -0.4665
13647TIP3   OH262431   0.579   1.733   2.944  0.3805 -0.0175  0.3151
13647TIP3    H162432   0.618   1.654   2.908  0.6367 -0.2823  1.1577
13647TIP3    H262433   0.509   1.756   2.882  0.9233 -0.3566 -0.4301
13648TIP3   OH262434   5.287   6.152  11.165  0.2051  0.0874 -0.0662
13648TIP3    H162435   5.276   6.239  11.127 -1.5183 -0.0912 -0.0670
13648TIP3    H262436   5.381   6.134  11.158  0.2458  0.8859 -2.3829
13649TIP3   OH262437   1.953   2.670  10.113 -0.1809  0.2711 -0.5338
13649TIP3    H162438   1.990   2.742  10.062 -0.3241 -0.7116 -2.1150
13649TIP3    H262439   1.880   2.709  10.161 -0.0317  1.2560 -1.0885
13650TIP3   OH262440   4.321   0.826   4.134 -0.0115 -0.6922 -0.3642
13650TIP3    H162441   4.267   0.754   4.099 -0.2396 -0.5611 -0.2869
13650TIP3    H262442   4.406   0.786   4.152 -0.3971 -1.1540  0.4850
13651TIP3   OH262443   3.112   2.249  16.424  0.9416  0.1147 -0.3548
13651TIP3    H162444   3.028   2.234  16.469  1.1230 -1.1335 -0.4058
13651TIP3    H262445   3.100   2.332  16.378  0.6634  1.3448  1.8016
13652TIP3   OH262446   2.369   5.051   5.493 -0.5648  0.6149 -0.1311
13652TIP3    H162447   2.302   5.025   5.557 -0.6626  2.2612  0.4962
13652TIP3    H262448   2.448   5.066   5.546  0.0444 -0.3698 -0.7363
13653TIP3   OH262449   2.155   2.968   2.975 -1.1203  0.3179  0.1554
13653TIP3    H162450   2.125   2.973   2.884 -1.4993  1.1170  0.3109
13653TIP3    H262451   2.174   3.059   2.999 -0.0666  0.0064  0.5682
13654TIP3   OH262452   6.796   6.022  13.696  0.3820  0.2600 -0.0740
13654TIP3    H162453   6.857   5.962  13.739  0.3573  1.4215  1.7117
13654TIP3    H262454   6.715   6.014  13.747  0.0814  1.1159 -0.3958
13655TIP3   OH262455   0.079   2.532  15.452  0.3308 -0.2362 -0.2879
13655TIP3    H162456   0.103   2.452  15.498 -0.7461 -0.3795  0.0540
13655TIP3    H262457  -0.008   2.513  15.415  0.4489  0.4642 -0.9577
13656TIP3   OH262458   3.981   3.324  11.031 -0.0859  0.3541 -0.0348
13656TIP3    H162459   3.960   3.410  10.994 -0.2370  1.7253  2.9610
13656TIP3    H262460   3.904   3.270  11.013 -0.3955  1.1299 -1.1034
13657TIP3   OH262461   2.025   0.092  16.806 -0.4193  0.4490 -0.1927
13657TIP3    H162462   2.022   0.021  16.742 -1.2777 -1.3337  1.7008
13657TIP3    H262463   2.117   0.099  16.832  0.0691  1.6911 -2.0511
13658TIP3   OH262464   2.096   4.954  12.107 -0.1574  0.1765  0.5955
13658TIP3    H162465   2.097   4.944  12.202  0.7865 -0.3828  0.5412
13658TIP3    H262466   2.068   5.045  12.093 -1.8052 -0.1854  1.3415
13659TIP3   OH262467   3.772   0.928   1.095 -0.3759  0.4666 -0.3314
13659TIP3    H162468   3.786   0.986   1.020 -1.4011  0.6824 -0.3688
13659TIP3    H262469   3.699   0.873   1.069  0.0215 -0.2509  0.0585
13660TIP3   OH262470   1.967   5.446   4.739  0.0274  1.1324  0.2421
13660TIP3    H162471   2.024   5.372   4.758 -0.7998  0.2868 -0.4717
13660TIP3    H262472   1.878   5.411   4.747 -0.3931  1.4384 -2.2003
13661TIP3   OH262473   2.655   6.365  10.609  0.2707 -0.0265  0.0712
13661TIP3    H162474   2.564   6.335  10.619  0.2564  0.3237  1.0844
13661TIP3    H262475   2.649   6.438  10.547 -0.3090  0.7658  1.0390
13662TIP3   OH262476   5.347   0.731  16.283 -0.1770  0.1296 -0.2806
13662TIP3    H162477   5.413   0.666  16.263  0.4966  0.7531 -0.1411
13662TIP3    H262478   5.392   0.815  16.272 -0.2397  0.5507  2.1281
13663TIP3   OH262479   1.851   5.295  14.177  0.1388 -0.1880 -0.6484
13663TIP3    H162480   1.806   5.254  14.102 -0.8783  0.9623 -0.6903
13663TIP3    H262481   1.824   5.242  14.252  0.3176 -0.7130 -0.9462
13664TIP3   OH262482   3.529   4.620   6.049  0.0482 -0.6264 -0.2499
13664TIP3    H162483   3.565   4.705   6.024  0.5749 -0.7712  0.0196
13664TIP3    H262484   3.531   4.620   6.145  2.7873 -2.0771 -0.2158
13665TIP3   OH262485   2.104   2.596   5.065  0.3385 -0.7600  0.2709
13665TIP3    H162486   2.062   2.526   5.115  0.3080  0.0251  1.3788
13665TIP3    H262487   2.036   2.629   5.008  0.1779 -1.2079  0.1959
13666TIP3   OH262488   2.766   5.825  14.116 -0.4106 -0.2193  0.3962
13666TIP3    H162489   2.714   5.862  14.188  0.7571  0.0478  1.1182
13666TIP3    H262490   2.721   5.854  14.037  0.0603  2.2040  0.9404
13667TIP3   OH262491   1.504   5.692  12.610  0.6886 -0.2941 -0.8215
13667TIP3    H162492   1.566   5.737  12.553 -0.8474  1.3287 -1.3267
13667TIP3    H262493   1.452   5.763  12.648 -2.4393 -1.6120 -2.3146
13668TIP3   OH262494   5.948   3.251  12.681  0.5196 -0.3073 -0.2725
13668TIP3    H162495   5.860   3.216  12.692  0.6842 -1.0557 -1.1360
13668TIP3    H262496   5.936   3.345  12.669 -0.5139 -0.7487 -3.7015
13669TIP3   OH262497   3.130   4.474   2.528  0.4964  0.0166  0.1721
13669TIP3    H162498   3.140   4.565   2.500 -0.0498  0.1163  0.2956
13669TIP3    H262499   3.072   4.479   2.604 -0.0705 -0.5001 -0.2197
13670TIP3   OH262500   5.840   6.213   1.575 -0.4170  0.2147 -0.5731
13670TIP3    H162501   5.911   6.256   1.623 -1.5447  0.7515  0.6871
13670TIP3    H262502   5.844   6.122   1.603 -1.6956  0.7107  1.4302
13671TIP3   OH262503   4.784   4.458  15.847 -0.2477 -0.9561 -0.3322
13671TIP3    H162504   4.705   4.429  15.802 -0.6391 -1.2924  0.5513
13671TIP3    H262505   4.783   4.412  15.931  1.8476 -2.4103 -1.0057
13672TIP3   OH262506   0.958   1.496  11.868 -0.0164  0.0387  0.1373
13672TIP3    H162507   0.912   1.564  11.820 -0.8656 -1.2847 -0.9858
13672TIP3    H262508   0.891   1.432  11.889  0.7292 -0.3818  1.3464
13673TIP3   OH262509   4.298   1.104  10.441 -0.1723 -0.1966 -0.1202
13673TIP3    H162510   4.224   1.044  10.450 -0.8312  0.7980  1.6027
13673TIP3    H262511   4.359   1.078  10.511  0.3979 -0.0272 -0.5451
13674TIP3   OH262512   5.246   6.659   6.727 -0.4421 -0.9434  0.2103
13674TIP3    H162513   5.321   6.606   6.754  0.4309  0.8823  1.6580
13674TIP3    H262514   5.260   6.673   6.633  2.1314  0.8019  0.7306
13675TIP3   OH262515   5.470   1.969  11.021  0.3840 -0.0131  0.2532
13675TIP3    H162516   5.555   1.934  10.995  0.9302  1.3160  0.1745
13675TIP3    H262517   5.427   1.895  11.065  0.6961 -1.3591 -1.5653
13676TIP3   OH262518   2.314   1.851  12.294  1.0573  0.7932 -0.1876
13676TIP3    H162519   2.383   1.789  12.269  1.3487  0.3176  1.6081
13676TIP3    H262520   2.361   1.923  12.336  0.5269  0.6380  0.7171
13677TIP3   OH262521   4.628   3.079  17.127 -0.1804 -0.2439 -0.0170
13677TIP3    H162522   4.569   3.126  17.185 -0.2544  0.9332 -1.0043
13677TIP3    H262523   4.578   3.002  17.100 -0.4306 -0.3990  0.8511
13678TIP3   OH262524   2.236   3.782  16.754  0.2277  0.7221 -0.4190
13678TIP3    H162525   2.325   3.762  16.784 -1.3334 -1.6254  3.2629
13678TIP3    H262526   2.235   3.878  16.747  2.6387  0.9278  0.8514
13679TIP3   OH262527   1.563   5.497   1.599 -0.6007  0.1931 -0.2211
13679TIP3    H162528   1.467   5.499   1.593 -0.6332  1.0947  0.3798
13679TIP3    H262529   1.581   5.518   1.691  0.2000  1.5132 -0.6515
13680TIP3   OH262530   1.278   1.097   2.232  0.1470 -0.3575 -0.0943
13680TIP3    H162531   1.231   1.017   2.256  0.6884 -1.0680 -1.3084
13680TIP3    H262532   1.335   1.071   2.160  1.9630  0.6094  0.9066
13681TIP3   OH262533   1.624   3.959   2.577  0.2587 -0.8601  0.2757
13681TIP3    H162534   1.619   4.006   2.494 -0.2005  0.7089  1.1482
13681TIP3    H262535   1.683   3.885   2.559  1.7909  0.5667 -0.9271
13682TIP3   OH262536   3.716   3.567  15.387 -0.2110 -0.2011  0.1013
13682TIP3    H162537   3.719   3.663  15.386 -0.4090 -0.1690  1.1377
13682TIP3    H262538   3.667   3.545  15.466 -1.1710 -1.1559 -0.7376
13683TIP3   OH262539   6.307   3.347   3.209  0.4335  0.2456 -0.2117
13683TIP3    H162540   6.241   3.288   3.172  1.8418 -2.5739  1.3512
13683TIP3    H262541   6.301   3.427   3.157 -2.9698 -0.5129 -1.2270
13684TIP3   OH262542   4.350   0.158  11.655 -0.2985  0.5830 -0.6265
13684TIP3    H162543   4.376   0.084  11.711  1.5093  0.0633 -2.0510
13684TIP3    H262544   4.257   0.169  11.672 -0.0838 -0.3416  1.5515
13685TIP3   OH262545   0.383   1.957  11.864 -0.3925  0.0234  0.3358
13685TIP3    H162546   0.379   2.048  11.895 -2.3749  0.4964 -1.0475
13685TIP3    H262547   0.346   1.906  11.936  0.8675  0.2757  1.1858
13686TIP3   OH262548   2.482   4.664  13.494  0.1557  0.0158 -0.6335
13686TIP3    H162549   2.492   4.677  13.589 -1.6198 -1.9394 -0.0993
13686TIP3    H262550   2.391   4.688  13.477 -1.0701 -3.9691 -0.8503
13687TIP3   OH262551   4.613   6.455  11.530 -0.6185 -0.0307  0.3961
13687TIP3    H162552   4.691   6.488  11.485 -0.5137  1.1107  1.3725
13687TIP3    H262553   4.614   6.360  11.513  0.4468  0.1010 -0.3968
13688TIP3   OH262554   3.970   2.526   0.783 -0.2304 -0.6080  0.1548
13688TIP3    H162555   3.898   2.466   0.800 -0.8017 -0.0051 -0.1242
13688TIP3    H262556   4.047   2.470   0.779 -0.8067 -1.3728 -0.4691
13689TIP3   OH262557   6.080   1.101   4.224 -0.2293 -0.0251  0.3349
13689TIP3    H162558   6.079   1.196   4.238  0.5134  0.0359  0.0036
13689TIP3    H262559   6.161   1.072   4.265  0.7606 -0.1836 -1.6465
13690TIP3   OH262560   3.274   3.058   4.440 -0.5769  0.3344 -0.1332
13690TIP3    H162561   3.246   2.992   4.504 -0.8339  0.5723  0.0045
13690TIP3    H262562   3.303   3.008   4.364 -0.0013  0.0432  0.2784
13691TIP3   OH262563   0.198   3.488   3.493  0.2864  0.3881 -0.1673
13691TIP3    H162564   0.215   3.571   3.538  0.3509  0.5444 -0.4810
13691TIP3    H262565   0.276   3.435   3.509 -0.4950 -0.3129  1.5969
13692TIP3   OH262566   0.762   1.752  16.629  0.4319  0.5664 -0.0436
13692TIP3    H162567   0.666   1.745  16.632  0.3825  0.3201 -1.4955
13692TIP3    H262568   0.779   1.844  16.649 -0.1410  0.7186 -0.2160
13693TIP3   OH262569   0.113   1.969  13.162  0.6517  0.4995 -0.0784
13693TIP3    H162570   0.055   1.996  13.090  1.3960  0.7214 -0.6072
13693TIP3    H262571   0.201   1.982  13.127  1.0414  1.7410  1.3056
13694TIP3   OH262572   6.116   0.297  16.243 -0.0439 -0.3775 -0.1311
13694TIP3    H162573   6.155   0.210  16.246  0.9530  0.0550  0.0378
13694TIP3    H262574   6.024   0.284  16.267  0.1964 -1.3234  0.2947
13695TIP3   OH262575   5.224   0.321   0.446  0.2555 -0.6095  0.1710
13695TIP3    H162576   5.186   0.262   0.511 -3.3344  1.0427 -0.2088
13695TIP3    H262577   5.236   0.404   0.492  2.0843 -0.6329 -0.1726
13696TIP3   OH262578   1.020   3.915   3.612 -0.1953  0.3515  0.7481
13696TIP3    H162579   1.112   3.891   3.602 -0.5639 -0.5254 -0.9173
13696TIP3    H262580   1.019   4.010   3.597  0.1997  0.0646 -1.4673
13697TIP3   OH262581   6.273   6.511   6.076  0.0184 -0.5767  0.0573
13697TIP3    H162582   6.220   6.525   5.997 -0.9802 -1.0315  0.6263
13697TIP3    H262583   6.268   6.594   6.123 -0.6407 -0.7812  0.3610
13698TIP3   OH262584   0.246   3.856   4.430 -0.4835 -0.2103 -0.1878
13698TIP3    H162585   0.286   3.917   4.368  1.0843  0.3571  1.2832
13698TIP3    H262586   0.194   3.912   4.488 -4.6734 -1.0220 -2.7202
13699TIP3   OH262587   5.991   2.381  11.370  0.1714 -0.3980  0.0372
13699TIP3    H162588   5.999   2.406  11.462 -0.2932 -0.5406  0.1163
13699TIP3    H262589   6.080   2.357  11.345  0.4869  0.5846  0.1734
13700TIP3   OH262590   4.998   3.750  15.757 -0.1002 -0.1461  0.0931
13700TIP3    H162591   5.068   3.713  15.703 -1.1354 -1.2303 -0.5667
13700TIP3    H262592   4.922   3.753  15.699 -0.6461  0.8662  0.8384
13701TIP3   OH262593   4.958   2.477  11.445  0.4521  0.0734 -0.5520
13701TIP3    H162594   4.959   2.499  11.352  0.0699 -0.5815 -0.7190
13701TIP3    H262595   4.966   2.382  11.447  1.4416  0.1562  0.1230
13702TIP3   OH262596   6.010   5.241   4.307 -0.0302  0.2856 -0.9935
13702TIP3    H162597   6.058   5.199   4.379 -2.1948 -1.5979 -0.5296
13702TIP3    H262598   5.925   5.263   4.345 -0.6851  0.6246 -2.5968
13703TIP3   OH262599   3.170   1.603   5.102  0.1504 -0.4936  0.0184
13703TIP3    H162600   3.150   1.533   5.038  0.6266  0.3927 -1.1378
13703TIP3    H262601   3.254   1.578   5.139 -1.8820 -3.2357  3.5035
13704TIP3   OH262602   3.276   4.222  13.390 -0.3283 -0.4349  0.2040
13704TIP3    H162603   3.202   4.259  13.439  0.6343  0.4683  1.0338
13704TIP3    H262604   3.244   4.213  13.301 -1.5666 -0.4405  0.6319
13705TIP3   OH262605   0.926   3.970   6.033  0.1714  0.4350 -0.0919
13705TIP3    H162606   0.977   3.905   6.083 -0.4986 -0.6257 -0.7455
13705TIP3    H262607   0.987   3.999   5.965  0.4961  0.5393  0.2368
13706TIP3   OH262608   4.907   3.848   5.052  0.2839  0.0637 -0.4156
13706TIP3    H162609   4.860   3.766   5.038  1.5251 -0.6123 -0.7655
13706TIP3    H262610   4.912   3.857   5.147 -1.0940  0.5011 -0.3523
13707TIP3   OH262611   6.053   2.165   3.127  0.3840 -0.0426 -0.4640
13707TIP3    H162612   6.083   2.163   3.218 -1.4175  0.4208  0.1777
13707TIP3    H262613   6.115   2.108   3.080  2.2562  0.8954  0.7259
13708TIP3   OH262614   0.778   6.431  14.836 -0.1042  0.1638 -0.0083
13708TIP3    H162615   0.844   6.428  14.768 -1.2932  1.6215 -1.3021
13708TIP3    H262616   0.745   6.521  14.833 -2.1122 -0.5033  0.5980
13709TIP3   OH262617   5.247   1.961  14.024 -0.1975 -0.1954 -0.7379
13709TIP3    H162618   5.271   1.973  14.116 -1.5190  0.9856 -0.5202
13709TIP3    H262619   5.154   1.941  14.026  0.4598 -4.2683 -1.5910
13710TIP3   OH262620   4.792   5.856  13.249  0.3517  0.1032  0.4628
13710TIP3    H162621   4.767   5.834  13.339  0.6056 -0.3311  0.4318
13710TIP3    H262622   4.723   5.817  13.195  1.6932 -2.2056  0.2954
13711TIP3   OH262623   6.198   2.926  14.035 -0.5074 -0.3993  0.4346
13711TIP3    H162624   6.129   2.991  14.020 -0.2504 -0.1335  0.4027
13711TIP3    H262625   6.261   2.941  13.965  0.1313  0.0941  1.0954
13712TIP3   OH262626   4.666   6.532  12.925 -0.8760  0.2369  0.4473
13712TIP3    H162627   4.640   6.539  12.834  0.6186  1.3143  0.0730
13712TIP3    H262628   4.732   6.600  12.937  0.4019 -1.1660  1.8128
13713TIP3   OH262629   5.409   1.535  10.815 -0.1782  0.3503  0.3473
13713TIP3    H162630   5.356   1.607  10.781 -1.0379  0.1035  1.1232
13713TIP3    H262631   5.415   1.473  10.742 -0.1037  0.8333 -0.0638
13714TIP3   OH262632   2.890   1.081  12.074 -0.1506  0.1123  0.4548
13714TIP3    H162633   2.980   1.111  12.090 -0.2260 -0.2144  1.5420
13714TIP3    H262634   2.837   1.133  12.134 -0.7045  0.2738 -0.1556
13715TIP3   OH262635   0.211   0.310   0.421  0.4435  0.3511 -0.0844
13715TIP3    H162636   0.187   0.230   0.373  2.7659 -0.4589  0.0096
13715TIP3    H262637   0.300   0.330   0.391  0.8037  1.5549  1.6760
13716TIP3   OH262638   3.295   0.868  17.016  0.1526  0.4883 -0.9303
13716TIP3    H162639   3.335   0.784  16.995  0.1046  0.3624 -0.5336
13716TIP3    H262640   3.216   0.846  17.065  0.8143  0.7818  0.3176
13717TIP3   OH262641   3.750   2.541  15.724 -0.5295  0.3954  0.1503
13717TIP3    H162642   3.741   2.604  15.653 -0.7189  0.1256 -0.0656
13717TIP3    H262643   3.840   2.555  15.757 -0.2486  0.1395 -0.5040
13718TIP3   OH262644   6.781   3.481   0.681 -0.3519 -1.0353 -0.6270
13718TIP3    H162645   6.710   3.546   0.680  1.1162  0.8380  2.4223
13718TIP3    H262646   6.743   3.403   0.640 -2.8506  1.0655 -2.6795
13719TIP3   OH262647   0.405   4.258   3.670 -0.4178  0.0632  0.1317
13719TIP3    H162648   0.428   4.165   3.679 -2.4285 -0.3583  1.6155
13719TIP3    H262649   0.488   4.304   3.679  0.9093 -1.5899 -2.2724
13720TIP3   OH262650   1.917   5.234   5.197  0.4791 -0.0903 -0.3260
13720TIP3    H162651   1.993   5.290   5.182 -0.1501  0.5859 -1.0362
13720TIP3    H262652   1.910   5.230   5.293  1.9731 -0.9620 -0.2189
13721TIP3   OH262653   1.609   1.472   2.550  0.2315  0.5223  0.1144
13721TIP3    H162654   1.671   1.490   2.479 -1.5254  0.6257 -1.4834
13721TIP3    H262655   1.549   1.546   2.548 -0.7855 -0.2681  0.6372
13722TIP3   OH262656   6.432   5.876  15.772  0.0822 -0.4465 -0.1249
13722TIP3    H162657   6.445   5.869  15.678 -0.3889 -1.6871 -0.1084
13722TIP3    H262658   6.504   5.825  15.811  0.1946 -0.0582  0.1883
13723TIP3   OH262659   0.725   5.295   0.381 -0.1522 -0.7080  0.5449
13723TIP3    H162660   0.806   5.266   0.339  0.8043 -1.6129  2.8759
13723TIP3    H262661   0.657   5.241   0.342  0.5128 -0.7711 -0.5858
13724TIP3   OH262662   5.120   1.634  16.517 -0.3542 -0.3486 -0.2529
13724TIP3    H162663   5.066   1.580  16.459  0.0477  1.7514 -2.7730
13724TIP3    H262664   5.189   1.574  16.548 -0.9887 -1.7322 -1.3766
13725TIP3   OH262665   6.015   5.084  15.057  0.2623 -0.0877 -0.2135
13725TIP3    H162666   5.942   5.051  15.110  0.7285  0.0509  0.5333
13725TIP3    H262667   5.981   5.086  14.968 -0.8470  0.5429  0.2013
13726TIP3   OH262668   2.306   1.787  16.741  1.0992  0.4929 -0.7096
13726TIP3    H162669   2.375   1.851  16.726  0.0480  1.7524 -0.3849
13726TIP3    H262670   2.312   1.727  16.667 -0.0791  2.9856 -2.9805
13727TIP3   OH262671   5.327   6.349   3.835  0.3052 -0.1860  0.6577
13727TIP3    H162672   5.236   6.369   3.817  0.3318  1.4752  2.0280
13727TIP3    H262673   5.362   6.315   3.753 -1.3114  0.0436 -0.1516
13728TIP3   OH262674   0.800   2.201  16.382  0.3355 -0.3566 -0.4744
13728TIP3    H162675   0.717   2.155  16.387  1.3993 -2.2353  1.0015
13728TIP3    H262676   0.854   2.147  16.324  1.0546 -0.0509 -0.1006
13729TIP3   OH262677   5.130   6.516  14.672  0.3453  0.1445 -0.5594
13729TIP3    H162678   5.071   6.591  14.681 -0.1619 -0.3168  0.0097
13729TIP3    H262679   5.172   6.530  14.587 -1.1716  0.0697 -1.3628
13730TIP3   OH262680   2.904   4.524   6.676  0.3222 -0.1809  0.3143
13730TIP3    H162681   2.982   4.511   6.622 -0.1191 -0.2022 -0.3292
13730TIP3    H262682   2.873   4.611   6.652 -1.1725 -1.0732 -1.1724
13731TIP3   OH262683   0.197   3.985  15.787  0.1672  0.0381 -0.5612
13731TIP3    H162684   0.140   4.045  15.835 -1.2111 -0.3004 -1.7141
13731TIP3    H262685   0.252   4.042  15.734  1.0881  0.3760  0.7245
13732TIP3   OH262686   0.234   0.490   2.642  0.4531  0.0678  0.0005
13732TIP3    H162687   0.158   0.548   2.646 -1.0533 -1.8726  1.9271
13732TIP3    H262688   0.296   0.535   2.585 -1.5740  2.3888 -0.5197
13733TIP3   OH262689   2.891   1.926   1.085  1.0251 -0.1162  0.2775
13733TIP3    H162690   2.878   2.020   1.090  0.8473 -0.1870  1.4415
13733TIP3    H262691   2.982   1.915   1.056  1.1241  0.4058  0.3988
13734TIP3   OH262692   2.077   1.590   3.872  0.5988 -0.1545  0.6652
13734TIP3    H162693   1.985   1.569   3.890  0.4501 -2.0381 -1.7219
13734TIP3    H262694   2.073   1.656   3.803  0.9753 -1.5250 -0.7069
13735TIP3   OH262695   5.055   1.639  11.029  0.0106 -0.0816  0.4875
13735TIP3    H162696   5.092   1.641  11.117 -1.2208 -0.9808  1.0652
13735TIP3    H262697   5.044   1.545  11.010 -1.5767  0.1290  0.2082
13736TIP3   OH262698   4.162   0.166   4.134 -0.6865 -0.5851  0.1975
13736TIP3    H162699   4.124   0.124   4.057 -0.3692 -2.6722  1.1090
13736TIP3    H262700   4.218   0.099   4.173 -0.9986  0.3245  2.3705
13737TIP3   OH262701   2.272   5.312   3.879  0.1672  0.3022  0.2483
13737TIP3    H162702   2.313   5.226   3.876 -1.4864 -0.5069 -0.0721
13737TIP3    H262703   2.263   5.339   3.787  0.4780  0.7240  0.3371
13738TIP3   OH262704   4.163   1.872   3.329 -0.0682 -0.1812  0.5328
13738TIP3    H162705   4.185   1.892   3.237 -0.5312  1.5730  0.7510
13738TIP3    H262706   4.123   1.953   3.361 -1.6287 -1.3837  1.7652
13739TIP3   OH262707   4.905   0.541  12.597 -0.0276 -0.5546 -0.2023
13739TIP3    H162708   4.930   0.449  12.603  2.4613  0.1540  2.1463
13739TIP3    H262709   4.810   0.540  12.599 -0.0729 -3.0561 -0.1471
13740TIP3   OH262710   2.579   3.396   3.059  0.8307  0.0686 -0.2441
13740TIP3    H162711   2.570   3.314   3.107 -1.1160 -0.2388 -1.0246
13740TIP3    H262712   2.673   3.410   3.051  1.2071 -0.8622  1.9216
13741TIP3   OH262713   6.786   2.419  13.575  0.3006 -0.1440  0.2339
13741TIP3    H162714   6.795   2.378  13.489 -0.6440  0.4609 -0.1547
13741TIP3    H262715   6.840   2.498  13.570  1.9099 -1.1319  0.8994
13742TIP3   OH262716   0.685   2.869  16.482  0.5857  0.0375  0.2026
13742TIP3    H162717   0.661   2.927  16.409  1.4823 -0.1250 -0.2231
13742TIP3    H262718   0.728   2.927  16.545 -0.8692  0.3383  0.9921
13743TIP3   OH262719   1.739   0.326   3.010  0.0266 -0.0805 -0.1838
13743TIP3    H162720   1.739   0.235   3.041  0.8082  0.0292  0.1577
13743TIP3    H262721   1.774   0.376   3.083  0.5776  0.3580 -0.7339
13744TIP3   OH262722   6.224   2.750   0.658  0.0085 -0.4043 -0.5955
13744TIP3    H162723   6.304   2.794   0.690  0.5440 -0.7757 -1.3929
13744TIP3    H262724   6.193   2.806   0.586  0.9595 -1.5334 -1.9297
13745TIP3   OH262725   0.687   1.606   2.433  0.1190 -0.0263 -0.3535
13745TIP3    H162726   0.766   1.553   2.428  0.5091  0.3841  0.9742
13745TIP3    H262727   0.615   1.543   2.428  0.5534 -0.5350 -0.2678
13746TIP3   OH262728   5.537   2.843  13.059  0.0049 -0.2440 -0.1715
13746TIP3    H162729   5.618   2.858  13.107 -0.0411 -1.6263  0.4062
13746TIP3    H262730   5.532   2.914  12.996  1.4806  0.0682  0.0338
13747TIP3   OH262731   3.825   4.397  11.907 -0.3487  0.3775 -0.4757
13747TIP3    H162732   3.835   4.419  11.999 -1.3468 -0.9315 -0.0187
13747TIP3    H262733   3.866   4.470  11.860 -2.4432  2.5814  0.9118
13748TIP3   OH262734   3.653   6.318  14.065 -0.7145 -0.1181 -0.0991
13748TIP3    H162735   3.599   6.369  14.125  0.8505  0.0635  1.2324
13748TIP3    H262736   3.623   6.343  13.978 -2.8439 -0.1573  0.5760
13749TIP3   OH262737   1.434   1.151  11.056  0.1957 -0.8856  0.1450
13749TIP3    H162738   1.484   1.095  10.996  1.0103 -2.1790  1.9497
13749TIP3    H262739   1.353   1.103  11.072  0.1508 -0.7313  0.3853
13750TIP3   OH262740   4.258   4.326   2.459 -0.2106  0.0189 -0.2033
13750TIP3    H162741   4.255   4.379   2.379 -0.8632  1.4531  0.7295
13750TIP3    H262742   4.345   4.287   2.458  0.2177  0.9410 -1.0370
13751TIP3   OH262743   4.090   2.944   2.279  0.2983  0.1319  0.1142
13751TIP3    H162744   4.163   2.883   2.280  0.8578  0.7830 -0.3934
13751TIP3    H262745   4.111   3.006   2.208 -1.6509 -0.7856 -1.3680
13752TIP3   OH262746   6.077   6.423   3.344 -0.7914  0.0902  0.1597
13752TIP3    H162747   6.140   6.372   3.293 -1.0339 -1.0897  1.0207
13752TIP3    H262748   6.011   6.360   3.372 -2.1626  1.2312 -0.3752
13753TIP3   OH262749   3.094   2.941   1.306  0.1591  0.4292  0.3618
13753TIP3    H162750   3.099   3.028   1.266 -1.9966  0.1418 -0.7209
13753TIP3    H262751   3.134   2.883   1.242 -0.6243  0.3387 -0.0571
13754TIP3   OH262752   5.763   0.292  14.046 -0.3748 -0.4659  0.0672
13754TIP3    H162753   5.729   0.321  13.961  0.8944 -0.4719 -0.4663
13754TIP3    H262754   5.685   0.283  14.101 -1.1783 -0.0090 -0.9548
13755TIP3   OH262755   6.223   0.149  10.831  0.3010  0.0263 -0.4423
13755TIP3    H162756   6.184   0.228  10.868 -2.0187 -1.1529 -0.1696
13755TIP3    H262757   6.148   0.093  10.809  1.8291 -1.8754 -1.1386
13756TIP3   OH262758   6.164   2.688  15.821 -0.4033 -0.5316  0.5368
13756TIP3    H162759   6.073   2.705  15.799 -0.2513 -1.7022 -1.1800
13756TIP3    H262760   6.198   2.773  15.850 -1.5488  0.3417 -0.6045
13757TIP3   OH262761   1.715   2.252  13.629  0.0914 -0.2035  0.6648
13757TIP3    H162762   1.736   2.333  13.675  1.7547 -0.6568  0.7548
13757TIP3    H262763   1.739   2.269  13.538  0.0074 -0.4441  0.5955
13758TIP3   OH262764   5.271   3.332  10.670 -0.3707 -0.2911 -0.0805
13758TIP3    H162765   5.216   3.385  10.612  0.2624  0.7160  0.1995
13758TIP3    H262766   5.255   3.242  10.643 -0.5278  0.1149 -1.4251
13759TIP3   OH262767   1.577   6.453   2.612  0.4314  0.9589  1.1207
13759TIP3    H162768   1.497   6.502   2.596 -0.7011 -0.6510  1.6097
13759TIP3    H262769   1.560   6.367   2.574  1.7450  0.4299  1.6767
13760TIP3   OH262770   6.463   0.971   1.338  0.0087 -0.1562  0.4904
13760TIP3    H162771   6.440   1.038   1.274 -0.2766 -0.2099  0.5351
13760TIP3    H262772   6.461   1.016   1.423 -1.0742 -0.4100  0.6282
13761TIP3   OH262773   4.087   4.578  16.969  0.2460 -0.1056 -0.5025
13761TIP3    H162774   4.084   4.668  16.936  0.1286  0.0167 -0.1602
13761TIP3    H262775   4.088   4.524  16.890 -0.6410  0.1691 -0.7149
13762TIP3   OH262776   1.074   3.274  14.504 -0.6954 -0.1634  0.0100
13762TIP3    H162777   1.049   3.273  14.596 -0.8206  0.4192 -0.0084
13762TIP3    H262778   1.047   3.189  14.470  0.0619 -0.6814  0.6856
13763TIP3   OH262779   0.697   2.252   5.020 -0.3972 -0.5570 -0.1140
13763TIP3    H162780   0.752   2.175   5.006 -0.0909 -0.3843  0.1459
13763TIP3    H262781   0.733   2.294   5.098 -1.7802 -1.2322  0.9355
13764TIP3   OH262782   0.780   0.884  15.446  0.0686  0.4605  0.0389
13764TIP3    H162783   0.833   0.941  15.502 -0.5154 -0.9609  2.1751
13764TIP3    H262784   0.824   0.799  15.450  0.4879  0.4855 -2.4476
13765TIP3   OH262785   5.832   2.309  17.100  0.6952  0.6975  0.4330
13765TIP3    H162786   5.887   2.234  17.121 -0.1737 -0.1033 -0.1378
13765TIP3    H262787   5.852   2.373  17.169 -0.0302 -0.8090  2.0919
13766TIP3   OH262788   5.583   0.812   2.034 -0.6271  0.7464 -0.6425
13766TIP3    H162789   5.489   0.830   2.033 -0.9403 -0.7807 -1.0270
13766TIP3    H262790   5.600   0.765   1.953  0.3926  0.6237 -0.3768
13767TIP3   OH262791   1.663   0.885  10.679 -0.6407  0.9316 -1.0905
13767TIP3    H162792   1.706   0.814  10.630 -0.5767  0.5105 -0.4282
13767TIP3    H262793   1.640   0.949  10.612 -1.3207 -0.0239 -1.8008
13768TIP3   OH262794   5.669   6.056  12.722 -0.8350 -0.6213 -0.0575
13768TIP3    H162795   5.573   6.050  12.728 -0.7891 -0.0097  1.8197
13768TIP3    H262796   5.685   6.093  12.634 -2.4271  1.0267  0.2750
13769TIP3   OH262797   5.625   5.288   5.094 -0.2999 -0.0618  0.2726
13769TIP3    H162798   5.545   5.330   5.123 -0.4926 -0.5719  0.4886
13769TIP3    H262799   5.608   5.264   5.003  0.1814  1.2290 -0.1861
13770TIP3   OH262800   5.568   4.144   3.577 -0.0341  0.1230 -0.1365
13770TIP3    H162801   5.615   4.097   3.646 -1.1210  0.5904  0.9543
13770TIP3    H262802   5.605   4.110   3.496  0.6906 -1.0578  0.6577
13771TIP3   OH262803   5.615   1.658  11.345 -0.5802  0.1607  0.2448
13771TIP3    H162804   5.566   1.577  11.330 -0.3610  0.2806 -1.3171
13771TIP3    H262805   5.618   1.700  11.259 -0.1661  1.5349  0.9088
13772TIP3   OH262806   4.464   2.827   5.015  0.7586 -0.8112  0.3839
13772TIP3    H162807   4.375   2.815   5.047  0.0498  1.6950 -0.3937
13772TIP3    H262808   4.456   2.831   4.920  1.2223  1.9313  0.3754
13773TIP3   OH262809   0.228   6.032  12.915  0.0585  0.3988 -0.1506
13773TIP3    H162810   0.258   6.028  13.006  0.1466  0.0886 -0.1934
13773TIP3    H262811   0.302   6.067  12.866 -0.1386  0.9860 -0.0374
13774TIP3   OH262812   1.465   6.150   2.645 -0.0541 -0.2163  0.2504
13774TIP3    H162813   1.420   6.078   2.690  0.2355  1.1154  2.9095
13774TIP3    H262814   1.402   6.223   2.650  1.1145  0.7645  1.1072
13775TIP3   OH262815   1.854   2.269  12.889 -0.1352 -0.2223  0.4821
13775TIP3    H162816   1.914   2.195  12.882  0.1886  0.2037 -2.0981
13775TIP3    H262817   1.767   2.231  12.879  0.0401 -0.2795 -1.0064
13776TIP3   OH262818   3.592   3.233  15.464 -0.1127  0.8545  0.5429
13776TIP3    H162819   3.623   3.158  15.515  2.3257  0.0408 -1.8359
13776TIP3    H262820   3.630   3.309  15.507  1.3182  0.2493  0.4108
13777TIP3   OH262821   0.099   0.322  13.512 -0.3969  0.5602 -0.2648
13777TIP3    H162822   0.092   0.405  13.465  1.0982  1.4692  1.0462
13777TIP3    H262823   0.179   0.282  13.478  0.5234  1.0771  1.2112
13778TIP3   OH262824   3.960   5.485  11.608  0.9937 -0.0995  0.4143
13778TIP3    H162825   3.898   5.518  11.672  0.4257 -1.8908  0.8533
13778TIP3    H262826   3.992   5.403  11.645 -0.4509 -1.9861 -2.1665
13779TIP3   OH262827   5.218   1.076  12.458 -0.1495 -0.1315  0.5465
13779TIP3    H162828   5.252   1.068  12.547 -1.8368  2.3195  1.5108
13779TIP3    H262829   5.134   1.029  12.461 -0.4633  0.4166  0.4127
13780TIP3   OH262830   1.045   3.825   0.689 -0.2453  0.6135  0.0534
13780TIP3    H162831   0.963   3.780   0.712 -1.2667  2.8550  1.0726
13780TIP3    H262832   1.092   3.832   0.771 -0.0504  1.3026 -0.1142
13781TIP3   OH262833   1.852   4.670   4.575  0.5332  0.3002  0.1261
13781TIP3    H162834   1.817   4.655   4.663  2.6014 -0.9400  0.7991
13781TIP3    H262835   1.819   4.597   4.523  1.8981 -0.7977  0.7293
13782TIP3   OH262836   3.088   2.292  11.641  0.4402 -0.6610  0.6160
13782TIP3    H162837   3.104   2.284  11.735 -0.8046 -0.4085  0.8724
13782TIP3    H262838   3.000   2.329  11.635 -0.0525 -1.9678 -0.6774
13783TIP3   OH262839   3.966   5.354   1.659  0.0451  0.1097  0.2013
13783TIP3    H162840   4.051   5.320   1.630 -0.3380 -0.8656  0.1658
13783TIP3    H262841   3.985   5.441   1.694  0.8945  0.3252 -0.7610
13784TIP3   OH262842   5.242   3.430   4.363 -0.3985  0.8857 -0.4269
13784TIP3    H162843   5.230   3.452   4.271 -0.8079  0.4018 -0.4958
13784TIP3    H262844   5.261   3.336   4.362 -1.2492  0.6967  0.0378
13785TIP3   OH262845   0.205   0.948  11.000  0.2096  0.1296 -0.0969
13785TIP3    H162846   0.126   0.943  10.947  0.7575  0.1177 -0.9239
13785TIP3    H262847   0.215   1.041  11.019 -0.1965  0.0937  0.3224
13786TIP3   OH262848   5.929   2.619  14.622  0.4547  0.2178  1.0036
13786TIP3    H162849   5.976   2.540  14.648  1.6811  0.7895  0.6007
13786TIP3    H262850   5.997   2.681  14.598 -0.4801  1.3857  1.2430
13787TIP3   OH262851   3.146   4.837   0.595  0.0376  0.0170  0.2111
13787TIP3    H162852   3.094   4.873   0.523 -2.6705 -0.8167  1.6302
13787TIP3    H262853   3.222   4.894   0.600 -0.3271  0.8911 -2.4238
13788TIP3   OH262854   5.111   2.928   4.773  0.1529  0.3178 -0.3365
13788TIP3    H162855   5.154   2.995   4.826 -1.1631  1.6814 -0.9165
13788TIP3    H262856   5.052   2.884   4.835 -1.3372  1.8675 -0.5704
13789TIP3   OH262857   4.943   0.139   0.853 -0.1768 -0.3292  0.1355
13789TIP3    H162858   4.915   0.048   0.866 -1.0902 -0.2687 -1.2636
13789TIP3    H262859   4.875   0.191   0.895 -0.3208 -0.2726 -0.1628
13790TIP3   OH262860   6.496   2.526  14.379  0.0727  0.1431 -0.0189
13790TIP3    H162861   6.453   2.609  14.356  1.1448  0.5918 -0.4824
13790TIP3    H262862   6.453   2.500  14.461  0.0176  1.3983  0.3877
13791TIP3   OH262863   3.979   5.866   4.028  0.2659  0.1366 -0.1222
13791TIP3    H162864   3.978   5.842   4.121 -4.6829  0.3113  0.1176
13791TIP3    H262865   3.998   5.960   4.028  0.3955  0.1208  0.6845
13792TIP3   OH262866   2.231   4.772  13.411  0.1559  0.7630  0.2367
13792TIP3    H162867   2.256   4.859  13.441  1.1676  1.1350 -1.5163
13792TIP3    H262868   2.174   4.787  13.336 -1.3052 -0.1255  1.1086
13793TIP3   OH262869   0.092   6.827   3.508  0.0012  0.2137 -0.6709
13793TIP3    H162870   0.011   6.789   3.475  0.0096  1.0544 -1.7200
13793TIP3    H262871   0.157   6.808   3.440  0.6493 -0.2920  0.0731
13794TIP3   OH262872   2.243   4.846   4.173 -0.0637 -0.0943  0.0734
13794TIP3    H162873   2.175   4.849   4.105 -0.0269  1.0364  0.0788
13794TIP3    H262874   2.230   4.761   4.215 -1.4466  0.0790  0.0430
13795TIP3   OH262875   4.264   2.637  14.555 -0.6990  0.2105  0.2571
13795TIP3    H162876   4.242   2.711  14.611  0.3318 -0.0897  1.1024
13795TIP3    H262877   4.341   2.665  14.507  0.3242 -0.6217  1.3232
13796TIP3   OH262878   2.714   6.389  10.940  0.1963  0.3735  0.1965
13796TIP3    H162879   2.696   6.397  10.846  0.0085 -0.7653  0.1186
13796TIP3    H262880   2.754   6.302  10.949 -1.3886 -0.2803  1.3960
13797TIP3   OH262881   5.816   4.219  10.886 -0.2026 -0.0065 -0.1235
13797TIP3    H162882   5.875   4.155  10.926 -1.4949 -1.9248 -1.1497
13797TIP3    H262883   5.738   4.169  10.862 -0.3376  1.4341 -3.1362
13798TIP3   OH262884   1.745   2.935   4.647 -0.0881  0.0393  0.6088
13798TIP3    H162885   1.660   2.900   4.671  0.6166 -1.4916  1.0128
13798TIP3    H262886   1.748   2.926   4.551 -0.1855 -0.3673  0.6438
13799TIP3   OH262887   3.415   6.236   5.312 -0.2969 -0.0492  0.0925
13799TIP3    H162888   3.476   6.177   5.355 -0.4244  0.9758  1.7399
13799TIP3    H262889   3.436   6.322   5.345 -0.9529  0.6866 -1.2991
13800TIP3   OH262890   1.135   0.050   4.207  0.2856 -1.0315 -0.4281
13800TIP3    H162891   1.229   0.035   4.197  0.4766  0.8448 -1.8685
13800TIP3    H262892   1.096   0.017   4.126  0.0390  0.4816 -0.9647
13801TIP3   OH262893   6.222   1.508  11.791 -0.0548  0.3129 -0.0275
13801TIP3    H162894   6.153   1.456  11.832 -0.0613  0.0017 -0.4312
13801TIP3    H262895   6.242   1.462  11.709 -1.1883  1.8088 -1.2062
13802TIP3   OH262896   1.373   1.387  12.511 -0.3252  0.6241 -0.2335
13802TIP3    H162897   1.432   1.435  12.569 -1.5946  0.8497  0.9301
13802TIP3    H262898   1.391   1.295  12.529 -1.8113  0.6588  1.8022
13803TIP3   OH262899   2.732   1.095   4.027 -0.1164 -0.2104  0.3495
13803TIP3    H162900   2.786   1.172   4.014  0.3757 -0.3295  1.5451
13803TIP3    H262901   2.733   1.050   3.943 -1.7052  1.8570 -0.8856
13804TIP3   OH262902   5.482   0.424   1.271 -0.2598  0.7135 -0.3927
13804TIP3    H162903   5.467   0.402   1.179  1.0230 -1.4686 -0.1806
13804TIP3    H262904   5.575   0.402   1.285 -1.0429 -1.6796  2.0076
13805TIP3   OH262905   0.493   0.076   4.747 -0.6840  0.1803 -0.5833
13805TIP3    H162906   0.404   0.046   4.763 -0.9118 -0.5948 -2.9190
13805TIP3    H262907   0.485   0.138   4.675  0.6682 -0.1162 -1.0258
13806TIP3   OH262908   0.699   1.425  16.276 -0.1117 -0.1274 -0.0905
13806TIP3    H162909   0.635   1.496  16.281 -0.2919 -0.3041  0.1097
13806TIP3    H262910   0.692   1.380  16.360 -1.1968 -1.4171 -0.8361
13807TIP3   OH262911   4.944   6.659   3.683 -0.2053  0.0782 -0.2968
13807TIP3    H162912   4.879   6.652   3.753 -0.4439  0.4044 -0.4828
13807TIP3    H262913   4.906   6.613   3.609  0.0599 -0.2912 -0.2053
13808TIP3   OH262914   5.183   6.123   0.933 -0.3959  0.2054  0.2540
13808TIP3    H162915   5.252   6.157   0.990 -1.1635 -0.0050  1.3403
13808TIP3    H262916   5.220   6.043   0.895  0.1777  0.4275  0.3261
13809TIP3   OH262917   6.301   2.487  13.166 -0.2181 -0.1380  0.4402
13809TIP3    H162918   6.335   2.398  13.175  1.7888  0.6601  1.3583
13809TIP3    H262919   6.297   2.502  13.071  0.0826 -0.9806  0.2891
13810TIP3   OH262920   2.345   5.556  13.447  0.4237 -0.1428 -0.0099
13810TIP3    H162921   2.408   5.504  13.397  1.2285 -0.1250  0.9515
13810TIP3    H262922   2.260   5.523  13.420  0.8357 -0.1984 -1.3115
13811TIP3   OH262923   6.774   5.839  12.703  0.3833 -0.0837  0.0612
13811TIP3    H162924   6.759   5.782  12.626 -0.4152 -0.6475  0.6058
13811TIP3    H262925   6.728   5.920  12.681  4.2213  1.7864 -2.1522
13812TIP3   OH262926   4.698   2.508  15.673  0.2615 -0.4245 -0.0897
13812TIP3    H162927   4.645   2.435  15.641  0.3600 -1.2618  1.5865
13812TIP3    H262928   4.781   2.469  15.698  0.3281  0.2624  0.8108
13813TIP3   OH262929   2.134   4.390  15.504  0.2182 -0.2005 -0.0252
13813TIP3    H162930   2.167   4.313  15.552 -1.9478 -0.8966  0.4695
13813TIP3    H262931   2.078   4.435  15.568 -1.4297 -0.2440 -1.3784
13814TIP3   OH262932   4.956   5.269   2.546  0.1553 -0.0790 -0.6985
13814TIP3    H162933   4.929   5.298   2.459  0.7876 -2.5919 -1.8232
13814TIP3    H262934   5.050   5.287   2.549 -0.2734  2.4106  0.5743
13815TIP3   OH262935   4.028   1.580  11.295  0.0694  0.2966  0.0716
13815TIP3    H162936   4.049   1.574  11.201 -0.0571  1.8771 -0.0823
13815TIP3    H262937   3.958   1.644  11.300  1.3529  1.6848  1.4021
13816TIP3   OH262938   1.742   2.598   0.098 -0.0614 -0.8084 -0.5451
13816TIP3    H162939   1.677   2.570   0.161  0.7344  0.6819  1.0329
13816TIP3    H262940   1.707   2.679   0.061  0.6837 -0.2128  0.0187
13817TIP3   OH262941   0.137   1.432  15.088 -0.2155  0.4914  0.0572
13817TIP3    H162942   0.090   1.348  15.092 -0.0337  0.3818 -0.0790
13817TIP3    H262943   0.213   1.419  15.145 -0.2041  0.5740  0.0606
13818TIP3   OH262944   4.650   1.993  16.745  0.3074 -0.3489 -0.0367
13818TIP3    H162945   4.690   2.077  16.722  0.2893 -0.6287 -1.1134
13818TIP3    H262946   4.636   1.949  16.662 -2.2545 -0.2681  0.2851
13819TIP3   OH262947   1.532   5.235   3.885 -0.4055 -0.2663 -0.1600
13819TIP3    H162948   1.523   5.148   3.844 -1.8775 -0.0746 -0.3014
13819TIP3    H262949   1.547   5.294   3.811  1.1607 -0.4536 -0.0144
13820TIP3   OH262950   3.354   0.590   1.206  0.1173 -0.4636  0.1110
13820TIP3    H162951   3.372   0.498   1.183  0.4458 -0.5917  0.8627
13820TIP3    H262952   3.264   0.605   1.175  0.0435 -1.0535  0.0260
13821TIP3   OH262953   5.176   2.792   0.825 -0.2710  0.2407  0.4357
13821TIP3    H162954   5.149   2.866   0.772 -0.4861  0.4973  0.8951
13821TIP3    H262955   5.098   2.768   0.876  0.2450  0.7673  1.5132
13822TIP3   OH262956   4.950   5.893   2.136 -0.3049 -0.1555  0.1871
13822TIP3    H162957   4.920   5.829   2.201 -1.2957  1.4346  1.3743
13822TIP3    H262958   4.897   5.873   2.058 -0.5970 -0.7785  0.5323
13823TIP3   OH262959   6.577   1.913  11.918 -0.0458  0.5954 -0.0658
13823TIP3    H162960   6.517   1.945  11.850  0.2911  0.6415 -0.3404
13823TIP3    H262961   6.621   1.838  11.878  1.1631  1.4527 -0.4108
13824TIP3   OH262962   5.140   0.577  16.782 -0.0720  0.0130 -0.5615
13824TIP3    H162963   5.192   0.592  16.703 -0.6738 -1.4225 -1.2656
13824TIP3    H262964   5.159   0.486  16.807  0.6382  0.6245  1.3734
13825TIP3   OH262965   3.208   6.688  15.079  0.1861  0.1359  0.1984
13825TIP3    H162966   3.241   6.763  15.029 -1.0381 -0.5420 -1.7270
13825TIP3    H262967   3.142   6.648  15.022 -1.7701 -0.3237  2.6281
13826TIP3   OH262968   1.995   4.535   2.317  0.1625  0.1621  0.0575
13826TIP3    H162969   1.939   4.600   2.361  0.0166 -1.2579  2.1092
13826TIP3    H262970   2.005   4.465   2.381 -0.8462 -2.5536 -2.5310
13827TIP3   OH262971   6.347   6.828  15.848  0.0589  0.5051 -0.0169
13827TIP3    H162972   6.258   6.793  15.854  0.8400 -1.7670 -0.7005
13827TIP3    H262973   6.402   6.751  15.839  2.0085  1.9233 -0.8115
13828TIP3   OH262974   4.088   0.327   5.003  0.0517 -0.4495 -0.1468
13828TIP3    H162975   4.097   0.400   4.942  0.8890  0.3874  0.9446
13828TIP3    H262976   4.007   0.282   4.975 -0.4622  0.8621 -0.8469
13829TIP3   OH262977   1.180   0.633   2.029  0.4854  0.2801 -0.0168
13829TIP3    H162978   1.153   0.713   2.074  1.9558 -0.0323  1.5079
13829TIP3    H262979   1.161   0.563   2.091  0.5226 -0.4107 -0.7691
13830TIP3   OH262980   4.707   2.733  12.883  0.6443  0.0644 -0.0864
13830TIP3    H162981   4.790   2.774  12.907 -0.2365  1.0142  1.4516
13830TIP3    H262982   4.689   2.672  12.954  1.0909 -1.8327 -1.5093
13831TIP3   OH262983   3.724   3.823   5.328  0.2957  0.1445  0.9695
13831TIP3    H162984   3.723   3.895   5.264  2.4759  0.4461  1.1993
13831TIP3    H262985   3.690   3.862   5.408  2.0734  1.1654  1.2741
13832TIP3   OH262986   2.098   2.208  13.550  0.4485  0.0032  0.2843
13832TIP3    H162987   2.047   2.289  13.553 -1.6823 -1.2887  1.4217
13832TIP3    H262988   2.181   2.229  13.593  0.9618  2.1677 -1.5764
13833TIP3   OH262989   2.957   4.441  12.994  0.3576  0.2002  0.1378
13833TIP3    H162990   3.002   4.520  13.025 -0.6275  0.6777  0.3705
13833TIP3    H262991   2.871   4.472  12.966  0.7476 -0.4095 -1.9241
13834TIP3   OH262992   0.231   1.303  15.480  0.1803 -0.0623  0.3187
13834TIP3    H162993   0.242   1.341  15.393 -1.8289 -0.2096 -0.0419
13834TIP3    H262994   0.181   1.368  15.529 -1.2860 -1.2065  0.4079
13835TIP3   OH262995   0.050   4.065   5.237  0.0637  0.7023 -0.2696
13835TIP3    H162996  -0.037   4.082   5.201 -0.4665 -1.3139 -0.0329
13835TIP3    H262997   0.039   4.074   5.332  0.2315  0.9011 -0.2674
13836TIP3   OH262998   1.441   4.323  10.889 -0.0687 -0.6183  0.3899
13836TIP3    H162999   1.428   4.289  10.801 -1.9484 -1.0530  0.7859
13836TIP3    H263000   1.474   4.412  10.877 -1.5426 -0.2122 -0.7710
13837TIP3   OH263001   4.451   1.432  13.431 -0.3925  0.1914 -0.0563
13837TIP3    H163002   4.396   1.409  13.506 -0.4922 -0.0127 -0.1907
13837TIP3    H263003   4.389   1.443  13.358 -0.3207  0.6437 -0.0496
13838TIP3   OH263004   5.705   1.462   5.206 -0.2993  0.4049  0.2472
13838TIP3    H163005   5.793   1.500   5.200  0.7852 -1.8846  0.6761
13838TIP3    H263006   5.655   1.526   5.258  1.4600  1.1737  1.0685
13839TIP3   OH263007   2.428   3.566  11.493 -0.6962 -0.8747  0.4683
13839TIP3    H163008   2.371   3.543  11.419  0.7051 -0.6653 -0.7118
13839TIP3    H263009   2.395   3.652  11.521  0.1777  0.1504 -1.4431
13840TIP3   OH263010   4.335   6.275   3.039  0.0919 -0.2789 -1.1951
13840TIP3    H163011   4.286   6.288   3.121 -0.0704 -2.1832 -0.9504
13840TIP3    H263012   4.398   6.206   3.059  0.2803 -0.5386 -2.5849
13841TIP3   OH263013   1.107   3.169   5.333 -0.2176 -0.4023 -0.0190
13841TIP3    H163014   1.127   3.185   5.241 -0.9938  1.7127  0.1342
13841TIP3    H263015   1.040   3.100   5.330 -0.6515  0.0331 -1.0822
13842TIP3   OH263016   2.345   3.447   3.621  0.9237 -0.5175 -0.5078
13842TIP3    H163017   2.282   3.515   3.598 -2.0910 -2.4432  1.4271
13842TIP3    H263018   2.345   3.387   3.547  0.8195 -0.3011 -0.6831
13843TIP3   OH263019   2.379   2.001   3.233 -0.5768 -0.3845 -0.4812
13843TIP3    H163020   2.440   2.072   3.254  0.1280 -0.3585 -2.4151
13843TIP3    H263021   2.303   2.018   3.288 -0.2831  1.6635 -0.6335
13844TIP3   OH263022   4.577   4.825   0.184 -0.1066 -0.4420 -0.2806
13844TIP3    H163023   4.554   4.835   0.276 -0.1324  0.5380 -0.3849
13844TIP3    H263024   4.641   4.754   0.182  0.4429  0.0228  0.5732
13845TIP3   OH263025   5.600   3.291  16.561 -0.7616 -0.2807 -0.0775
13845TIP3    H163026   5.540   3.357  16.526  0.2470  0.5432 -0.2922
13845TIP3    H263027   5.621   3.323  16.649  1.5930  1.0239 -1.0230
13846TIP3   OH263028   1.525   6.439  13.341 -0.0757 -0.0474 -0.3323
13846TIP3    H163029   1.570   6.516  13.377 -0.5936  1.1518 -2.1012
13846TIP3    H263030   1.446   6.431  13.393  0.1007  0.4895  0.0249
13847TIP3   OH263031   5.197   1.658  10.712 -0.1769 -0.0413 -0.3585
13847TIP3    H163032   5.159   1.724  10.771 -0.1741  0.8328 -1.3154
13847TIP3    H263033   5.142   1.581  10.726 -0.3327  0.2209  0.6050
13848TIP3   OH263034   6.132   4.028   3.112  0.0622  0.1327 -0.1568
13848TIP3    H163035   6.220   4.062   3.128  0.0370 -0.3313  1.1416
13848TIP3    H263036   6.075   4.105   3.119  0.3502  0.4161 -0.8963
13849TIP3   OH263037   2.718   0.636  12.254 -0.2994  0.1799  0.2739
13849TIP3    H163038   2.791   0.583  12.223  1.0921  1.6226  0.9244
13849TIP3    H263039   2.721   0.628  12.350 -0.4991  0.8770  0.3473
13850TIP3   OH263040   5.497   2.856   5.813 -0.1861 -0.1488 -0.1320
13850TIP3    H163041   5.571   2.806   5.780  1.8610  1.4783  1.6930
13850TIP3    H263042   5.468   2.907   5.737 -0.5805 -2.0053 -1.3010
13851TIP3   OH263043   3.094   0.832   4.945  0.1093  0.7784  0.1823
13851TIP3    H163044   3.129   0.789   5.023 -3.5857 -0.2770  1.4435
13851TIP3    H263045   3.059   0.915   4.977 -0.7362  0.6945 -0.4882
13852TIP3   OH263046   5.028   6.189  13.032  0.1030  0.5640  0.0138
13852TIP3    H163047   4.943   6.162  13.067 -0.2607  0.4503 -0.9092
13852TIP3    H263048   5.088   6.185  13.106 -0.6720  0.5145  0.6468
13853TIP3   OH263049   3.922   1.426  14.194  0.4103  0.2493 -0.0277
13853TIP3    H163050   3.973   1.442  14.274 -0.7988 -1.1065  1.0728
13853TIP3    H263051   3.837   1.467  14.211 -0.6186 -1.8991  0.3585
13854TIP3   OH263052   1.668   1.851  15.364 -0.6480 -0.1638 -0.2046
13854TIP3    H163053   1.760   1.870  15.350 -0.1904 -2.5153 -0.8975
13854TIP3    H263054   1.655   1.765  15.324 -2.5475 -1.0237  1.9941
13855TIP3   OH263055   2.120   0.075   1.347 -0.0234  0.7368 -0.0504
13855TIP3    H163056   2.027   0.099   1.352 -1.0492 -2.6389 -0.2840
13855TIP3    H263057   2.127   0.024   1.267  1.5480 -0.8847  1.0567
13856TIP3   OH263058   2.984   0.801   1.859  0.1079 -0.2916 -0.5177
13856TIP3    H163059   2.894   0.775   1.874 -0.4292  1.1627 -1.0483
13856TIP3    H263060   2.978   0.889   1.821  1.7525 -0.0682 -0.3414
13857TIP3   OH263061   3.835   1.232   3.832  0.1143  0.0118 -0.0466
13857TIP3    H163062   3.856   1.200   3.920 -0.0384  0.1312  0.0321
13857TIP3    H263063   3.817   1.325   3.843  0.7425  0.1741 -0.3082
13858TIP3   OH263064   2.145   5.494   1.879  0.3742  0.7837 -0.0320
13858TIP3    H163065   2.086   5.569   1.878 -0.5554  0.1042 -2.4333
13858TIP3    H263066   2.106   5.432   1.818  1.3616 -1.5032  1.5359
13859TIP3   OH263067   0.217   1.767  12.686  0.2253  0.5989 -0.1351
13859TIP3    H163068   0.271   1.835  12.646  1.0079 -0.5107 -1.0457
13859TIP3    H263069   0.268   1.687  12.675 -0.4039 -0.0504  1.4476
13860TIP3   OH263070   1.564   2.893   5.626  0.3045 -0.1636  0.6631
13860TIP3    H163071   1.637   2.894   5.688  1.0767  0.2789 -0.2270
13860TIP3    H263072   1.517   2.975   5.643  0.6909  0.1028  0.4706
13861TIP3   OH263073   4.237   5.512  11.774 -0.4811 -0.2894  0.2598
13861TIP3    H163074   4.226   5.480  11.684  0.3731  1.1131 -0.3861
13861TIP3    H263075   4.285   5.443  11.819 -3.1741 -2.2049  0.4252
13862TIP3   OH263076   0.528   6.064   5.290 -0.5457  0.1433 -0.1884
13862TIP3    H163077   0.527   6.004   5.215  0.7971 -2.4189  1.6606
13862TIP3    H263078   0.617   6.097   5.293 -0.0775 -1.1304  1.1812
13863TIP3   OH263079   4.164   2.590  11.144  0.2699  0.3915 -0.2170
13863TIP3    H163080   4.075   2.557  11.151  0.1230  0.5194 -1.3038
13863TIP3    H263081   4.194   2.600  11.235 -0.9546  0.7125  0.1614
13864TIP3   OH263082   3.453   6.572   3.981  0.2591  0.7700  0.1769
13864TIP3    H163083   3.475   6.549   3.890  1.5269  3.2875 -0.2423
13864TIP3    H263084   3.373   6.623   3.974 -0.3502 -0.0989  0.6490
13865TIP3   OH263085   0.873   4.849  15.423 -0.3685  0.2330  0.5571
13865TIP3    H163086   0.926   4.914  15.469 -0.6371 -0.3708  1.7839
13865TIP3    H263087   0.784   4.885  15.425 -0.0117  1.4274 -1.8384
13866TIP3   OH263088   1.742   5.768   5.371 -0.2316 -0.1606 -0.2019
13866TIP3    H163089   1.830   5.798   5.391  0.4551 -1.4087 -1.1709
13866TIP3    H263090   1.684   5.837   5.403  0.9106 -0.4514  2.8052
13867TIP3   OH263091   5.687   3.816  15.954 -0.5870  0.3674  0.1090
13867TIP3    H163092   5.639   3.869  16.018 -0.6746 -1.3984  1.5950
13867TIP3    H263093   5.773   3.803  15.993  0.8508  2.5902 -2.0418
13868TIP3   OH263094   5.902   6.146  13.347 -0.5173 -0.2821  0.3629
13868TIP3    H163095   5.834   6.203  13.311 -0.0805  0.4634  0.6953
13868TIP3    H263096   5.911   6.175  13.438 -0.7928 -1.3614  0.7515
13869TIP3   OH263097   0.704   0.100   1.326  0.4712 -0.1874  0.4614
13869TIP3    H163098   0.705   0.015   1.283  0.5068  1.3184 -2.8327
13869TIP3    H263099   0.612   0.126   1.328  0.7064  1.0188 -1.6369
13870TIP3   OH263100   6.826   0.015   0.344  0.1229  0.1537  0.0433
13870TIP3    H163101   6.732   0.030   0.353 -0.3911 -2.1374 -0.7615
13870TIP3    H263102   6.848   0.052   0.259 -0.2570 -0.1211 -0.1778
13871TIP3   OH263103   4.464   0.180  15.062  0.2738  0.0941 -0.4367
13871TIP3    H163104   4.478   0.274  15.052  1.0675  0.1998  1.2714
13871TIP3    H263105   4.374   0.172  15.091  0.3035  0.3466 -0.2727
13872TIP3   OH263106   1.429   1.218   1.658  0.4894  0.1167 -0.1518
13872TIP3    H163107   1.419   1.136   1.610  0.3982 -0.7990  1.3547
13872TIP3    H263108   1.523   1.226   1.671  0.4947  0.2225 -0.2582
13873TIP3   OH263109   6.569   0.703   4.843  0.2179  0.3249 -0.0371
13873TIP3    H163110   6.481   0.670   4.826  1.2238 -2.7118  0.0659
13873TIP3    H263111   6.568   0.728   4.935 -1.0281  2.3699 -0.5257
13874TIP3   OH263112   1.752   4.408   1.440  0.4276 -0.3288  0.6273
13874TIP3    H163113   1.806   4.336   1.408 -1.2884 -1.3516 -0.1220
13874TIP3    H263114   1.716   4.376   1.523 -0.8384 -0.6222 -0.0139
13875TIP3   OH263115   4.372   6.579  14.942  0.1501 -0.5313  0.9108
13875TIP3    H163116   4.308   6.625  14.996 -1.1723 -0.9096 -0.2628
13875TIP3    H263117   4.360   6.487  14.964  0.1028 -0.6237  0.5072
13876TIP3   OH263118   5.495   6.006  17.154 -0.1161 -0.1011  0.8994
13876TIP3    H163119   5.459   6.093  17.172 -0.7043 -0.4908  1.6766
13876TIP3    H263120   5.465   5.986  17.065 -1.4748 -0.2176  1.3558
13877TIP3   OH263121   4.732   3.029   4.109  0.2307 -0.1514 -0.0854
13877TIP3    H163122   4.670   3.089   4.067  0.6932  1.0060  0.8250
13877TIP3    H263123   4.688   3.002   4.190  1.0806  1.1188  0.8496
13878TIP3   OH263124   0.263   3.854  13.708 -0.2187  0.0291  0.4087
13878TIP3    H163125   0.257   3.758  13.711  0.2573 -0.0122  0.1498
13878TIP3    H263126   0.183   3.881  13.664 -0.7059 -0.1988  1.1293
13879TIP3   OH263127   6.338   2.408  15.230 -0.1102  0.1221 -0.0900
13879TIP3    H163128   6.363   2.401  15.138  0.6382  0.1981  0.0991
13879TIP3    H263129   6.243   2.397  15.230 -0.0102 -0.9018 -0.7656
13880TIP3   OH263130   3.691   2.911   5.584  0.0602 -0.1603  0.0007
13880TIP3    H163131   3.667   2.877   5.671 -0.9126  2.8902  1.0607
13880TIP3    H263132   3.610   2.911   5.534  0.2897 -0.4757 -0.3734
13881TIP3   OH263133   3.595   5.489   4.697  0.5932 -0.0830  0.5978
13881TIP3    H163134   3.609   5.515   4.606  0.0906 -0.2039  0.4817
13881TIP3    H263135   3.663   5.534   4.746 -0.3257  1.5556  0.4314
13882TIP3   OH263136   4.430   2.272   4.796  0.2753  0.2655 -0.2605
13882TIP3    H163137   4.522   2.254   4.815 -0.2678 -1.9717  0.5425
13882TIP3    H263138   4.431   2.313   4.709  2.0609  1.0250  0.0864
13883TIP3   OH263139   4.055   2.861  14.394  0.1281  0.2879  0.2399
13883TIP3    H163140   4.148   2.851  14.371  0.6937  0.0881  2.3978
13883TIP3    H263141   4.025   2.933  14.337  1.6844  0.5893 -0.2765
13884TIP3   OH263142   1.649   5.352   4.445 -0.5173  0.1038  0.1615
13884TIP3    H163143   1.674   5.432   4.493 -2.4997  0.4778  0.6559
13884TIP3    H263144   1.662   5.374   4.353 -0.6710  0.8676  0.3171
13885TIP3   OH263145   6.176   4.493  14.292 -0.3773  0.4629  0.2222
13885TIP3    H163146   6.162   4.541  14.373  0.8231  1.0657  0.0970
13885TIP3    H263147   6.259   4.527  14.258 -1.3999  1.0703 -1.8413
13886TIP3   OH263148   3.763   3.530  12.475  0.3239 -0.5073  0.1354
13886TIP3    H163149   3.697   3.591  12.508  0.4786  0.0773 -0.6087
13886TIP3    H263150   3.768   3.549  12.381  0.1850 -1.8531 -0.1554
13887TIP3   OH263151   2.187   6.458   3.077  0.8164  0.5510 -0.2455
13887TIP3    H163152   2.268   6.450   3.026  0.1007 -3.3980 -1.0971
13887TIP3    H263153   2.119   6.476   3.012  0.4878 -0.1038 -0.0889
13888TIP3   OH263154   1.923   5.759   0.858  0.3578 -0.1553  0.3900
13888TIP3    H163155   1.967   5.790   0.937 -2.7481  0.2277  2.1228
13888TIP3    H263156   1.873   5.683   0.886 -1.9491  0.8325 -0.7803
13889TIP3   OH263157   0.612   0.172  14.850 -0.1621  0.1943 -0.3203
13889TIP3    H163158   0.626   0.182  14.756 -3.9433 -0.4490 -1.1005
13889TIP3    H263159   0.601   0.261  14.883 -0.9362  0.3358 -0.9318
13890TIP3   OH263160   1.851   3.181   5.292  0.3786 -0.2819  0.3163
13890TIP3    H163161   1.789   3.253   5.305  0.4417 -0.1946  0.1500
13890TIP3    H263162   1.800   3.102   5.308 -0.2003 -0.2807 -1.3328
13891TIP3   OH263163   1.102   5.797   5.531 -0.4617  0.1821  0.6625
13891TIP3    H163164   1.087   5.711   5.572  1.5353 -1.6674 -2.0412
13891TIP3    H263165   1.190   5.821   5.561 -0.2706  0.3574 -0.0425
13892TIP3   OH263166   4.365   0.721   1.260 -0.4081 -0.5944 -0.6223
13892TIP3    H163167   4.278   0.748   1.230 -0.9141 -0.1784  1.0767
13892TIP3    H263168   4.423   0.793   1.235 -1.1185  0.5226  0.7807
13893TIP3   OH263169   0.940   2.739   4.467  0.5380  0.1388  0.4346
13893TIP3    H163170   0.997   2.720   4.541  0.9266  1.0788  0.3989
13893TIP3    H263171   0.954   2.666   4.406  1.4026  0.1502  0.6037
13894TIP3   OH263172   0.939   6.429   1.061 -0.2645  0.1777  0.4352
13894TIP3    H163173   0.914   6.353   1.113  1.0420 -1.2417 -0.8890
13894TIP3    H263174   1.011   6.469   1.109  0.5225 -0.7562  0.0508
13895TIP3   OH263175   3.274   4.344   0.587 -0.2515 -0.2093  0.0736
13895TIP3    H163176   3.234   4.430   0.600 -2.0778 -0.3240 -3.5213
13895TIP3    H263177   3.201   4.282   0.597  0.5521 -1.1357  0.3284
13896TIP3   OH263178   6.171   0.930  12.145 -0.5196  0.7954 -0.4130
13896TIP3    H163179   6.143   0.944  12.235  0.4413 -3.2717  0.7006
13896TIP3    H263180   6.264   0.954  12.145 -0.6359  1.2542 -0.4712
13897TIP3   OH263181   4.211   5.072  14.600  0.4761  0.7966 -0.4760
13897TIP3    H163182   4.223   5.016  14.524 -0.0306  1.3464 -0.9714
13897TIP3    H263183   4.217   5.013  14.675 -2.5897 -0.3905 -1.0420
13898TIP3   OH263184   6.761   3.672  16.888 -0.1869 -0.5090  0.8411
13898TIP3    H163185   6.705   3.628  16.953 -0.8735 -0.1129  0.5221
13898TIP3    H263186   6.717   3.659  16.805  0.2314 -0.2417  0.5720
13899TIP3   OH263187   1.477   0.470  13.883  0.3396  0.1778  0.7189
13899TIP3    H163188   1.471   0.382  13.846  0.6531  0.4310  0.0376
13899TIP3    H263189   1.571   0.490  13.881  0.4647 -0.1192  2.4344
13900TIP3   OH263190   4.672   0.106   5.043 -0.3179 -0.1920  0.1513
13900TIP3    H163191   4.746   0.151   5.083  0.4134 -1.2366  0.0466
13900TIP3    H263192   4.614   0.084   5.116  0.3492 -0.9008  0.4896
13901TIP3   OH263193   3.463   5.411   2.576 -0.2378 -0.2505 -0.8618
13901TIP3    H163194   3.505   5.407   2.490 -0.2498  1.9615 -1.0325
13901TIP3    H263195   3.372   5.433   2.557 -0.4439 -0.6298 -0.3125
13902TIP3   OH263196   1.492   1.214   1.174 -0.1465 -0.0114 -0.1528
13902TIP3    H163197   1.404   1.181   1.191 -0.0685  0.1773  0.6497
13902TIP3    H263198   1.507   1.196   1.081 -0.7006 -0.8206 -0.0933
13903TIP3   OH263199   0.121   5.139  14.197  0.5028  0.4958 -0.0016
13903TIP3    H163200   0.191   5.077  14.218  0.3004 -0.0074 -0.7807
13903TIP3    H263201   0.157   5.193  14.127  0.3193  0.6115 -0.0073
13904TIP3   OH263202   6.171   5.236  14.171  0.1221  0.1516  0.1382
13904TIP3    H163203   6.146   5.144  14.183  0.2836 -0.0917 -1.2746
13904TIP3    H263204   6.266   5.235  14.173  0.1199  0.3324  0.3657
13905TIP3   OH263205   3.237   3.944  14.523 -0.1631  0.2447 -0.3926
13905TIP3    H163206   3.310   4.004  14.505  0.3146 -0.9722 -2.9670
13905TIP3    H263207   3.164   4.002  14.545  0.6533  1.7171 -1.3552
13906TIP3   OH263208   4.112   2.318  14.396 -0.0055  0.2214 -0.2372
13906TIP3    H163209   4.163   2.336  14.475 -2.0469 -2.0428  1.7599
13906TIP3    H263210   4.026   2.358  14.413 -0.7364 -0.9778 -0.9117
13907TIP3   OH263211   1.601   0.689   2.139  0.2529 -0.0985  0.1275
13907TIP3    H163212   1.555   0.690   2.055  1.7235 -0.8139 -0.7279
13907TIP3    H263213   1.659   0.765   2.136 -0.6915  0.6935  1.1174
13908TIP3   OH263214   4.911   2.150   5.386  0.2909  0.6494  0.0710
13908TIP3    H163215   4.820   2.167   5.412 -0.5317 -2.0611 -0.7476
13908TIP3    H263216   4.903   2.109   5.300  2.2335 -0.5784  0.4328
13909TIP3   OH263217   5.082   3.322  13.420  0.2402 -0.6506  0.4508
13909TIP3    H163218   5.103   3.342  13.511 -0.6224 -4.6716  1.7498
13909TIP3    H263219   5.149   3.367  13.369 -0.2786  3.2213  2.8153
13910TIP3   OH263220   1.035   3.940   4.863  0.0263  0.2322  0.3953
13910TIP3    H163221   1.088   4.017   4.842  0.4213  0.1583  1.0755
13910TIP3    H263222   0.952   3.955   4.818 -0.5538  1.8992  1.9071
13911TIP3   OH263223   1.746   1.806   0.722  0.1063 -0.0538 -0.3188
13911TIP3    H163224   1.819   1.867   0.728 -0.6546  0.7802  0.8127
13911TIP3    H263225   1.762   1.743   0.793  0.5417 -0.8097 -1.0695
13912TIP3   OH263226   3.721   6.079   1.599  0.3501 -0.1046  0.5013
13912TIP3    H163227   3.788   6.042   1.541  2.3166  1.1856  1.8061
13912TIP3    H263228   3.724   6.024   1.677  0.9131  0.7475  1.1074
13913TIP3   OH263229   4.299   5.231   0.401  0.7589  0.4287  0.1167
13913TIP3    H163230   4.269   5.313   0.363 -0.5998 -0.1545 -0.1107
13913TIP3    H263231   4.276   5.237   0.493 -1.3065 -0.5202 -0.2789
13914TIP3   OH263232   1.131   3.898  14.125 -0.1375 -0.4706  0.1775
13914TIP3    H163233   1.219   3.929  14.145 -0.8989  0.7050  1.8746
13914TIP3    H263234   1.106   3.947  14.046  1.4561 -2.3650 -1.6293
13915TIP3   OH263235   3.885   2.719  13.106  0.4972 -0.0847 -0.2203
13915TIP3    H163236   3.896   2.631  13.143 -0.4166  0.1835  0.7361
13915TIP3    H263237   3.969   2.738  13.064  0.1833 -2.0904 -1.9368
13916TIP3   OH263238   4.469   3.992  13.898  0.2866 -0.4029 -0.5555
13916TIP3    H163239   4.453   3.904  13.864  0.3890 -1.0852  1.0768
13916TIP3    H263240   4.548   4.021  13.851  1.2732 -1.8899  0.1109
13917TIP3   OH263241   1.742   5.702  11.969  0.4912 -0.2866 -0.1316
13917TIP3    H163242   1.665   5.699  11.912  1.4364  1.2672 -1.5890
13917TIP3    H263243   1.764   5.611  11.985 -0.3743 -0.7682 -1.4939
13918TIP3   OH263244   4.768   5.352   3.726  0.1105  0.3164 -0.2839
13918TIP3    H163245   4.763   5.288   3.797 -1.2479 -0.8746 -1.3916
13918TIP3    H263246   4.861   5.356   3.703  0.6296  1.0159  1.7774
13919TIP3   OH263247   1.179   1.333   0.323 -0.2936  0.2634  0.2625
13919TIP3    H163248   1.208   1.348   0.413  0.7385  1.5582 -0.2626
13919TIP3    H263249   1.162   1.239   0.319  3.4723 -0.5836  0.7599
13920TIP3   OH263250   2.487   2.216  11.732 -0.4065 -0.3457  0.6637
13920TIP3    H163251   2.400   2.180  11.714 -0.2054 -1.6154  1.9922
13920TIP3    H263252   2.472   2.310  11.747 -1.3975 -0.3809 -0.0258
13921TIP3   OH263253   0.212   4.145  13.017  0.1522  0.2998 -0.4389
13921TIP3    H163254   0.241   4.236  13.019  0.4408  0.2310 -1.4132
13921TIP3    H263255   0.162   4.134  13.099  0.9739  1.0338  0.1734
13922TIP3   OH263256   2.907   6.555   5.640 -0.4023 -0.4800 -0.0736
13922TIP3    H163257   2.951   6.471   5.656  0.0953 -0.3783 -0.8513
13922TIP3    H263258   2.816   6.539   5.664 -0.7978 -1.9177 -2.2249
13923TIP3   OH263259   1.174   1.299   3.342 -0.6322  0.2975 -0.2626
13923TIP3    H163260   1.133   1.361   3.281 -0.1309  0.0605 -0.8561
13923TIP3    H263261   1.208   1.354   3.413  2.8081  1.2111 -2.3795
13924TIP3   OH263262   2.059   3.934  12.878 -0.5313  0.2960 -0.0347
13924TIP3    H163263   2.091   3.955  12.966 -0.1174 -0.2367 -0.0560
13924TIP3    H263264   2.101   3.851  12.855 -1.0662  0.1433 -0.5135
13925TIP3   OH263265   6.580   3.497   5.727 -0.3700 -0.3906 -0.2200
13925TIP3    H163266   6.608   3.535   5.643 -0.9065 -0.1395 -0.2850
13925TIP3    H263267   6.658   3.451   5.759  0.1216  0.3055 -0.4017
13926TIP3   OH263268   5.981   6.503   2.497 -0.1774  0.0923 -0.6245
13926TIP3    H163269   5.915   6.434   2.505 -0.0664  0.0862  0.4095
13926TIP3    H263270   6.064   6.455   2.492 -0.1128  0.1476 -0.0770
13927TIP3   OH263271   4.321   3.764  13.680 -0.2304 -0.0021  0.1743
13927TIP3    H163272   4.280   3.818  13.611  0.1606 -0.2807 -0.2817
13927TIP3    H263273   4.391   3.717  13.635  0.6648  0.5458  0.9798
13928TIP3   OH263274   2.276   0.796   1.957  0.0114  1.1553  0.9360
13928TIP3    H163275   2.199   0.792   1.902  1.3358  0.6400 -0.9756
13928TIP3    H263276   2.324   0.874   1.927  0.6304  1.0290  1.5541
13929TIP3   OH263277   1.417   2.613  14.535  0.5935  0.2244  0.0106
13929TIP3    H163278   1.369   2.696  14.534  0.3112  0.0543 -0.5736
13929TIP3    H263279   1.484   2.622  14.468  0.3985 -0.1159 -0.2333
13930TIP3   OH263280   2.620   3.185   4.854 -0.8633 -0.5662 -0.1253
13930TIP3    H163281   2.583   3.236   4.782  0.3873 -0.1305 -0.4865
13930TIP3    H263282   2.713   3.176   4.831 -0.9224 -2.4857  0.2192
13931TIP3   OH263283   4.015   4.190  11.936  0.3064  0.3713  0.2280
13931TIP3    H163284   4.068   4.189  12.015  0.0052  0.9023  0.4383
13931TIP3    H263285   3.964   4.271  11.942 -1.3279 -0.6439  0.5601
13932TIP3   OH263286   4.954   1.594  12.842 -0.0302  0.5082 -0.5604
13932TIP3    H163287   5.042   1.592  12.879 -0.3513 -0.3238  0.1921
13932TIP3    H263288   4.896   1.609  12.917 -0.5429  1.0314 -1.0444
13933TIP3   OH263289   6.150   2.228   2.569  0.0226 -0.6911  0.0286
13933TIP3    H163290   6.056   2.217   2.586  0.1489 -0.7556  0.7245
13933TIP3    H263291   6.165   2.321   2.581  0.0002 -0.6385 -0.3451
13934TIP3   OH263292   5.667   1.752  13.133  0.1014 -0.0158  0.2168
13934TIP3    H163293   5.645   1.731  13.224  1.5251 -1.0670  0.3703
13934TIP3    H263294   5.735   1.820  13.141  1.3994 -1.2464  0.0432
13935TIP3   OH263295   1.655   0.826   3.777 -0.0548  0.0759 -0.0174
13935TIP3    H163296   1.731   0.786   3.819 -0.4520 -0.4796  0.1793
13935TIP3    H263297   1.652   0.915   3.812 -0.7974 -0.5863  1.7121
13936TIP3   OH263298   4.683   1.204  14.556  0.0061 -0.0832 -0.1941
13936TIP3    H163299   4.762   1.257  14.549  0.2826 -0.4792 -0.1120
13936TIP3    H263300   4.632   1.246  14.626  0.1389  0.1765 -0.2525
13937TIP3   OH263301   3.037   0.905  12.609 -0.0887 -0.0841  0.4477
13937TIP3    H163302   3.069   0.943  12.527 -1.1389 -0.1880 -0.0241
13937TIP3    H263303   3.023   0.813  12.588 -1.1881  0.0656  0.4802
13938TIP3   OH263304   5.298   5.923  13.310  0.6320  0.7471  0.7792
13938TIP3    H163305   5.384   5.921  13.351 -0.0312  0.4989  2.2018
13938TIP3    H263306   5.238   5.889  13.377 -0.6579  1.4842  0.0383
13939TIP3   OH263307   5.420   3.987  12.881  0.2092  0.0855  0.1393
13939TIP3    H163308   5.496   3.984  12.939 -1.3277 -4.1643  2.4194
13939TIP3    H263309   5.359   4.047  12.923  1.5641  2.2126 -0.8086
13940TIP3   OH263310   4.026   0.998   1.445  0.2479 -0.5542  0.1494
13940TIP3    H163311   4.055   1.067   1.505  0.7039 -0.6402  0.0370
13940TIP3    H263312   4.107   0.950   1.424  0.0412 -0.7106 -0.2950
13941TIP3   OH263313   4.633   1.526   4.155  0.2818  0.2906 -0.2217
13941TIP3    H163314   4.571   1.470   4.201 -0.2344  1.1860  0.1912
13941TIP3    H263315   4.683   1.466   4.099  2.9181 -1.3752  3.4694
13942TIP3   OH263316   5.948   5.632   1.212 -0.4748 -0.1090 -0.5530
13942TIP3    H163317   6.018   5.632   1.277 -0.6636  0.7142 -0.3463
13942TIP3    H263318   5.885   5.696   1.244 -1.1067 -0.5038 -0.9787
13943TIP3   OH263319   6.274   1.209  15.674 -0.1091 -0.1859  0.3125
13943TIP3    H163320   6.278   1.121  15.638  0.0858 -0.7427  1.6598
13943TIP3    H263321   6.289   1.267  15.599  0.2192 -1.3022 -0.4933
13944TIP3   OH263322   2.737   1.320   5.612 -0.2383  0.0789 -0.1935
13944TIP3    H163323   2.815   1.265   5.613  0.8779  1.5786 -1.4143
13944TIP3    H263324   2.764   1.400   5.568 -2.1135  1.1872  0.5493
13945TIP3   OH263325   0.548   1.228  15.542  0.1449  0.0303 -0.0884
13945TIP3    H163326   0.545   1.257  15.633  1.0660  2.8965 -0.8643
13945TIP3    H263327   0.459   1.239  15.510  0.0355 -0.0140  0.1986
13946TIP3   OH263328   1.865   5.597  15.506 -0.0850  0.4371 -0.1366
13946TIP3    H163329   1.921   5.674  15.516 -0.0856  0.6022 -1.2720
13946TIP3    H263330   1.809   5.598  15.583  0.7795  0.8536  0.5039
13947TIP3   OH263331   4.539   2.983  13.924 -0.9880  0.2301 -0.4650
13947TIP3    H163332   4.600   3.049  13.892 -0.3426 -0.2114 -0.1644
13947TIP3    H263333   4.464   2.989  13.864 -1.5157  2.0886  0.2929
13948TIP3   OH263334   3.763   4.008  10.290 -0.3796 -0.1484 -0.3669
13948TIP3    H163335   3.763   4.102  10.311 -0.4809 -0.2967  0.3168
13948TIP3    H263336   3.819   3.968  10.356  0.9705 -0.3830 -1.6007
13949TIP3   OH263337   2.501   4.269   2.823 -0.1143  0.0511 -0.3220
13949TIP3    H163338   2.448   4.191   2.839  0.6683 -0.4731 -0.2355
13949TIP3    H263339   2.439   4.341   2.826 -0.5559 -0.3724  1.4969
13950TIP3   OH263340   1.036   1.121  16.100  0.6984  0.4172 -0.1207
13950TIP3    H163341   0.954   1.167  16.113  0.8429  0.7200 -0.2831
13950TIP3    H263342   1.092   1.183  16.052  1.1138  0.3152  0.2284
13951TIP3   OH263343   6.015   5.495   6.005 -0.0775 -0.2139 -0.1208
13951TIP3    H163344   6.008   5.418   6.062 -0.2248  0.8620  1.3759
13951TIP3    H263345   5.954   5.478   5.934 -2.1205 -0.3447  1.5720
13952TIP3   OH263346   1.420   2.323   5.693 -0.1702 -0.1663 -0.3890
13952TIP3    H163347   1.397   2.332   5.786 -0.7672  1.2539 -0.6410
13952TIP3    H263348   1.364   2.251   5.662 -0.8029  0.0963  0.1008
13953TIP3   OH263349   5.748   0.634   3.519  0.2222  0.2206 -0.2490
13953TIP3    H163350   5.806   0.576   3.568 -2.4432 -1.1859  1.4637
13953TIP3    H263351   5.741   0.712   3.573  0.3679  0.3122 -0.3619
13954TIP3   OH263352   1.102   6.601   5.615  0.5578  0.4483 -0.1764
13954TIP3    H163353   1.183   6.634   5.652 -0.2492  1.6705  0.5685
13954TIP3    H263354   1.120   6.594   5.521  0.9626  2.5185 -0.2960
13955TIP3   OH263355   2.453   3.363  16.214 -0.3112 -0.8973  0.2458
13955TIP3    H163356   2.432   3.415  16.292 -2.9454  0.4753 -1.2152
13955TIP3    H263357   2.370   3.322  16.189  0.8053 -2.5406 -1.0033
13956TIP3   OH263358   2.146   1.961  15.907 -0.0364 -0.3471 -0.3705
13956TIP3    H163359   2.192   1.884  15.939  0.0718  0.0500  0.4755
13956TIP3    H263360   2.054   1.946  15.931  0.2650  0.6719  1.7155
13957TIP3   OH263361   0.216   1.115  15.247 -0.2732 -0.0617  0.1455
13957TIP3    H163362   0.123   1.125  15.226  0.0628  1.1466 -0.8853
13957TIP3    H263363   0.224   1.149  15.337 -0.6202  1.0934 -0.2425
13958TIP3   OH263364   0.537   6.647   3.862 -0.0822  0.0197  0.3454
13958TIP3    H163365   0.529   6.728   3.812  0.9443 -0.3811 -0.5040
13958TIP3    H263366   0.447   6.618   3.875 -0.4149  0.7533 -0.2540
13959TIP3   OH263367   3.443   6.572  16.374 -0.3684  0.0051 -0.3112
13959TIP3    H163368   3.490   6.632  16.431  0.6594 -0.2201 -0.9015
13959TIP3    H263369   3.420   6.625  16.297  2.0574 -0.7063 -1.6301
13960TIP3   OH263370   0.577   3.339  12.065 -0.3681  0.4793  0.0219
13960TIP3    H163371   0.495   3.322  12.111 -0.3536  0.6261  0.1045
13960TIP3    H263372   0.639   3.276  12.102 -0.2724  0.8119  0.4413
13961TIP3   OH263373   4.153   5.405   3.037 -0.0919 -0.1905  0.2697
13961TIP3    H163374   4.155   5.357   3.119  1.2297  0.9128  0.9313
13961TIP3    H263375   4.060   5.410   3.014 -0.2618 -4.5264 -0.8203
13962TIP3   OH263376   2.004   2.427   3.350 -0.0778 -0.1094  0.5424
13962TIP3    H163377   2.046   2.396   3.270 -0.7503  0.0928  0.1098
13962TIP3    H263378   1.966   2.349   3.389  0.3290 -0.2235  0.7211
13963TIP3   OH263379   1.558   2.314  11.364 -0.7428  0.1283 -0.2227
13963TIP3    H163380   1.569   2.292  11.271 -0.9637 -2.1855  0.2451
13963TIP3    H263381   1.542   2.230  11.407  2.4509  0.6831  2.3992
13964TIP3   OH263382   2.849   1.997   1.888 -0.0722 -0.1082 -0.3712
13964TIP3    H163383   2.805   1.986   1.804 -1.6774  1.2621  0.2499
13964TIP3    H263384   2.862   1.907   1.919 -0.9089 -0.5938 -1.3512
13965TIP3   OH263385   6.829   2.516  12.374 -0.3388  0.0023 -0.6343
13965TIP3    H163386   6.831   2.555  12.461  1.0646 -2.4538  0.5593
13965TIP3    H263387   6.902   2.558  12.327 -0.3105  0.4605 -0.1838
13966TIP3   OH263388   3.718   4.965   3.651  0.2237  0.1357 -0.7545
13966TIP3    H163389   3.762   4.882   3.670 -0.2223 -0.3099 -1.5790
13966TIP3    H263390   3.628   4.951   3.682  0.1802  0.3541 -0.7842
13967TIP3   OH263391   6.639   4.834   5.280  0.0425 -0.2251 -0.1803
13967TIP3    H163392   6.562   4.878   5.243 -0.6432 -0.7331  0.5971
13967TIP3    H263393   6.688   4.803   5.204  1.0046  2.5223 -0.8313
13968TIP3   OH263394   4.772   0.968   3.453 -0.4657  0.0711  0.3403
13968TIP3    H163395   4.825   0.950   3.375  0.7897 -0.3748  1.2603
13968TIP3    H263396   4.731   0.883   3.474 -0.4029  0.0685  0.4521
13969TIP3   OH263397   1.883   3.161   6.012  0.3051  0.2981  0.3964
13969TIP3    H163398   1.970   3.127   5.994 -0.2505 -0.9316 -0.0289
13969TIP3    H263399   1.831   3.084   6.034 -0.9095  0.9049 -0.2742
13970TIP3   OH263400   0.005   1.602   1.256  0.1787 -0.1463 -0.1061
13970TIP3    H163401  -0.051   1.568   1.187  0.7824 -2.3206  0.3911
13970TIP3    H263402  -0.040   1.580   1.337  0.4044  0.6478  0.2451
13971TIP3   OH263403   5.535   3.981  14.845 -0.2834  0.6241 -0.1383
13971TIP3    H163404   5.525   4.075  14.831  0.5577  0.8186  0.4680
13971TIP3    H263405   5.528   3.970  14.940 -0.8074  0.0186 -0.2437
13972TIP3   OH263406   5.162   0.532   1.446 -0.5208 -0.1050 -0.3402
13972TIP3    H163407   5.086   0.480   1.423 -0.1780 -0.9372  0.3518
13972TIP3    H263408   5.129   0.600   1.504 -1.0090  0.6350 -1.4360
13973TIP3   OH263409   2.926   0.315   2.113 -0.2127 -0.0150  0.2977
13973TIP3    H163410   3.015   0.349   2.098  0.1631 -1.4508 -1.0512
13973TIP3    H263411   2.939   0.230   2.156 -1.1433  1.4950  3.9216
13974TIP3   OH263412   3.989   1.520  11.721 -0.2785  0.0252  0.3659
13974TIP3    H163413   4.015   1.455  11.786  0.4553  0.8357  0.8944
13974TIP3    H263414   3.954   1.468  11.648  1.5841 -1.0348  0.1782
13975TIP3   OH263415   1.378   0.702  14.013  0.0442  0.0789  0.0015
13975TIP3    H163416   1.386   0.783  13.964 -0.9982  0.6055  0.6891
13975TIP3    H263417   1.391   0.633  13.947  0.3061  0.7782 -0.6930
13976TIP3   OH263418   4.298   2.024  16.645  0.0324  0.6814 -0.0270
13976TIP3    H163419   4.304   2.119  16.638 -1.1342  0.6597 -2.3511
13976TIP3    H263420   4.379   1.991  16.607 -1.0387  0.7758 -2.6029
13977TIP3   OH263421   4.243   5.384   6.072  0.0524 -0.6418 -0.0125
13977TIP3    H163422   4.228   5.454   6.008 -0.0252 -1.3402 -0.7753
13977TIP3    H263423   4.213   5.421   6.155  0.0044  0.2279 -0.4050
13978TIP3   OH263424   1.133   6.083  10.719 -0.1188  0.1565  0.2222
13978TIP3    H163425   1.227   6.096  10.707 -0.1065  0.2687  0.4432
13978TIP3    H263426   1.110   6.137  10.794 -0.2043 -0.5095  0.6866
13979TIP3   OH263427   5.088   5.656   2.691  0.6637  0.3226  0.4158
13979TIP3    H163428   5.078   5.658   2.786 -0.6703 -0.4914  0.3043
13979TIP3    H263429   5.094   5.563   2.669 -0.0170  0.4565 -0.3825
13980TIP3   OH263430   5.330   4.083  14.074 -0.1519  0.3287  0.0463
13980TIP3    H163431   5.314   4.159  14.018  0.7432  0.2553 -0.3216
13980TIP3    H263432   5.334   4.119  14.163  0.9951  0.8438 -0.1908
13981TIP3   OH263433   3.399   2.102   3.491  0.1276  0.3826 -0.1941
13981TIP3    H163434   3.387   2.155   3.570  0.4320  0.1177  0.0297
13981TIP3    H263435   3.493   2.086   3.487 -0.0736 -1.0937  0.3670
13982TIP3   OH263436   1.214   1.835  15.339  0.5559 -0.0138  0.2808
13982TIP3    H163437   1.276   1.791  15.281 -0.0097 -2.0407  1.1102
13982TIP3    H263438   1.240   1.808  15.427  0.9439  2.3883  0.9825
13983TIP3   OH263439   5.257   2.017  15.203 -0.0966 -0.4150  0.3841
13983TIP3    H163440   5.311   1.941  15.227 -1.2926 -1.9601 -1.4680
13983TIP3    H263441   5.168   1.991  15.228 -0.5529  0.2456 -0.5051
13984TIP3   OH263442   1.370   5.346   6.492  0.1657  0.1142  0.1059
13984TIP3    H163443   1.369   5.435   6.527 -0.2304  0.0979  0.1446
13984TIP3    H263444   1.285   5.336   6.449  0.4309 -0.0471 -0.4011
13985TIP3   OH263445   0.369   3.406  12.836 -0.3079  0.1258  0.3550
13985TIP3    H163446   0.408   3.352  12.905  1.0887  0.8896  0.2115
13985TIP3    H263447   0.274   3.399  12.850 -0.1536 -1.9194  0.6331
13986TIP3   OH263448   0.585   4.906  15.564 -0.4187 -0.5679 -0.2062
13986TIP3    H163449   0.513   4.844  15.569 -0.9316 -0.0561 -1.0716
13986TIP3    H263450   0.557   4.980  15.618 -0.4830 -0.4374 -0.4148
13987TIP3   OH263451   1.841   3.524   3.217 -0.5055  0.0662 -0.0658
13987TIP3    H163452   1.894   3.471   3.276  0.6336  1.1478 -0.0874
13987TIP3    H263453   1.833   3.470   3.138  0.2523 -0.2765  0.0799
13988TIP3   OH263454   5.496   0.151  16.676 -0.3527  0.5117 -0.9411
13988TIP3    H163455   5.555   0.082  16.643 -0.4588  0.5063 -1.1163
13988TIP3    H263456   5.550   0.200  16.739 -0.1325  0.5643 -1.1717
13989TIP3   OH263457   2.315   5.564  16.890  0.3361 -0.0569 -0.1525
13989TIP3    H163458   2.300   5.480  16.846  0.0010  0.0638 -0.2724
13989TIP3    H263459   2.230   5.609  16.885  1.5532  2.3028 -4.2534
13990TIP3   OH263460   6.070   1.871   2.404 -0.0594  0.3223  0.3131
13990TIP3    H163461   6.072   1.782   2.441  1.9197  0.8192  1.5824
13990TIP3    H263462   5.979   1.884   2.378 -0.3950 -2.0996 -0.0059
13991TIP3   OH263463   3.227   4.791   2.199 -0.5706 -0.2074 -0.3076
13991TIP3    H163464   3.275   4.871   2.221  0.0007  0.1384 -2.5165
13991TIP3    H263465   3.153   4.821   2.147 -0.2914 -1.0829 -1.2611
13992TIP3   OH263466   1.915   4.720  13.348  0.0511  0.3058 -0.1680
13992TIP3    H163467   1.836   4.772  13.364  0.1720  1.2801 -2.4165
13992TIP3    H263468   1.927   4.722  13.253  0.0826 -3.8710 -0.4251
13993TIP3   OH263469   5.301   0.569  14.692  0.1486 -0.6291  0.4768
13993TIP3    H163470   5.388   0.601  14.671  0.2587 -1.9091 -1.2786
13993TIP3    H263471   5.314   0.477  14.715 -0.7562 -0.8804  0.0352
13994TIP3   OH263472   1.027   1.052   5.516  0.4398  0.9357 -0.0745
13994TIP3    H163473   1.055   1.052   5.607 -2.2599 -1.8528  0.9375
13994TIP3    H263474   1.081   0.985   5.474  1.2561  1.7898 -0.4344
13995TIP3   OH263475   0.358   4.956   1.347  0.8066  0.6928 -0.1656
13995TIP3    H163476   0.367   4.992   1.435 -0.3816 -0.8326  0.6403
13995TIP3    H263477   0.384   4.864   1.357 -0.0280  0.3240 -1.2266
13996TIP3   OH263478   6.830   0.269   1.978  0.9268 -0.6648 -0.3885
13996TIP3    H163479   6.808   0.355   2.013 -1.1691 -0.3608 -2.2337
13996TIP3    H263480   6.926   0.270   1.972  1.0057  1.2321  0.3382
13997TIP3   OH263481   2.323   0.845  14.187 -0.0215 -0.3174 -0.6078
13997TIP3    H163482   2.404   0.829  14.234 -0.0804 -0.1078 -0.4342
13997TIP3    H263483   2.288   0.758  14.168  0.0049 -0.4018 -0.2696
13998TIP3   OH263484   4.258   0.373   6.415 -0.1874  0.3472 -0.1963
13998TIP3    H163485   4.198   0.298   6.416 -0.4792  0.5836  0.4103
13998TIP3    H263486   4.270   0.395   6.507 -0.8853  1.6690 -0.4045
13999TIP3   OH263487   1.735   5.085  16.043  0.6300 -0.0591 -0.4619
13999TIP3    H163488   1.682   5.136  15.982  0.8693  1.3992  0.4863
13999TIP3    H263489   1.762   5.007  15.994 -1.4222 -0.2757 -1.3111
14000TIP3   OH263490   5.935   5.104  11.907  0.4728  0.2582 -0.4949
14000TIP3    H163491   5.948   5.113  12.002 -0.1076 -0.2105 -0.3582
14000TIP3    H263492   6.009   5.052  11.877  1.0560  1.0322 -0.4300
14001TIP3   OH263493   4.712   1.181   2.044  0.3866 -0.1073 -0.1268
14001TIP3    H163494   4.629   1.170   1.997 -1.2245  0.6464  2.3388
14001TIP3    H263495   4.769   1.225   1.982 -1.3856  0.2389 -1.6037
14002TIP3   OH263496   4.671   3.214  12.734  0.2430 -0.3654 -0.5316
14002TIP3    H163497   4.605   3.275  12.766 -0.3436 -1.4288  0.3540
14002TIP3    H263498   4.736   3.210  12.804  0.5401 -0.3781 -0.8037
14003TIP3   OH263499   5.360   4.532  15.900 -0.9043 -0.3741 -0.0879
14003TIP3    H163500   5.276   4.488  15.889 -2.1766  1.8571  0.0393
14003TIP3    H263501   5.344   4.621  15.868  1.6305 -0.0811 -0.7393
14004TIP3   OH263502   1.554   4.838   1.228  0.0426 -0.5395 -0.7702
14004TIP3    H163503   1.519   4.853   1.315  1.3171  1.2533 -0.5076
14004TIP3    H263504   1.649   4.837   1.240  0.2800  0.6427 -2.2291
14005TIP3   OH263505   6.050   1.588   3.450 -0.3596  0.4543  0.2425
14005TIP3    H163506   5.958   1.604   3.431 -0.3916  0.7724  0.6531
14005TIP3    H263507   6.097   1.638   3.383 -0.4531  2.6403  1.6984
14006TIP3   OH263508   5.641   1.448   3.715  0.1600 -0.0537  0.2025
14006TIP3    H163509   5.715   1.407   3.670 -0.1140 -0.9455  0.5412
14006TIP3    H263510   5.578   1.377   3.726 -0.9010  0.7768 -0.3854
14007TIP3   OH263511   0.304   1.314   0.078 -0.0575  0.4225 -0.0584
14007TIP3    H163512   0.392   1.340   0.053 -0.0510 -0.0990 -0.5825
14007TIP3    H263513   0.310   1.220   0.093 -0.1824  0.6258  1.3959
14008TIP3   OH263514   6.311   0.844  15.268  0.3268 -0.5053  0.0070
14008TIP3    H163515   6.380   0.825  15.331 -0.1741  0.5403  0.9064
14008TIP3    H263516   6.242   0.782  15.288 -0.2574  0.4897  1.2238
14009TIP3   OH263517   6.703   2.179   5.165 -0.2539  0.7245  0.1605
14009TIP3    H163518   6.779   2.177   5.107 -0.6548  0.0995 -0.3567
14009TIP3    H263519   6.641   2.117   5.127 -0.7882  0.7743  0.9057
14010TIP3   OH263520   4.716   6.345   3.977 -0.7231  0.6101  0.3611
14010TIP3    H163521   4.737   6.362   4.069 -0.2912  0.0669  0.3649
14010TIP3    H263522   4.680   6.428   3.945  0.7967  1.3751  0.5342
14011TIP3   OH263523   1.274   0.903   1.156  0.2544 -0.5840  0.0456
14011TIP3    H163524   1.280   0.809   1.175 -1.7985 -0.6426  0.6465
14011TIP3    H263525   1.272   0.944   1.242  1.2040  0.0340 -0.2158
14012TIP3   OH263526   4.372   5.392  15.870 -0.1387  0.1318 -0.0176
14012TIP3    H163527   4.450   5.442  15.896 -0.5048  1.5366 -1.4891
14012TIP3    H263528   4.328   5.371  15.952  1.7640 -0.6929  0.8541
14013TIP3   OH263529   4.641   2.024   1.743  0.0155 -0.0981 -0.5953
14013TIP3    H163530   4.688   1.952   1.786 -1.8017 -0.4372  0.9480
14013TIP3    H263531   4.573   1.981   1.692 -0.4585  0.4680 -0.4572
14014TIP3   OH263532   3.545   5.134  12.212  0.1170  0.6182  0.5381
14014TIP3    H163533   3.464   5.083  12.222  0.6160 -0.0745  1.1148
14014TIP3    H263534   3.586   5.131  12.298  0.5106  1.3932  0.3804
14015TIP3   OH263535   6.681   2.953  12.891 -0.2992  0.2821  0.4009
14015TIP3    H163536   6.590   2.983  12.889 -0.5289 -0.4668 -0.4717
14015TIP3    H263537   6.732   3.034  12.891 -0.9068  0.7496 -2.2012
14016TIP3   OH263538   2.789   0.753  13.847 -0.3704  0.0525 -0.6437
14016TIP3    H163539   2.814   0.800  13.926  0.3016 -2.3141  0.6723
14016TIP3    H263540   2.698   0.779  13.832 -0.4686  0.6835  0.8318
14017TIP3   OH263541   2.077   2.257  10.459 -1.0322 -0.7574  0.0696
14017TIP3    H163542   2.063   2.345  10.495 -1.8918 -0.2310 -1.4381
14017TIP3    H263543   2.171   2.243  10.465 -0.6885  0.8459 -0.8493
14018TIP3   OH263544   5.957   3.055   1.955  0.0656 -0.1716  0.1262
14018TIP3    H163545   5.922   2.981   2.006 -1.1853 -0.0156 -0.4630
14018TIP3    H263546   5.901   3.059   1.878  0.2698  1.2453  0.0262
14019TIP3   OH263547   2.772   6.769  13.758  0.0244 -0.3417 -0.2010
14019TIP3    H163548   2.780   6.818  13.840 -0.4789 -1.3782  0.4887
14019TIP3    H263549   2.826   6.692  13.770  1.6243  0.4662 -1.6694
14020TIP3   OH263550   0.221   3.030  13.885 -0.1000 -0.1752  0.2648
14020TIP3    H163551   0.247   2.945  13.922 -0.4782 -1.1320 -1.5469
14020TIP3    H263552   0.142   3.054  13.933 -0.3500 -1.1625  0.3611
14021TIP3   OH263553   2.839   4.129  16.346  0.2355 -0.4295  0.1102
14021TIP3    H163554   2.810   4.083  16.425  1.4238 -0.5026  0.5243
14021TIP3    H263555   2.881   4.062  16.292  1.1142 -0.0365  0.2790
14022TIP3   OH263556   0.164   5.590  16.254 -0.2306 -0.4744 -0.0308
14022TIP3    H163557   0.174   5.598  16.349 -0.8423 -1.2537  0.1081
14022TIP3    H263558   0.093   5.527  16.243  0.0383 -0.6156 -1.0120
14023TIP3   OH263559   5.961   3.246  13.031  0.2434 -0.0266  0.2321
14023TIP3    H163560   5.941   3.232  13.124 -0.8506  0.0261  0.0182
14023TIP3    H263561   6.000   3.164  13.002  0.0149 -0.2715  0.5979
14024TIP3   OH263562   5.671   5.753   2.575 -0.4256  0.6045  0.0970
14024TIP3    H163563   5.750   5.700   2.584  1.4415  3.1581 -0.1081
14024TIP3    H263564   5.652   5.753   2.482 -0.8081 -0.1952  0.1729
14025TIP3   OH263565   4.568   0.113  15.843 -0.1196  0.0554 -0.2812
14025TIP3    H163566   4.544   0.023  15.822  0.4621  0.0748 -1.1042
14025TIP3    H263567   4.590   0.111  15.936 -0.8016 -0.4922 -0.1243
14026TIP3   OH263568   5.380   5.312  11.871 -0.3837  0.0313  0.1017
14026TIP3    H163569   5.434   5.320  11.950  0.2367 -0.5163 -0.2519
14026TIP3    H263570   5.431   5.256  11.813 -0.3338  1.2857 -1.1261
14027TIP3   OH263571   4.404   1.121  12.217 -0.2339  0.2713  0.0247
14027TIP3    H163572   4.391   1.210  12.185 -1.2495  0.4518  0.8636
14027TIP3    H263573   4.319   1.078  12.202  0.0805 -0.3910  0.1083
14028TIP3   OH263574   6.740   6.608  13.643 -0.5317  0.2839 -0.1731
14028TIP3    H163575   6.728   6.529  13.589 -1.6781 -0.4109  1.0492
14028TIP3    H263576   6.679   6.597  13.716 -0.8308  2.3860 -0.0419
14029TIP3   OH263577   3.582   5.585  10.587 -0.3126  0.3681 -0.3271
14029TIP3    H163578   3.651   5.568  10.523 -0.6349  0.1440 -0.6178
14029TIP3    H263579   3.625   5.574  10.672  0.1940  0.9789 -0.4996
14030TIP3   OH263580   1.716   0.511  12.655 -0.1784  0.2096  0.0927
14030TIP3    H163581   1.718   0.483  12.563 -0.1717  0.3196  0.0592
14030TIP3    H263582   1.783   0.579  12.661 -0.0931  0.1153  0.2077
14031TIP3   OH263583   6.447   3.281   4.444 -0.6551 -0.0947  0.2976
14031TIP3    H163584   6.418   3.277   4.354  4.0325 -2.4319 -1.4773
14031TIP3    H263585   6.481   3.370   4.455 -1.2308  0.1934 -0.2425
14032TIP3   OH263586   0.338   5.659  14.509  0.1048  0.5337  0.0628
14032TIP3    H163587   0.256   5.672  14.556  0.1968 -0.2301  0.4333
14032TIP3    H263588   0.311   5.640  14.419 -0.2301 -1.7818  0.6027
14033TIP3   OH263589   0.339   3.232  12.218 -0.2655  0.0522 -0.0171
14033TIP3    H163590   0.337   3.297  12.288  1.6575  2.3963 -1.9536
14033TIP3    H263591   0.300   3.154  12.257  0.1928  1.3694  3.4451
14034TIP3   OH263592   0.568   3.814   3.154 -0.6007 -0.1329  0.2458
14034TIP3    H163593   0.602   3.902   3.171  2.5511 -1.4775  1.7465
14034TIP3    H263594   0.530   3.786   3.238 -0.6590 -0.5793  0.0729
14035TIP3   OH263595   3.315   2.398   5.902 -0.3374 -0.0149  0.1176
14035TIP3    H163596   3.342   2.383   5.993 -1.5909  1.2983  0.7519
14035TIP3    H263597   3.332   2.491   5.887 -2.0055  0.2532 -0.3016
14036TIP3   OH263598   6.195   0.061  12.798  0.2737  0.1878 -0.3557
14036TIP3    H163599   6.228  -0.028  12.811 -0.1803  0.0414 -0.1504
14036TIP3    H263600   6.269   0.110  12.761  0.8190 -0.0392  0.4143
14037TIP3   OH263601   4.518   5.786  12.190  0.7150 -0.6864 -0.6622
14037TIP3    H163602   4.530   5.742  12.106  1.9002  0.0254 -0.8792
14037TIP3    H263603   4.541   5.877  12.174  0.7040 -0.4807  0.3723
14038TIP3   OH263604   3.247   0.724   4.738  0.3391  0.1329  0.0326
14038TIP3    H163605   3.198   0.768   4.807 -0.2012 -1.4633  0.7238
14038TIP3    H263606   3.204   0.750   4.657  1.0878  2.1763  0.2191
14039TIP3   OH263607   4.263   4.364  16.343  0.1147  0.6647  0.1380
14039TIP3    H163608   4.277   4.289  16.401 -0.2226 -1.4246 -2.2796
14039TIP3    H263609   4.351   4.385  16.311 -0.1383 -2.4821 -3.3606
14040TIP3   OH263610   0.461   5.410   2.002  0.2183  0.0870 -0.4041
14040TIP3    H163611   0.469   5.360   2.083 -0.5612  0.0197 -0.3669
14040TIP3    H263612   0.402   5.359   1.948  0.4454  0.3207 -0.8750
14041TIP3   OH263613   0.688   3.773   1.078 -0.2121  0.2214  0.9159
14041TIP3    H163614   0.744   3.769   1.156 -0.1417  0.6830  0.8954
14041TIP3    H263615   0.604   3.738   1.107  0.3239 -1.2954  0.7168
14042TIP3   OH263616   4.251   4.112  11.076 -0.3968 -0.1848 -0.3274
14042TIP3    H163617   4.288   4.076  11.157 -2.1115 -2.7927 -0.5877
14042TIP3    H263618   4.244   4.037  11.017 -0.1941  1.4497 -2.5548
14043TIP3   OH263619   4.772   0.888  12.052  0.4535  0.3349 -0.2269
14043TIP3    H163620   4.716   0.861  11.979 -0.0833  0.3305  0.1796
14043TIP3    H263621   4.816   0.808  12.079  2.0097  0.6334 -1.6547
14044TIP3   OH263622   0.004   6.345   4.844 -0.9116  0.3091  0.3675
14044TIP3    H163623  -0.058   6.324   4.774 -0.3396 -0.9942  0.2276
14044TIP3    H263624  -0.045   6.330   4.925 -2.1762  3.5534  0.3631
14045TIP3   OH263625   0.432   5.297  14.854  0.2419 -0.5249  0.4860
14045TIP3    H163626   0.474   5.257  14.778  0.5789  0.5081  0.1106
14045TIP3    H263627   0.422   5.225  14.917 -1.0997 -1.6553 -0.9554
14046TIP3   OH263628   1.486   2.684  10.923  0.0296  0.8270  0.0780
14046TIP3    H163629   1.418   2.641  10.870  0.9408 -0.0560 -0.4153
14046TIP3    H263630   1.563   2.684  10.867  0.8092  0.5573  1.1204
14047TIP3   OH263631   5.969   3.451   1.158  0.3804  0.4832 -0.3939
14047TIP3    H163632   5.913   3.463   1.081 -0.9903  0.0741  0.5075
14047TIP3    H263633   5.934   3.373   1.201  2.0447 -0.1497 -0.1229
14048TIP3   OH263634   5.675   6.237  12.918  0.1649 -0.0204 -0.1850
14048TIP3    H163635   5.605   6.292  12.883  0.3784  0.3111 -0.0874
14048TIP3    H263636   5.690   6.171  12.850  0.2019  0.2929 -0.4819
14049TIP3   OH263637   4.238   3.818  14.820 -0.4716 -0.6026  0.0728
14049TIP3    H163638   4.207   3.877  14.751 -2.2825 -0.3375  1.0444
14049TIP3    H263639   4.303   3.869  14.868 -0.4251 -0.1896 -0.4195
14050TIP3   OH263640   1.911   6.226  14.177 -0.2150 -0.5109 -0.0557
14050TIP3    H163641   1.930   6.155  14.116  0.9849  0.3372 -0.7018
14050TIP3    H263642   1.924   6.188  14.264 -0.5723 -1.3447 -0.3662
14051TIP3   OH263643   0.682   6.439   2.275 -0.1011  0.5925  0.0067
14051TIP3    H163644   0.664   6.429   2.368  0.9669  1.9394  0.3879
14051TIP3    H263645   0.597   6.455   2.235 -0.4450  0.9982  0.8901
14052TIP3   OH263646   5.470   6.386   2.409 -0.2989  0.2010 -0.5279
14052TIP3    H163647   5.461   6.358   2.500 -2.9902 -0.5004 -0.9364
14052TIP3    H263648   5.563   6.407   2.400 -0.0170  0.6804  2.4676
14053TIP3   OH263649   1.989   6.547  13.358 -0.0347 -0.4192  0.1943
14053TIP3    H163650   1.916   6.487  13.373  0.3033 -1.1131 -0.8536
14053TIP3    H263651   2.033   6.553  13.443 -0.3289 -1.3053  0.4227
14054TIP3   OH263652   2.348   2.063  12.035  0.0946  0.2773 -0.0824
14054TIP3    H163653   2.387   1.990  11.985  0.3273  0.2661  0.1164
14054TIP3    H263654   2.380   2.141  11.991  0.8228  0.2783  0.4398
14055TIP3   OH263655   2.026   0.545   3.520  0.7137 -0.1461  0.0065
14055TIP3    H163656   2.055   0.486   3.590 -1.1409 -0.0912  0.8839
14055TIP3    H263657   1.935   0.521   3.504 -0.4521  3.0173  1.0624
14056TIP3   OH263658   4.453   4.392   3.727  0.2189  0.4246  0.0620
14056TIP3    H163659   4.491   4.386   3.639  0.5157  3.5234 -0.1407
14056TIP3    H263660   4.358   4.391   3.712  0.2533 -0.5721 -0.1267
14057TIP3   OH263661   3.057   4.125   6.505 -0.2463  0.6535 -0.0081
14057TIP3    H163662   3.060   4.126   6.410 -1.3301 -0.1148 -0.0692
14057TIP3    H263663   3.066   4.217   6.530 -0.9389  0.9779 -0.8977
14058TIP3   OH263664   5.162   5.596  11.522  0.3213  0.0045  0.7592
14058TIP3    H163665   5.068   5.580  11.532  0.2364 -0.0676 -0.1143
14058TIP3    H263666   5.202   5.510  11.533  0.5824  0.3957  4.0428
14059TIP3   OH263667   2.902   4.152   4.161 -0.1367 -0.3494  0.3261
14059TIP3    H163668   2.981   4.101   4.181 -0.1693 -0.6422 -0.2638
14059TIP3    H263669   2.925   4.201   4.082 -0.4175 -0.1507  0.3671
14060TIP3   OH263670   6.828   5.184   2.861  0.1738  0.0897  0.2655
14060TIP3    H163671   6.800   5.252   2.799 -0.0525  0.3197  0.6183
14060TIP3    H263672   6.844   5.231   2.942  0.8217 -0.1615  0.2829
14061TIP3   OH263673   3.124   6.428  12.553  0.0138  0.5286  0.6132
14061TIP3    H163674   3.124   6.333  12.543  0.1431  0.7371 -1.8832
14061TIP3    H263675   3.211   6.448  12.588  0.8259 -0.1447 -0.9160
14062TIP3   OH263676   2.880   1.680  17.110  0.8326 -0.2691  0.1599
14062TIP3    H163677   2.971   1.651  17.115  0.7085 -0.4608  1.6959
14062TIP3    H263678   2.876   1.755  17.169  0.0949  0.0656 -0.2974
14063TIP3   OH263679   2.891   5.963   4.227 -0.6848  0.4562 -0.2357
14063TIP3    H163680   2.842   5.934   4.150 -0.8920 -0.1414  0.1157
14063TIP3    H263681   2.955   6.025   4.192 -1.4334  0.9665 -0.7562
14064TIP3   OH263682   3.865   4.449  12.614 -0.6644  0.1246  0.5475
14064TIP3    H163683   3.891   4.507  12.542 -1.0717 -1.0806 -0.6214
14064TIP3    H263684   3.940   4.392  12.627 -0.8492 -0.1116  0.5894
14065TIP3   OH263685   6.491   1.977   3.678 -0.7132  0.1516 -0.1310
14065TIP3    H163686   6.529   1.925   3.748 -0.9378 -0.0718 -0.1729
14065TIP3    H263687   6.557   2.043   3.658 -0.9153  0.6181  0.7294
14066TIP3   OH263688   6.820   3.822  12.156 -0.4501 -0.5626 -0.2938
14066TIP3    H163689   6.821   3.807  12.251 -0.3524  1.8326  0.1443
14066TIP3    H263690   6.728   3.817  12.132 -0.3810 -2.2321 -0.2963
14067TIP3   OH263691   0.570   3.958  16.119  0.3679  0.0288 -0.3239
14067TIP3    H163692   0.513   4.035  16.119  0.9874  0.6178 -3.5498
14067TIP3    H263693   0.529   3.897  16.058  1.3465 -1.0337  0.0430
14068TIP3   OH263694   2.054   4.580   0.260 -0.3462 -0.6490 -0.0580
14068TIP3    H163695   1.983   4.644   0.269 -0.4855 -0.5026 -1.8314
14068TIP3    H263696   2.011   4.495   0.261 -0.5117 -0.5782 -0.6570
14069TIP3   OH263697   1.525   1.602  13.871  0.1217 -0.3488 -0.1187
14069TIP3    H163698   1.453   1.585  13.932  0.9382 -0.2018  0.9139
14069TIP3    H263699   1.496   1.563  13.788 -0.3176 -2.0611  0.7965
14070TIP3   OH263700   5.889   3.595   2.461 -0.3420 -0.4913 -0.6098
14070TIP3    H163701   5.797   3.572   2.457 -0.1616 -1.2552 -0.4614
14070TIP3    H263702   5.935   3.511   2.460  0.3476 -0.1199 -0.6295
14071TIP3   OH263703   1.162   0.305   4.370  0.1221 -0.0812  0.9453
14071TIP3    H163704   1.149   0.228   4.314  1.3747  0.4314 -0.1026
14071TIP3    H263705   1.256   0.322   4.366 -0.2337  2.0129  0.4414
14072TIP3   OH263706   0.752   0.697   3.995 -0.1736 -0.0662 -0.0680
14072TIP3    H163707   0.768   0.738   4.080  2.7024 -1.1733  0.0519
14072TIP3    H263708   0.784   0.607   4.006 -0.0459 -0.3410 -2.2081
14073TIP3   OH263709   1.364   0.308  12.418 -0.1369  0.1584  0.1988
14073TIP3    H163710   1.387   0.225  12.376  0.0090  0.1586  0.2750
14073TIP3    H263711   1.275   0.295  12.450 -0.1777  0.0908  0.0593
14074TIP3   OH263712   2.834   5.001  12.417 -0.0140  0.2863 -0.6406
14074TIP3    H163713   2.870   4.914  12.403  1.1292  0.8577 -1.3985
14074TIP3    H263714   2.742   4.993  12.391 -0.5283 -1.2109  1.3641
14075TIP3   OH263715   0.130   6.548   0.373  0.8556  0.0205  0.2448
14075TIP3    H163716   0.071   6.597   0.429  1.3736 -0.2015  0.9977
14075TIP3    H263717   0.112   6.581   0.285 -0.9054 -0.5527  0.3439
14076TIP3   OH263718   0.333   1.048   0.224  0.2496  0.6125 -0.0700
14076TIP3    H163719   0.372   1.019   0.141 -0.4252 -0.6765  0.0301
14076TIP3    H263720   0.384   1.003   0.291  0.9245  1.8113  0.2499
14077TIP3   OH263721   1.225   5.752   3.101 -0.1177  0.2890  0.6113
14077TIP3    H163722   1.199   5.841   3.077  1.2892  0.6619  0.3858
14077TIP3    H263723   1.276   5.721   3.026  0.2265 -0.3487  1.0984
14078TIP3   OH263724   0.428   5.250  13.915  0.2734  0.2428  0.0318
14078TIP3    H163725   0.477   5.323  13.953  0.6043 -0.3040  0.6609
14078TIP3    H263726   0.338   5.264  13.944  0.3591  0.3333  0.2582
14079TIP3   OH263727   1.980   1.680  13.903  0.1652  0.5143  0.1311
14079TIP3    H163728   1.945   1.769  13.912 -0.3587  0.2894  0.3720
14079TIP3    H263729   1.906   1.628  13.871  0.4898  0.1787 -0.0836
14080TIP3   OH263730   3.134   5.568  13.484 -0.0118 -0.2435 -0.8511
14080TIP3    H163731   3.215   5.536  13.445  0.1667  0.0038 -0.6795
14080TIP3    H263732   3.093   5.490  13.522 -0.1168 -0.4608 -1.4008
14081TIP3   OH263733   3.144   3.658  16.344 -0.2819  0.5099 -0.6331
14081TIP3    H163734   3.148   3.645  16.438 -0.0226  1.5694 -0.4790
14081TIP3    H263735   3.203   3.732  16.327 -0.9621  0.8816 -1.5070
14082TIP3   OH263736   2.475   5.965   2.315 -0.0435  0.6950  0.1148
14082TIP3    H163737   2.386   5.976   2.348  1.1729  1.2851  3.5329
14082TIP3    H263738   2.495   6.048   2.272 -0.2869  1.6170  1.6997
14083TIP3   OH263739   4.423   5.401  11.941 -0.3651 -0.1341  0.2131
14083TIP3    H163740   4.339   5.380  11.981 -1.2352  1.4967 -0.6581
14083TIP3    H263741   4.483   5.413  12.015 -0.9820 -0.9104  0.8582
14084TIP3   OH263742   2.583   0.574   5.490 -0.0945  0.1894  0.2896
14084TIP3    H163743   2.642   0.544   5.560 -0.1499  1.5554  0.9545
14084TIP3    H263744   2.621   0.537   5.410  0.1069 -1.2054  0.9832
14085TIP3   OH263745   2.297   6.515  13.236  0.8733 -0.9154 -0.4631
14085TIP3    H163746   2.300   6.477  13.149  1.7285  1.5338 -1.5991
14085TIP3    H263747   2.206   6.506  13.264  0.1899 -0.2751 -2.3520
14086TIP3   OH263748   0.642   0.753   1.073  0.1887 -0.0465  0.3015
14086TIP3    H163749   0.670   0.844   1.063  1.4017 -0.3967  0.3292
14086TIP3    H263750   0.656   0.733   1.166  0.2673 -0.3543  0.2278
14087TIP3   OH263751   5.775   4.525  15.614  0.5164  0.0516 -0.7820
14087TIP3    H163752   5.698   4.582  15.609  0.3111 -0.3267 -2.4173
14087TIP3    H263753   5.749   4.453  15.671 -0.1442  0.2309 -0.8558
14088TIP3   OH263754   2.922   0.609   4.384 -0.3217  0.2617  0.4179
14088TIP3    H163755   2.844   0.654   4.417  0.8337  2.7767 -0.0260
14088TIP3    H263756   2.935   0.646   4.297  0.6556 -1.0867 -0.0397
14089TIP3   OH263757   1.795   1.579   3.865  0.4706  0.1199 -0.2420
14089TIP3    H163758   1.754   1.642   3.806  1.8700 -0.6327 -2.1218
14089TIP3    H263759   1.723   1.548   3.920 -0.7220  1.5141 -0.9337
14090TIP3   OH263760   0.354   4.252  14.208  0.2586 -0.0972  0.5210
14090TIP3    H163761   0.300   4.179  14.238 -1.8632  1.2117  0.1044
14090TIP3    H263762   0.438   4.212  14.186 -0.0111 -1.9914  2.6103
14091TIP3   OH263763   0.386   2.913   6.002 -0.1285  0.4240 -0.3343
14091TIP3    H163764   0.436   2.915   5.920  0.8766 -0.2484  0.2349
14091TIP3    H263765   0.349   2.825   6.006 -1.9527  1.1226 -1.0665
14092TIP3   OH263766   6.156   6.693  10.720 -0.5981  0.3088 -0.0713
14092TIP3    H163767   6.224   6.701  10.653  0.3495 -0.6592  0.7282
14092TIP3    H263768   6.092   6.761  10.698  0.4821  1.0611 -1.0177
14093TIP3   OH263769   3.281   6.823   0.125 -0.3235  0.3724  0.1421
14093TIP3    H163770   3.222   6.858   0.191 -1.8376 -2.0061  0.1542
14093TIP3    H263771   3.240   6.846   0.042 -0.3071  0.3241  0.1203
14094TIP3   OH263772   0.943   4.684   2.442 -0.1477 -0.1694 -0.4088
14094TIP3    H163773   1.017   4.698   2.382 -0.8904  2.1404 -0.8907
14094TIP3    H263774   0.868   4.672   2.384 -0.5625  0.1766  0.0501
14095TIP3   OH263775   6.244   4.445  12.904 -0.0823  0.3591 -0.3236
14095TIP3    H163776   6.168   4.475  12.853 -0.2590  1.3371  0.4859
14095TIP3    H263777   6.230   4.482  12.991  0.4430 -0.9209  0.3278
14096TIP3   OH263778   4.560   5.500  17.101  0.2594  0.2789 -0.0623
14096TIP3    H163779   4.617   5.565  17.061  1.8137 -0.2424  1.2148
14096TIP3    H263780   4.619   5.432  17.133 -1.1689 -0.8071  0.3805
14097TIP3   OH263781   0.195   1.507  16.940 -0.6767 -0.0114 -0.0133
14097TIP3    H163782   0.163   1.567  16.873  1.6192 -0.6341 -1.8389
14097TIP3    H263783   0.234   1.563  17.007 -1.7507  0.5945  0.1105
14098TIP3   OH263784   2.720   1.581   5.499  0.0017 -0.1759  0.2722
14098TIP3    H163785   2.754   1.669   5.488  0.7465  0.0840  3.4434
14098TIP3    H263786   2.637   1.592   5.545  0.8854 -1.0427  2.2510
14099TIP3   OH263787   4.948   1.280   3.844  0.0495  0.0299  0.0560
14099TIP3    H163788   5.021   1.325   3.888  1.7327 -1.6929 -0.7990
14099TIP3    H263789   4.991   1.221   3.782 -2.1702  1.1031 -2.7102
14100TIP3   OH263790   5.840   1.936   4.556  0.3040  0.4424  0.0009
14100TIP3    H163791   5.874   1.984   4.632  0.9850 -1.5378  1.0407
14100TIP3    H263792   5.829   1.846   4.588  2.0420 -0.8341 -2.6078
14101TIP3   OH263793   0.353   0.206  14.801  0.4849 -0.3352  0.5133
14101TIP3    H163794   0.436   0.188  14.845  0.7917  0.9041  0.4735
14101TIP3    H263795   0.326   0.292  14.834 -0.5277 -0.4913  0.1351
14102TIP3   OH263796   4.206   5.216  17.117 -0.2569  0.2715 -0.1036
14102TIP3    H163797   4.206   5.231  17.211 -0.5198  0.2468 -0.0985
14102TIP3    H263798   4.127   5.261  17.086 -0.7486 -0.6263 -0.1647
14103TIP3   OH263799   2.367   6.720   4.456 -0.2288 -0.3234 -0.3456
14103TIP3    H163800   2.441   6.774   4.482  0.7438 -1.0632 -1.5102
14103TIP3    H263801   2.404   6.632   4.443 -1.3745 -0.7938 -0.5896
14104TIP3   OH263802   4.088   1.905  14.440  0.1542 -0.3847  0.1807
14104TIP3    H163803   4.004   1.936  14.474 -0.4237 -0.4232 -1.1370
14104TIP3    H263804   4.145   1.900  14.516 -0.9562 -0.0696  1.0516
14105TIP3   OH263805   1.913   5.597  12.261  0.2966  0.1537  0.0226
14105TIP3    H163806   1.866   5.536  12.204  1.5494  0.1637 -1.0634
14105TIP3    H263807   1.982   5.634  12.205  1.1908  0.6175  1.3859
14106TIP3   OH263808   6.041   1.317  10.306 -0.3181  0.0206  0.8566
14106TIP3    H163809   5.971   1.277  10.253 -0.0918  1.6215 -0.7262
14106TIP3    H263810   6.106   1.247  10.316 -0.4442 -0.3959 -0.8700
14107TIP3   OH263811   2.601   1.326   5.184 -0.2531 -0.0527 -0.1781
14107TIP3    H163812   2.556   1.335   5.268  1.0353 -1.6302  0.7721
14107TIP3    H263813   2.534   1.342   5.118 -1.3146  1.2117  1.1447
14108TIP3   OH263814   3.732   6.537   5.844  0.1652  0.3822 -0.3269
14108TIP3    H163815   3.715   6.505   5.756  0.1463  0.1597 -0.2424
14108TIP3    H263816   3.645   6.556   5.880  0.1439  0.0083 -0.1818
14109TIP3   OH263817   3.793   4.085   0.608  0.6773 -0.1547  0.0526
14109TIP3    H163818   3.769   4.019   0.543 -0.2844 -0.6626  0.8973
14109TIP3    H263819   3.883   4.108   0.587  0.1258  0.3259 -2.0062
14110TIP3   OH263820   6.722   5.784   3.311 -0.4664  0.0359 -0.2359
14110TIP3    H163821   6.723   5.880   3.313 -1.8263  0.0809 -0.9063
14110TIP3    H263822   6.629   5.761   3.309 -0.1428 -1.2775 -1.0439
14111TIP3   OH263823   4.052   1.647   2.024 -0.6029 -0.3501  0.3918
14111TIP3    H163824   4.054   1.675   2.116  0.2582 -0.2912  0.3651
14111TIP3    H263825   4.040   1.552   2.029  4.3038 -1.2188  0.8368
14112TIP3   OH263826   6.237   6.246   3.228  0.1098  0.2554  0.3261
14112TIP3    H163827   6.223   6.173   3.168 -1.8981  0.7670  0.0933
14112TIP3    H263828   6.260   6.205   3.311 -1.1372 -0.6732  0.2434
14113TIP3   OH263829   0.233   1.149   6.665 -0.3521  0.0429  0.0400
14113TIP3    H163830   0.247   1.059   6.635  0.8957 -0.1201  1.0113
14113TIP3    H263831   0.143   1.150   6.698  0.1708 -1.3809  1.6681
14114TIP3   OH263832   0.404   2.880   3.540 -0.2187  0.1956 -0.5663
14114TIP3    H163833   0.486   2.836   3.519  1.0368  1.4999  1.2597
14114TIP3    H263834   0.394   2.870   3.635 -2.6597 -0.6443 -0.8272
14115TIP3   OH263835   2.987   4.235  12.076  0.0907 -0.0658  0.2350
14115TIP3    H163836   2.897   4.206  12.088  0.0390  0.2156  0.5555
14115TIP3    H263837   3.008   4.211  11.985  0.2855 -1.7033  0.6807
14116TIP3   OH263838   2.930   2.653   0.071  0.4083  0.1584 -0.4630
14116TIP3    H163839   2.981   2.632  -0.007  2.7638  0.5477  0.8776
14116TIP3    H263840   2.996   2.669   0.139 -1.5278  0.8200  1.3582
14117TIP3   OH263841   5.255   1.642   6.440  0.2941  0.6640  0.5095
14117TIP3    H163842   5.349   1.635   6.425  0.3751 -0.8886  1.5632
14117TIP3    H263843   5.248   1.681   6.527 -0.0322  0.1557  0.7121
14118TIP3   OH263844   1.188   0.423   0.633 -0.4154  0.0758  0.1149
14118TIP3    H163845   1.259   0.359   0.637  0.0338  0.4442 -1.3783
14118TIP3    H263846   1.229   0.507   0.654 -0.7255  0.0764  0.7348
14119TIP3   OH263847   3.176   5.143  11.169 -0.6700  0.2936  0.0662
14119TIP3    H163848   3.232   5.074  11.134 -0.8157 -0.9911  2.2192
14119TIP3    H263849   3.169   5.207  11.097  1.4538 -0.7234 -1.1294
14120TIP3   OH263850   5.131   3.721  12.185 -0.4853 -0.1072  0.2087
14120TIP3    H163851   5.101   3.635  12.158 -0.9219  0.0111  0.3148
14120TIP3    H263852   5.201   3.703  12.248 -0.1741 -0.3801 -0.2105
14121TIP3   OH263853   5.724   3.700  13.243  0.1799 -0.5926 -0.2311
14121TIP3    H163854   5.630   3.718  13.241  0.3831  1.2023  1.8212
14121TIP3    H263855   5.735   3.620  13.191 -2.3718 -0.4997 -1.0363
14122TIP3   OH263856   4.722   4.082  13.809  0.3848  0.4281  0.0191
14122TIP3    H163857   4.740   4.113  13.721  0.4502 -2.1193 -0.9636
14122TIP3    H263858   4.736   3.987  13.804 -0.5929  0.0727  2.5181
14123TIP3   OH263859   2.536   3.645   1.949 -0.2629  0.4040 -0.3172
14123TIP3    H163860   2.573   3.580   2.009 -0.3829  2.4763  2.1824
14123TIP3    H263861   2.601   3.654   1.880  0.5135 -1.1346  0.1579
14124TIP3   OH263862   6.174   2.517   0.542  0.2149 -0.6325  0.4469
14124TIP3    H163863   6.093   2.507   0.592 -1.4515  0.6544 -1.7765
14124TIP3    H263864   6.206   2.604   0.567 -1.1215  0.4198 -1.2114
14125TIP3   OH263865   1.919   4.065   2.909 -0.8574 -0.3229 -0.0023
14125TIP3    H163866   1.970   3.987   2.885 -3.3983 -1.5229 -1.8873
14125TIP3    H263867   1.964   4.137   2.865 -0.6302 -1.3031 -1.4526
14126TIP3   OH263868   5.245   3.581   2.873 -0.1618 -0.5859 -0.2540
14126TIP3    H163869   5.183   3.527   2.921  0.6593 -1.3145  0.0080
14126TIP3    H263870   5.198   3.605   2.793 -0.7770 -1.1288 -0.0698
14127TIP3   OH263871   2.131   2.958  14.467 -0.2752  0.0423 -0.1722
14127TIP3    H163872   2.218   2.932  14.437 -0.2345  1.0582 -0.9732
14127TIP3    H263873   2.080   2.877  14.464  1.0627 -0.9636  2.0128
14128TIP3   OH263874   5.740   5.122   5.921  0.2362  0.2888 -0.3772
14128TIP3    H163875   5.828   5.086   5.912  0.2962 -0.6159  2.5208
14128TIP3    H263876   5.753   5.207   5.964 -0.2576  0.3840 -0.4085
14129TIP3   OH263877   0.285   5.303  16.398 -0.3803 -1.0816 -0.8348
14129TIP3    H163878   0.348   5.368  16.368 -0.5572  0.1915  1.3157
14129TIP3    H263879   0.339   5.234  16.436 -0.1851  0.0401  1.0727
14130TIP3   OH263880   5.201   0.024  11.193 -0.6392  0.4164  0.1070
14130TIP3    H163881   5.111   0.056  11.196 -0.1107  1.9594  0.5822
14130TIP3    H263882   5.248   0.080  11.255  0.6155 -0.4729 -0.0105
14131TIP3   OH263883   5.232   0.008   2.886 -0.3202  0.4253  0.6226
14131TIP3    H163884   5.219  -0.081   2.921 -0.3840  0.8805  1.7922
14131TIP3    H263885   5.321   0.031   2.911 -0.8441  1.3067  1.7861
14132TIP3   OH263886   5.124   2.989  16.783 -0.1152  0.5376  0.0426
14132TIP3    H163887   5.051   3.017  16.729 -2.8523 -1.0192  2.6184
14132TIP3    H263888   5.147   3.067  16.835 -0.7173  0.7290  0.0219
14133TIP3   OH263889   1.727   4.055   0.762  0.3628 -0.0933 -0.4856
14133TIP3    H163890   1.675   4.071   0.840  1.1477 -0.0983  0.0578
14133TIP3    H263891   1.746   3.961   0.764 -0.2581 -0.2380 -1.1024
14134TIP3   OH263892   3.455   5.081  11.743 -0.0098 -0.1210  0.6503
14134TIP3    H163893   3.484   5.085  11.834 -0.0691  0.4269  0.6481
14134TIP3    H263894   3.430   4.989  11.730  1.5631 -0.5929  0.6985
14135TIP3   OH263895   0.031   5.878  16.282 -0.6817  0.3111 -0.0763
14135TIP3    H163896   0.056   5.926  16.203  0.7055  0.5577  0.4992
14135TIP3    H263897   0.092   5.804  16.285 -0.7941  0.2488  0.7221
14136TIP3   OH263898   3.952   3.537   3.698 -0.2463  0.5483  0.4798
14136TIP3    H163899   4.030   3.484   3.714 -1.0334 -0.9125 -0.4119
14136TIP3    H263900   3.917   3.555   3.786 -1.1961 -2.3247  0.7751
14137TIP3   OH263901   6.819   1.918  16.957  0.5903 -0.2235  0.0172
14137TIP3    H163902   6.807   1.966  16.875 -0.9068 -1.2450 -0.4046
14137TIP3    H263903   6.870   1.841  16.933 -0.3558 -0.8304 -0.0966
14138TIP3   OH263904   6.415   6.490   5.338  0.5245 -0.8313 -0.2242
14138TIP3    H163905   6.421   6.434   5.415 -0.9780 -0.6315  0.0783
14138TIP3    H263906   6.437   6.433   5.264  0.7705 -1.3396  0.2404
14139TIP3   OH263907   2.935   4.702  12.740  0.2888  0.3965 -0.0266
14139TIP3    H163908   2.876   4.776  12.757  0.1220  0.1684  0.4087
14139TIP3    H263909   2.994   4.701  12.816  0.5132  0.2958 -0.2020
14140TIP3   OH263910   6.373   5.547   4.071  0.3140 -0.5505  0.3769
14140TIP3    H163911   6.327   5.513   3.995 -0.2186  1.1802 -0.1277
14140TIP3    H263912   6.308   5.549   4.140  0.3832 -0.7021  0.4462
14141TIP3   OH263913   0.173   1.758  16.299  0.3245 -0.8496 -0.0214
14141TIP3    H163914   0.089   1.764  16.253  0.1330 -1.7341  0.2036
14141TIP3    H263915   0.223   1.692  16.251  0.7062 -0.6832  0.1432
14142TIP3   OH263916   6.152   6.016   4.071  0.1103  0.2405 -0.2216
14142TIP3    H163917   6.140   6.076   3.998 -0.5817 -0.2417 -0.5170
14142TIP3    H263918   6.184   5.935   4.030  0.2064  0.1269  0.0724
14143TIP3   OH263919   3.729   4.469  13.426  0.0342 -0.3432  0.3394
14143TIP3    H163920   3.758   4.454  13.516 -0.5978  0.8432  0.7670
14143TIP3    H263921   3.644   4.426  13.421 -1.0080  1.5101  1.0559
14144TIP3   OH263922   5.570   4.176  16.685 -0.1630 -0.0783 -0.8058
14144TIP3    H163923   5.491   4.189  16.737 -0.6121  0.1567 -1.5236
14144TIP3    H263924   5.569   4.248  16.621  0.9826  0.3100 -0.4082
14145TIP3   OH263925   2.067   1.519  11.237  0.2468 -0.0936 -0.0920
14145TIP3    H163926   1.996   1.473  11.282  0.0477  0.4662  0.1743
14145TIP3    H263927   2.056   1.496  11.145 -0.7853  0.6295 -0.1670
14146TIP3   OH263928   5.047   3.432  14.987  0.1747 -0.6869 -0.1741
14146TIP3    H163929   4.989   3.460  14.917 -0.3274  1.0435  0.8755
14146TIP3    H263930   5.033   3.338  14.994 -1.6865 -0.4714 -0.6638
14147TIP3   OH263931   5.167   3.334   4.893  0.0601  0.4138 -0.0878
14147TIP3    H163932   5.156   3.428   4.877 -0.2413  0.3161 -0.4646
14147TIP3    H263933   5.107   3.315   4.965  0.6408  0.6475  0.4620
14148TIP3   OH263934   6.483   2.029  13.374  0.2773 -0.0075  0.1509
14148TIP3    H163935   6.556   2.030  13.436  0.7564 -0.3909 -0.3985
14148TIP3    H263936   6.471   2.121  13.351  2.4062 -0.1213 -1.8150
14149TIP3   OH263937   4.375   0.137   3.037 -0.5996 -0.5270  0.2037
14149TIP3    H163938   4.460   0.114   3.075 -0.6237  0.6899  1.0461
14149TIP3    H263939   4.316   0.142   3.112 -0.7748  1.4005 -0.0101
14150TIP3   OH263940   2.851   3.657  10.411 -0.5192 -0.2428  0.3417
14150TIP3    H163941   2.863   3.752  10.419  1.3553 -0.5174  1.2018
14150TIP3    H263942   2.761   3.642  10.439 -1.4679  1.4445 -1.5227
14151TIP3   OH263943   2.290   6.415   5.563  0.3336  0.5474  0.7322
14151TIP3    H163944   2.325   6.365   5.636 -0.8614  1.4769  2.0018
14151TIP3    H263945   2.304   6.360   5.487 -0.2577 -1.3982  1.9615
14152TIP3   OH263946   5.050   3.938  13.719 -0.2948  0.2306 -0.7349
14152TIP3    H163947   5.141   3.934  13.747 -0.5963  3.0839  0.9778
14152TIP3    H263948   5.054   3.969  13.629  0.4500  2.0907 -0.1092
14153TIP3   OH263949   1.208   0.865  13.126  0.2171  0.6026  0.5784
14153TIP3    H163950   1.250   0.859  13.041 -0.1729 -1.2427  0.4675
14153TIP3    H263951   1.273   0.833  13.188 -1.0363 -2.7377  0.3493
14154TIP3   OH263952   5.184   2.006   2.639  0.3168 -0.4198  0.4655
14154TIP3    H163953   5.139   1.980   2.558 -2.0738 -0.2527  1.6656
14154TIP3    H263954   5.198   2.100   2.629 -1.2889 -0.1269  0.8249
14155TIP3   OH263955   5.540   4.466   3.101  0.4373 -0.0494  0.1771
14155TIP3    H163956   5.505   4.377   3.102 -0.0482  0.1318 -0.2663
14155TIP3    H263957   5.628   4.457   3.064  0.1238 -0.2496 -0.5186
14156TIP3   OH263958   3.383   1.148  13.992  0.0720  0.5268  1.1767
14156TIP3    H163959   3.329   1.227  13.984  0.5537  0.6648 -1.3008
14156TIP3    H263960   3.327   1.077  13.959  0.3332  0.1511  1.5309
14157TIP3   OH263961   4.391   2.446  13.558  0.2386 -0.1574  0.0588
14157TIP3    H163962   4.438   2.510  13.612 -0.3723 -0.0087  0.4276
14157TIP3    H263963   4.430   2.362  13.582 -1.0117 -0.2742  1.8507
14158TIP3   OH263964   5.075   1.384  10.693  0.0898 -0.2640  0.0887
14158TIP3    H163965   4.985   1.417  10.687  1.0180  2.3599 -1.4902
14158TIP3    H263966   5.095   1.354  10.604  0.9356 -0.3261  0.2924
14159TIP3   OH263967   0.176   2.366  13.742 -0.0177 -0.2482 -0.3819
14159TIP3    H163968   0.249   2.410  13.697  1.1198  0.2338  1.8273
14159TIP3    H263969   0.098   2.400  13.698  0.8930  2.6026 -0.0100
14160TIP3   OH263970   2.992   1.993   2.450 -0.4024  0.0832  0.0401
14160TIP3    H163971   2.937   1.915   2.449 -2.3376  1.3637  0.0898
14160TIP3    H263972   3.080   1.961   2.429 -1.5685 -1.7528 -2.6817
14161TIP3   OH263973   2.055   1.971   1.303 -0.4310  0.0922  0.0898
14161TIP3    H163974   2.032   1.882   1.331  0.1050  0.3398  1.3542
14161TIP3    H263975   2.141   1.962   1.263  0.5117  0.3185  1.9689
14162TIP3   OH263976   4.834   0.374   2.359  0.3967 -0.2436  0.0699
14162TIP3    H163977   4.875   0.292   2.334  1.2694  0.0292  0.5643
14162TIP3    H263978   4.905   0.426   2.398  0.0772  1.1000 -1.0638
14163TIP3   OH263979   3.894   4.551   4.244 -0.2506  0.3953  0.0397
14163TIP3    H163980   3.902   4.587   4.333 -1.4325  0.6395  0.0689
14163TIP3    H263981   3.838   4.475   4.255 -1.3758  1.1024 -0.6582
14164TIP3   OH263982   4.135   4.099   5.373  0.1752  0.1191 -0.0609
14164TIP3    H163983   4.097   4.078   5.288  0.8519  0.4607 -0.4509
14164TIP3    H263984   4.088   4.178   5.401  0.1482  0.1709 -0.2477
14165TIP3   OH263985   0.490   6.510  13.937 -0.1318 -0.7359 -0.6155
14165TIP3    H163986   0.463   6.460  14.015 -1.5247  0.0124 -0.5792
14165TIP3    H263987   0.580   6.535  13.954 -0.4958 -0.3526  0.9133
14166TIP3   OH263988   4.915   5.190  15.185 -0.1538 -0.5104 -0.0457
14166TIP3    H163989   4.917   5.120  15.251  0.2732  0.3247  0.8538
14166TIP3    H263990   5.006   5.196  15.154  0.2565  0.9607  1.3324
14167TIP3   OH263991   3.282   3.191  14.477 -0.4708 -0.3655 -0.0408
14167TIP3    H163992   3.332   3.267  14.446 -2.7352  0.8423 -0.9386
14167TIP3    H263993   3.253   3.215  14.564 -0.5261 -0.5567 -0.0059
14168TIP3   OH263994   5.567   5.312   1.529  0.5622  0.3323 -0.3038
14168TIP3    H163995   5.601   5.241   1.583  0.3613 -0.4571 -1.1735
14168TIP3    H263996   5.501   5.355   1.583 -0.3948 -1.1054 -0.2688
14169TIP3   OH263997   2.195   4.722  11.945  0.1211  0.2841  0.4814
14169TIP3    H163998   2.145   4.789  11.991  0.5162  1.0579 -0.2081
14169TIP3    H263999   2.136   4.690  11.877  0.3444  0.7680  0.0569
14170TIP3   OH264000   6.417   6.142  16.193 -0.0442  0.3809 -0.3430
14170TIP3    H164001   6.397   6.121  16.102 -2.3608  1.7208 -0.2063
14170TIP3    H264002   6.384   6.067  16.243 -1.2532  0.8387 -0.4302
14171TIP3   OH264003   3.617   0.038  11.743  0.3084  0.1015 -0.2874
14171TIP3    H164004   3.549   0.101  11.718 -0.2962 -0.5121 -0.2123
14171TIP3    H264005   3.570  -0.032  11.788  0.7933 -1.0045 -1.4364
14172TIP3   OH264006   1.483   2.719   0.359  0.6265  0.8464  0.4546
14172TIP3    H164007   1.488   2.644   0.300  1.1132  1.9038 -0.9200
14172TIP3    H264008   1.439   2.787   0.308  0.2928  1.5396  1.6174
14173TIP3   OH264009   5.254   6.314   6.009  0.0533 -0.6099 -0.0563
14173TIP3    H164010   5.268   6.366   5.930 -0.1848  0.0672  0.3373
14173TIP3    H264011   5.160   6.322   6.026  0.3969  0.8310  1.3556
14174TIP3   OH264012   4.674   3.349  15.344  0.4128 -0.0030  0.2268
14174TIP3    H164013   4.734   3.385  15.278  1.0449 -1.5431 -0.0804
14174TIP3    H264014   4.630   3.276  15.300  0.8555 -1.0767  1.4898
14175TIP3   OH264015   5.055   1.033   0.399 -0.7612 -0.1513  0.4558
14175TIP3    H164016   4.993   0.966   0.368 -0.8639  0.0848  0.1483
14175TIP3    H264017   5.053   1.024   0.495 -2.1472  0.6258  0.5192
14176TIP3   OH264018   0.179   3.581  17.111 -0.1696  0.0978 -0.4581
14176TIP3    H164019   0.189   3.491  17.142 -1.0393  0.2563  0.3338
14176TIP3    H264020   0.108   3.617  17.165  0.8820  1.5927 -0.0137
14177TIP3   OH264021   6.805   2.850   5.785 -0.3456  0.1729 -0.0177
14177TIP3    H164022   6.824   2.841   5.878 -3.9946 -1.9290  0.6802
14177TIP3    H264023   6.773   2.940   5.776 -0.6465  0.1649  0.8957
14178TIP3   OH264024   2.212   2.975   5.562 -0.1055 -0.0647  0.6049
14178TIP3    H164025   2.298   3.012   5.586 -0.3409  0.4807  0.6182
14178TIP3    H264026   2.163   2.977   5.644 -0.7735  1.4111  0.1944
14179TIP3   OH264027   6.577   4.565   0.286 -0.3287 -0.1113  0.5769
14179TIP3    H164028   6.486   4.596   0.275  0.5143  2.7153  0.6760
14179TIP3    H264029   6.614   4.569   0.198  0.4257  1.5799  0.9119
14180TIP3   OH264030   1.433   3.029  12.467 -0.1912 -0.4933  0.0375
14180TIP3    H164031   1.462   3.047  12.557 -0.0455  1.4705 -0.3602
14180TIP3    H264032   1.392   3.110  12.438 -0.7557 -1.2814 -1.4903
14181TIP3   OH264033   5.513   5.781  15.220  0.2094 -0.8209 -0.1807
14181TIP3    H164034   5.490   5.746  15.306  1.5466 -3.7339 -0.8731
14181TIP3    H264035   5.607   5.765  15.212  0.2663  0.1550 -1.8597
14182TIP3   OH264036   3.080   5.578  11.487  0.1363 -0.1819 -0.1116
14182TIP3    H164037   3.139   5.504  11.468 -0.4582 -0.2994 -1.6407
14182TIP3    H264038   2.998   5.555  11.443 -0.9556  0.1611  1.6634
14183TIP3   OH264039   3.144   5.379  12.948 -0.1403  0.1862 -0.5206
14183TIP3    H164040   3.146   5.287  12.972 -1.3763  0.4266  0.6426
14183TIP3    H264041   3.186   5.383  12.862  0.8284 -1.3025 -0.1532
14184TIP3   OH264042   4.837   3.342   4.113 -0.1161 -0.8129 -0.1535
14184TIP3    H164043   4.746   3.319   4.099 -0.0853 -0.8997 -0.2134
14184TIP3    H264044   4.886   3.282   4.057  0.0237 -1.3631  0.5454
14185TIP3   OH264045   0.690   5.409   3.032  0.2614  0.0398  0.1740
14185TIP3    H164046   0.680   5.489   3.083  0.7983 -1.1042  2.1653
14185TIP3    H264047   0.616   5.354   3.058 -0.4379  0.0576 -1.6030
14186TIP3   OH264048   1.449   2.862   5.012  0.3175 -0.3659 -0.1855
14186TIP3    H164049   1.478   2.796   4.950 -0.5773 -1.6538  0.7073
14186TIP3    H264050   1.419   2.812   5.088 -1.0135  1.0309  0.2682
14187TIP3   OH264051   0.159   4.784  12.077  0.0063 -0.7689 -0.0130
14187TIP3    H164052   0.097   4.714  12.055 -0.0625 -0.2867 -1.5375
14187TIP3    H264053   0.111   4.864  12.057  0.8166 -0.3638 -0.3549
14188TIP3   OH264054   3.993   5.670  13.727  0.4991 -0.0405 -0.2396
14188TIP3    H164055   4.075   5.667  13.778 -0.0887  1.6377  0.8968
14188TIP3    H264056   3.927   5.635  13.787 -0.0614  1.2033 -0.0914
14189TIP3   OH264057   5.188   5.006  15.430 -0.4040 -0.0596 -0.1027
14189TIP3    H164058   5.216   5.031  15.518 -1.0647 -0.4492  0.2278
14189TIP3    H264059   5.267   5.015  15.376 -0.2335  1.1612  0.3184
14190TIP3   OH264060   0.214   6.047  15.802 -0.2977  0.2204 -0.6553
14190TIP3    H164061   0.310   6.042  15.799 -0.2675  1.0978 -1.7342
14190TIP3    H264062   0.185   5.996  15.727 -0.7100 -0.5446  0.0131
14191TIP3   OH264063   0.734   4.780  16.351  0.4170 -0.2319  0.0713
14191TIP3    H164064   0.790   4.857  16.343  1.1008 -0.6523  0.7272
14191TIP3    H264065   0.671   4.804  16.419 -0.1531  0.2035 -0.5970
14192TIP3   OH264066   6.627   0.710  13.359 -0.0716  0.3047  0.2548
14192TIP3    H164067   6.642   0.661  13.278 -1.4696 -0.6203  0.5267
14192TIP3    H264068   6.646   0.801  13.335 -0.6966  0.0834 -1.1953
14193TIP3   OH264069   4.403   1.447  16.036 -0.1778 -0.0783  0.1083
14193TIP3    H164070   4.457   1.523  16.059  2.1270 -1.3287 -0.8812
14193TIP3    H264071   4.463   1.386  15.994 -1.6762 -2.9735  1.8148
14194TIP3   OH264072   5.047   1.893  13.656 -0.5840 -0.0680  0.8106
14194TIP3    H164073   5.031   1.944  13.576 -1.1826  0.1963  1.0938
14194TIP3    H264074   4.967   1.842  13.667 -0.0039 -1.0722  0.5401
14195TIP3   OH264075   4.374   1.284  16.555 -0.1655 -0.2850  0.7046
14195TIP3    H164076   4.295   1.229  16.555  1.0247 -2.0714  0.8127
14195TIP3    H264077   4.419   1.261  16.474  0.0429  1.0934  0.3973
14196TIP3   OH264078   6.337   4.817   2.269 -0.2097 -0.2204  0.4657
14196TIP3    H164079   6.341   4.896   2.216  1.6816 -0.6569 -0.1287
14196TIP3    H264080   6.425   4.779   2.263 -1.2165 -2.7247  0.1974
14197TIP3   OH264081   5.852   3.239  13.539  0.2289  0.3409  0.2766
14197TIP3    H164082   5.773   3.293  13.538 -0.3362 -0.4379 -1.3106
14197TIP3    H264083   5.839   3.179  13.612 -0.4901  0.4468  0.2493
14198TIP3   OH264084   0.558   0.537   2.735 -0.5243 -0.0872  0.6523
14198TIP3    H164085   0.475   0.532   2.688 -0.1479 -0.9825  0.0473
14198TIP3    H264086   0.533   0.549   2.827 -1.3055  0.2085  0.4048
14199TIP3   OH264087   4.276   2.720  16.366  0.1694 -0.7533 -0.8503
14199TIP3    H164088   4.364   2.721  16.328  0.2308  0.5662 -0.7189
14199TIP3    H264089   4.242   2.633  16.345  1.5834 -1.3666 -0.7017
14200TIP3   OH264090   6.115   3.094   5.740 -0.1603  0.3727 -0.2372
14200TIP3    H164091   6.169   3.073   5.664 -1.3701  0.6061 -1.1954
14200TIP3    H264092   6.129   3.022   5.801  0.3803 -0.1110 -0.9203
14201TIP3   OH264093   2.590   5.662  12.207  0.4802 -0.0573 -0.1921
14201TIP3    H164094   2.496   5.677  12.222  0.6666 -0.4108  1.5011
14201TIP3    H264095   2.622   5.626  12.290  1.0934 -5.0547 -2.2639
14202TIP3   OH264096   6.410   3.478   5.192 -0.1917 -0.1816  0.9592
14202TIP3    H164097   6.394   3.465   5.099 -0.2803 -0.0940  0.9627
14202TIP3    H264098   6.441   3.568   5.199 -2.7242  0.7414  1.3316
14203TIP3   OH264099   4.304   4.570   6.186 -0.8962 -0.0546  1.0148
14203TIP3    H164100   4.285   4.485   6.147  1.3957 -0.5707  0.8416
14203TIP3    H264101   4.317   4.551   6.279 -2.0729  0.4334  1.2967
14204TIP3   OH264102   6.439   0.926   6.463 -0.4163 -0.0325 -0.1439
14204TIP3    H164103   6.354   0.908   6.422 -0.4560 -0.2903  0.0442
14204TIP3    H264104   6.461   1.015   6.435 -0.6445 -0.0451 -0.3718
14205TIP3   OH264105   6.222   0.600  14.207  0.1593 -0.5557 -0.4725
14205TIP3    H164106   6.300   0.641  14.171  0.1464 -0.0362  0.0717
14205TIP3    H264107   6.222   0.626  14.299 -0.9440 -0.0909 -0.5843
14206TIP3   OH264108   3.504   4.938  16.512  0.5340 -0.5446  0.1629
14206TIP3    H164109   3.501   5.023  16.469  0.4759 -1.0374 -0.8426
14206TIP3    H264110   3.415   4.925  16.545  0.4203 -0.4038 -0.0816
14207TIP3   OH264111   1.679   4.666   1.066 -0.5366  0.0271 -0.0463
14207TIP3    H164112   1.607   4.715   1.106 -1.5488 -1.4945  0.0874
14207TIP3    H264113   1.686   4.586   1.119  0.3335 -0.4854 -0.8978
14208TIP3   OH264114   0.183   2.039   2.769 -0.5121 -0.3054  0.5939
14208TIP3    H164115   0.155   2.079   2.851 -1.2326 -2.4181  1.4410
14208TIP3    H264116   0.199   2.113   2.711 -1.8646  1.1966  2.0275
14209TIP3   OH264117   4.489   2.866   1.749  0.0810 -0.0214  0.0656
14209TIP3    H164118   4.542   2.788   1.733 -0.4872 -0.7872  1.6617
14209TIP3    H264119   4.553   2.933   1.775  0.4995 -0.1512 -0.5963
14210TIP3   OH264120   4.759   2.602   4.335  0.3211  0.8695  0.2348
14210TIP3    H164121   4.683   2.612   4.277 -0.8413 -2.6152  0.8921
14210TIP3    H264122   4.827   2.565   4.280 -0.3106 -1.0598  0.6540
14211TIP3   OH264123   2.664   5.094   5.588 -0.1209 -0.4834  0.4557
14211TIP3    H164124   2.728   5.143   5.536  0.2230 -1.9357 -0.5499
14211TIP3    H264125   2.649   5.149   5.666  0.9140  0.7631 -0.1856
14212TIP3   OH264126   4.957   3.084   4.276  0.2293 -0.0847 -0.8344
14212TIP3    H164127   4.888   3.072   4.210 -0.1505  0.8436 -0.6253
14212TIP3    H264128   4.973   3.178   4.277  0.5546 -0.1370  0.0712
14213TIP3   OH264129   2.653   1.603  14.321 -0.1192 -0.0910  0.2580
14213TIP3    H164130   2.583   1.599  14.386 -0.9972 -1.6295 -0.7232
14213TIP3    H264131   2.677   1.512  14.305  0.2105  0.2498 -1.4174
14214TIP3   OH264132   5.836   2.673  14.948 -0.1584  0.1215 -0.1845
14214TIP3    H164133   5.872   2.687  15.035 -0.8980 -0.2492  0.1870
14214TIP3    H264134   5.910   2.640  14.896 -0.0804 -1.2074  0.7246
14215TIP3   OH264135   3.665   4.677  10.568  0.1647 -0.0968 -0.2270
14215TIP3    H164136   3.580   4.678  10.524  0.6995 -0.9219 -1.3119
14215TIP3    H264137   3.653   4.734  10.644 -1.2727  0.0163 -0.5139
14216TIP3   OH264138   5.317   2.022   5.560  0.4242  0.0738  0.0788
14216TIP3    H164139   5.338   2.067   5.478  0.5280 -1.4115 -0.7530
14216TIP3    H264140   5.378   2.058   5.624 -0.9442  2.6728  0.0201
14217TIP3   OH264141   3.704   2.094  15.811  0.2591 -0.3926 -0.4499
14217TIP3    H164142   3.790   2.056  15.794 -0.4489 -1.9755 -0.7017
14217TIP3    H264143   3.666   2.038  15.879 -0.1883  0.8918  0.3884
14218TIP3   OH264144   3.990   5.649   1.612 -0.1452  0.1749 -0.6551
14218TIP3    H164145   4.083   5.649   1.590 -0.2881  1.0832 -1.3503
14218TIP3    H264146   3.946   5.630   1.529 -0.5525 -1.6624 -0.0527
14219TIP3   OH264147   1.498   4.577  17.098 -0.3253 -0.0884 -0.5663
14219TIP3    H164148   1.470   4.658  17.055 -2.1530 -0.7236 -0.6520
14219TIP3    H264149   1.548   4.530  17.032 -1.2446 -0.0657 -1.2931
14220TIP3   OH264150   3.296   6.603   5.697  0.3112 -0.4090  0.1793
14220TIP3    H164151   3.345   6.627   5.776 -0.2183 -1.7445  0.9453
14220TIP3    H264152   3.204   6.624   5.719  0.1061 -1.2130  0.1015
14221TIP3   OH264153   0.106   3.849  13.100 -0.0764  0.6346 -0.6588
14221TIP3    H164154   0.027   3.877  13.147 -1.9172 -2.7617 -1.4270
14221TIP3    H264155   0.178   3.878  13.156 -2.0145 -0.8841  2.9908
14222TIP3   OH264156   2.418   5.431   4.918 -0.4587  0.3416  0.2194
14222TIP3    H164157   2.367   5.499   4.874 -1.6353 -0.6174  0.0299
14222TIP3    H264158   2.509   5.450   4.895 -0.9730  0.3098 -2.0245
14223TIP3   OH264159   1.951   1.721   4.186  0.0050 -0.3610 -0.4483
14223TIP3    H164160   2.040   1.689   4.173 -0.1577 -0.7554 -0.6041
14223TIP3    H264161   1.952   1.757   4.275  0.0736 -1.2253 -0.0831
14224TIP3   OH264162   4.450   6.026  13.780  0.3498 -0.0612 -0.0476
14224TIP3    H164163   4.365   5.981  13.780  0.0943  0.2047 -3.3959
14224TIP3    H264164   4.428   6.117  13.762  1.3014  0.1602 -0.0976
14225TIP3   OH264165   5.759   1.385  11.384  0.0398 -0.0207 -0.4968
14225TIP3    H164166   5.852   1.410  11.385  0.2754 -0.8338  1.2074
14225TIP3    H264167   5.724   1.427  11.305  1.3588  2.1191 -0.0291
14226TIP3   OH264168   4.751   0.469   6.326  0.2384  0.0509  0.0665
14226TIP3    H164169   4.757   0.553   6.372  1.8203  0.5234 -0.8940
14226TIP3    H264170   4.823   0.417   6.362  0.5917 -0.0933 -0.8196
14227TIP3   OH264171   6.532   5.425   2.957 -1.0886  0.4079 -0.1119
14227TIP3    H164172   6.610   5.475   2.981 -1.0755  0.9472 -1.2515
14227TIP3    H264173   6.499   5.391   3.041 -0.3072  1.1508  0.5118
14228TIP3   OH264174   5.367   4.621   3.217 -0.1878 -0.2657  0.0098
14228TIP3    H164175   5.430   4.576   3.160 -1.5740 -0.8249 -1.1431
14228TIP3    H264176   5.394   4.713   3.214  0.6373 -0.5065 -0.3727
14229TIP3   OH264177   4.694   1.349  14.012  0.2118 -0.1659  0.1943
14229TIP3    H164178   4.710   1.367  13.919 -2.1051 -2.5740 -0.7795
14229TIP3    H264179   4.599   1.359  14.023  0.5114  0.8197  2.5292
14230TIP3   OH264180   5.225   1.178  12.940  0.3804  0.2954  0.5611
14230TIP3    H164181   5.282   1.101  12.935 -0.2292 -0.1994  0.9494
14230TIP3    H264182   5.199   1.182  13.033 -1.0035 -0.0908  0.2145
14231TIP3   OH264183   1.558   6.017  12.023 -0.1307  0.6412  0.3758
14231TIP3    H164184   1.551   5.993  11.930  0.5919  0.6673  0.3092
14231TIP3    H264185   1.475   6.059  12.043 -1.3852 -1.6759  0.4300
14232TIP3   OH264186   3.959   1.156   2.897  0.2361 -0.2031 -0.0277
14232TIP3    H164187   4.022   1.229   2.900 -0.0866  0.0530  0.7045
14232TIP3    H264188   3.889   1.187   2.839 -0.8749  0.8960  1.7954
14233TIP3   OH264189   6.199   6.379  16.298 -0.4035 -0.1073 -0.3952
14233TIP3    H164190   6.236   6.380  16.210 -0.4770  0.4011 -0.4259
14233TIP3    H264191   6.207   6.288  16.327  4.4191  0.5384  1.0860
14234TIP3   OH264192   2.158   3.047   4.843 -0.1276 -0.1282  0.6363
14234TIP3    H164193   2.197   3.132   4.824  0.8179 -0.3321  1.5901
14234TIP3    H264194   2.108   3.025   4.764  1.8265  0.0624 -0.7120
14235TIP3   OH264195   5.520   3.853   2.564 -0.2376 -0.0351  0.0489
14235TIP3    H164196   5.472   3.797   2.502  0.2914 -0.8729  0.3854
14235TIP3    H264197   5.526   3.801   2.644 -0.7455  0.9586  0.7635
14236TIP3   OH264198   5.366   0.354   3.398 -0.3679  0.3475 -0.0577
14236TIP3    H164199   5.394   0.443   3.422 -1.5289  1.2068 -1.6205
14236TIP3    H264200   5.303   0.368   3.327  0.3002 -1.7947 -1.1676
14237TIP3   OH264201   1.251   0.781   0.278  0.6798 -0.0461  0.1035
14237TIP3    H164202   1.293   0.842   0.339  1.6048  0.0388 -0.5910
14237TIP3    H264203   1.274   0.695   0.312  1.0957  0.0011 -0.0484
14238TIP3   OH264204   1.105   6.776  12.943 -0.1137  0.0497 -0.3904
14238TIP3    H164205   1.076   6.685  12.955 -1.4627  0.4059 -0.8331
14238TIP3    H264206   1.192   6.767  12.905  0.4793 -1.0477  1.0981
14239TIP3   OH264207   5.490   0.498   0.997  0.3560  0.0630  0.0294
14239TIP3    H164208   5.565   0.535   0.951  1.2391 -2.6035 -0.8626
14239TIP3    H264209   5.434   0.463   0.927 -0.4688 -0.2242  0.8098
14240TIP3   OH264210   1.361   0.929  17.103  0.2846  0.4873  0.2956
14240TIP3    H164211   1.432   0.867  17.121 -1.8073 -1.7481  1.5458
14240TIP3    H264212   1.282   0.882  17.130 -1.7465  2.6286 -1.5582
14241TIP3   OH264213   3.477   5.346  12.490 -0.5276  0.0901 -0.2676
14241TIP3    H164214   3.547   5.281  12.491  0.3060  0.9422 -1.2844
14241TIP3    H264215   3.456   5.357  12.398  0.2618  2.1947 -0.2513
14242TIP3   OH264216   3.479   6.244   3.195  0.4486  0.4335 -0.3973
14242TIP3    H164217   3.453   6.321   3.244  3.2922  1.1394  0.1842
14242TIP3    H264218   3.499   6.277   3.107 -0.8689 -0.1535 -0.9474
14243TIP3   OH264219   2.534   3.195  11.314  0.2226  0.0672 -0.0810
14243TIP3    H164220   2.449   3.178  11.355 -0.1368  2.7467  0.4920
14243TIP3    H264221   2.513   3.251  11.239  0.9976 -3.6087 -3.3822
14244TIP3   OH264222   2.137   3.556  11.759 -0.1179  0.1430 -0.1528
14244TIP3    H164223   2.210   3.602  11.800  0.0734  0.9249 -1.3175
14244TIP3    H264224   2.067   3.621  11.753 -0.9911 -0.6492  1.1050
14245TIP3   OH264225   1.822   2.749  16.350  0.1591  0.4090 -0.2172
14245TIP3    H164226   1.747   2.702  16.313  0.0868  0.4736 -0.1534
14245TIP3    H264227   1.898   2.716  16.301  0.1716 -0.1328  0.1717
14246TIP3   OH264228   3.004   5.758   1.598 -0.4910 -0.7652  0.1602
14246TIP3    H164229   2.949   5.832   1.625  0.0463 -0.1724 -0.3521
14246TIP3    H264230   3.052   5.790   1.522  0.4443 -1.3353  0.5025
14247TIP3   OH264231   3.330   2.618   3.842  0.2136  0.4379 -1.3127
14247TIP3    H164232   3.421   2.608   3.817  0.8988  2.1008  0.3175
14247TIP3    H264233   3.325   2.703   3.886 -1.5271 -0.7426  1.0564
14248TIP3   OH264234   5.009   6.298  14.803  0.1517 -0.7713  0.2104
14248TIP3    H164235   5.056   6.360  14.748 -2.6316  0.7983 -0.6087
14248TIP3    H264236   4.950   6.252  14.743  0.7928 -2.8910  1.1089
14249TIP3   OH264237   5.388   3.971  13.530  0.2137 -0.2030  0.4233
14249TIP3    H164238   5.360   3.955  13.620  0.6501 -1.8865  0.2803
14249TIP3    H264239   5.453   4.041  13.537 -0.8507  0.7572  1.2154
14250TIP3   OH264240   1.429   5.450   2.960  0.1230 -0.0687  0.3461
14250TIP3    H164241   1.378   5.391   2.905  2.4064 -0.5141 -1.4569
14250TIP3    H264242   1.428   5.534   2.912  0.6463  0.0541  0.5457
14251TIP3   OH264243   4.704   2.687  11.372 -0.1101 -0.5638 -0.4338
14251TIP3    H164244   4.766   2.638  11.426  0.5187  0.5480 -0.1076
14251TIP3    H264245   4.624   2.692  11.424  0.3089  0.0088  0.1677
14252TIP3   OH264246   5.769   4.049   1.157  0.2754  0.2484 -0.4161
14252TIP3    H164247   5.795   3.967   1.113  3.2425  1.5513 -1.3703
14252TIP3    H264248   5.709   4.091   1.096 -0.2954 -0.6426 -0.4831
14253TIP3   OH264249   5.510   1.072  13.541 -0.2172 -0.8587 -0.5016
14253TIP3    H164250   5.540   1.162  13.532  0.4887 -1.0022  0.1974
14253TIP3    H264251   5.431   1.078  13.595  0.1118 -0.6899 -0.0271
14254TIP3   OH264252   6.131   2.969  13.344  0.2730 -0.0677 -0.3051
14254TIP3    H164253   6.106   2.952  13.435 -0.0214  1.2540 -0.1233
14254TIP3    H264254   6.161   2.884  13.312 -0.6615 -0.8025  0.6861
14255TIP3   OH264255   2.542   4.208   5.389  0.5095  0.5012 -0.1842
14255TIP3    H164256   2.517   4.154   5.465 -4.5594  0.2065 -1.6532
14255TIP3    H264257   2.543   4.146   5.316  3.6499  1.0745 -0.7538
14256TIP3   OH264258   0.338   1.034  13.425  0.1168  0.0486 -0.4547
14256TIP3    H164259   0.322   1.121  13.462 -0.2536  0.8946 -2.4755
14256TIP3    H264260   0.252   0.991  13.427 -0.4764  1.0135 -2.4722
14257TIP3   OH264261   5.047   6.032   4.943  0.3828 -0.1219  0.1264
14257TIP3    H164262   5.055   5.989   4.857  1.9819  0.4352 -0.0359
14257TIP3    H264263   5.133   6.070   4.959 -0.1269  0.4787  1.6329
14258TIP3   OH264264   4.256   5.174   5.496  0.7151  0.2320  0.0887
14258TIP3    H164265   4.339   5.154   5.453  1.1271  1.0742  0.4524
14258TIP3    H264266   4.214   5.089   5.509  0.6966 -0.0725 -1.7038
14259TIP3   OH264267   1.327   6.505   5.039  0.0784 -0.6135  0.0944
14259TIP3    H164268   1.422   6.491   5.039  0.0203 -1.0748 -0.5630
14259TIP3    H264269   1.291   6.420   5.064 -0.1751 -0.6029 -0.2243
14260TIP3   OH264270   6.694   4.845  12.119  0.2060 -0.4574  0.1577
14260TIP3    H164271   6.629   4.903  12.159  0.0156  0.9113 -1.9720
14260TIP3    H264272   6.646   4.797  12.051  1.6140  2.1713 -2.9999
14261TIP3   OH264273   0.417   1.977  11.481 -0.0657  0.0943  0.3886
14261TIP3    H164274   0.495   1.935  11.518  1.2392  1.8811 -0.1887
14261TIP3    H264275   0.450   2.026  11.406 -1.6336  1.4695  0.5491
14262TIP3   OH264276   1.702   1.763   1.921  0.3034  0.4970  0.4739
14262TIP3    H164277   1.777   1.808   1.882 -0.2178  0.7271 -0.3109
14262TIP3    H264278   1.640   1.754   1.848 -0.3961  0.2523  1.0882
14263TIP3   OH264279   1.844   0.311   1.923 -0.2115  0.6176 -0.4076
14263TIP3    H164280   1.823   0.356   2.005 -1.0241 -1.2224  0.4339
14263TIP3    H264281   1.938   0.293   1.930 -0.0117  1.5500 -0.4652
14264TIP3   OH264282   0.796   5.728   6.465 -0.2089 -0.1680 -0.1832
14264TIP3    H164283   0.801   5.783   6.543  0.1970  1.5434 -1.3395
14264TIP3    H264284   0.710   5.686   6.471  0.7605 -2.0075  2.3314
14265TIP3   OH264285   3.137   0.581  14.697  1.2372 -0.2021  0.1044
14265TIP3    H164286   3.060   0.549  14.744  1.0930  0.5918  0.4117
14265TIP3    H264287   3.166   0.505  14.645 -1.7126  0.3669 -2.6650
14266TIP3   OH264288   5.459   5.245  12.325  0.3358  0.4642  0.1697
14266TIP3    H164289   5.483   5.154  12.306  1.1279  0.9981 -1.6367
14266TIP3    H264290   5.505   5.266  12.405  2.4182  0.0862 -0.8745
14267TIP3   OH264291   1.884   5.950   2.979 -0.1788  0.5444  0.2439
14267TIP3    H164292   1.821   5.878   2.978 -0.8983  1.0500  2.3305
14267TIP3    H264293   1.969   5.908   2.972 -0.5375 -0.6421  2.2112
14268TIP3   OH264294   4.946   2.548  12.965 -0.3410  0.6418 -0.2730
14268TIP3    H164295   4.967   2.571  12.875  2.0617 -0.1958  0.0027
14268TIP3    H264296   4.944   2.453  12.966  2.1182  0.5132  0.9462
14269TIP3   OH264297   1.766   0.128   5.139  0.4533 -0.0647 -0.2696
14269TIP3    H164298   1.763   0.199   5.203 -0.4513 -1.8032  1.7467
14269TIP3    H264299   1.680   0.131   5.096 -0.2354 -0.9110  0.9951
14270TIP3   OH264300   6.429   1.132   1.093  0.3295  0.1482  0.4342
14270TIP3    H164301   6.484   1.192   1.143 -2.0015  1.6933  1.3412
14270TIP3    H264302   6.485   1.102   1.021  1.8426  2.9194  0.3110
14271TIP3   OH264303   0.827   0.158   0.672  0.5230  0.4029  0.3686
14271TIP3    H164304   0.873   0.235   0.639 -0.2737 -0.0993 -2.1083
14271TIP3    H264305   0.735   0.182   0.672  0.2962 -0.4217 -0.0769
14272TIP3   OH264306   3.741   3.676   0.452  0.2241  0.4040  0.1915
14272TIP3    H164307   3.696   3.760   0.442 -0.0873  0.1778 -0.3904
14272TIP3    H264308   3.691   3.616   0.397 -0.9870 -0.7381  2.4101
14273TIP3   OH264309   2.082   1.408  12.254  0.2015 -0.5234 -0.5683
14273TIP3    H164310   2.154   1.422  12.192  1.1662  1.4728  0.8648
14273TIP3    H264311   2.074   1.492  12.300 -1.2791 -1.5434  1.1548
14274TIP3   OH264312   1.095   4.054   2.684 -0.0139  0.5256  0.1496
14274TIP3    H164313   1.181   4.014   2.668 -0.4617 -0.4477  0.1262
14274TIP3    H264314   1.082   4.045   2.778 -0.4887 -0.1578  0.0217
14275TIP3   OH264315   2.999   4.735   0.119  0.0463 -1.1080  0.2078
14275TIP3    H164316   2.976   4.656   0.070 -1.6081  0.3720 -1.5432
14275TIP3    H264317   2.933   4.739   0.189 -1.2843 -0.1556 -1.0527
14276TIP3   OH264318   6.228   6.190   1.286  0.1742  0.4128 -0.0341
14276TIP3    H164319   6.208   6.170   1.194 -0.1900 -0.0041  0.1330
14276TIP3    H264320   6.312   6.236   1.283 -0.4588  1.5831 -0.7011
14277TIP3   OH264321   3.399   3.987   1.726  0.0979 -0.1638  0.2464
14277TIP3    H164322   3.390   3.906   1.677  0.2291 -1.1440  1.7595
14277TIP3    H264323   3.491   4.010   1.720  0.1260 -0.3202  0.1001
14278TIP3   OH264324   6.395   0.483   1.950 -0.2908 -0.1455 -0.0427
14278TIP3    H164325   6.406   0.484   2.045 -0.7710 -0.9888  0.0266
14278TIP3    H264326   6.369   0.393   1.929 -0.4873  0.1066 -0.9374
14279TIP3   OH264327   6.784   3.585  15.648 -0.8258  0.7071 -0.1094
14279TIP3    H164328   6.844   3.609  15.719 -1.5406  0.4998  0.5767
14279TIP3    H264329   6.735   3.511  15.682  1.9655 -2.5905 -2.4687
14280TIP3   OH264330   5.485   1.740   2.408  0.0979 -0.3918 -0.1489
14280TIP3    H164331   5.428   1.665   2.393  0.9464 -1.3799  1.3291
14280TIP3    H264332   5.574   1.708   2.391  0.8016 -0.6901  3.3518
14281TIP3   OH264333   4.874   2.370   1.052 -0.3401  0.2656  0.1805
14281TIP3    H164334   4.868   2.275   1.055 -0.4473  0.2937  1.1285
14281TIP3    H264335   4.787   2.400   1.079  0.1219  0.6366  1.2828
14282TIP3   OH264336   2.344   5.594  14.892  0.5080  0.9012  0.6142
14282TIP3    H164337   2.290   5.515  14.884  2.0032  0.0160 -1.6926
14282TIP3    H264338   2.306   5.655  14.829  1.1458  0.8987  0.2165
14283TIP3   OH264339   6.487   1.134   2.815 -0.2783  0.2626  0.3151
14283TIP3    H164340   6.435   1.191   2.871  0.3003  1.1536 -0.0162
14283TIP3    H264341   6.439   1.130   2.732 -0.7261 -0.3892  0.6103
14284TIP3   OH264342   5.600   2.047   5.324 -0.1802 -0.3395 -0.0585
14284TIP3    H164343   5.528   1.998   5.283 -1.4366  0.3328  1.2260
14284TIP3    H264344   5.556   2.106   5.385  1.4723  0.3830  0.4847
14285TIP3   OH264345   3.207   3.079   6.214 -0.1700  0.1405 -0.6056
14285TIP3    H164346   3.209   3.086   6.310 -1.7521  0.6492 -0.5669
14285TIP3    H264347   3.143   3.010   6.196  0.8258 -0.6151 -1.2908
14286TIP3   OH264348   6.708   0.409   4.226 -0.2709  0.1187  0.1277
14286TIP3    H164349   6.709   0.347   4.299  1.1577 -1.2912 -1.0051
14286TIP3    H264350   6.679   0.492   4.265 -1.5379 -1.0639  1.8390
14287TIP3   OH264351   2.198   0.949   5.431  0.4129 -0.3719 -0.4566
14287TIP3    H164352   2.156   1.004   5.497 -0.3952  0.6344 -1.7606
14287TIP3    H264353   2.277   0.916   5.473  0.5968  1.3030  0.5773
14288TIP3   OH264354   4.595   6.225  16.107  1.0687  0.1565  0.7501
14288TIP3    H164355   4.605   6.268  16.022  1.0918  0.1402  0.7444
14288TIP3    H264356   4.685   6.201  16.132  1.1808  0.9932  1.2127
14289TIP3   OH264357   2.304   2.975  10.929  0.1270  0.2596 -0.1005
14289TIP3    H164358   2.387   3.003  10.968 -0.1025  2.1565 -0.8480
14289TIP3    H264359   2.318   2.983  10.834 -0.4855 -0.7240 -0.2857
14290TIP3   OH264360   2.881   6.752  10.468 -0.6602  0.4622 -0.3264
14290TIP3    H164361   2.969   6.732  10.499 -1.1175 -2.1285 -0.4396
14290TIP3    H264362   2.877   6.847  10.466  1.8870  0.6593  0.3475
14291TIP3   OH264363   6.330   0.292  15.829 -0.2358  0.0577  0.5483
14291TIP3    H164364   6.421   0.308  15.854 -0.2295  0.7465  0.0999
14291TIP3    H264365   6.316   0.199  15.847  0.4209  0.0499  1.0380
14292TIP3   OH264366   3.385   1.600   1.569 -0.2117 -0.2273  0.4132
14292TIP3    H164367   3.440   1.608   1.491 -2.0485  1.2427 -0.8112
14292TIP3    H264368   3.441   1.629   1.641  2.1277 -3.2480  0.0690
14293TIP3   OH264369   4.827   0.476   6.048 -0.8424  0.3084 -0.1097
14293TIP3    H164370   4.866   0.562   6.030 -1.4946  0.3807 -1.2734
14293TIP3    H264371   4.795   0.484   6.138 -0.9242  1.3102 -0.2084
14294TIP3   OH264372   2.648   2.651  16.566  0.1749  0.0299  0.2644
14294TIP3    H164373   2.675   2.684  16.480 -0.9405  0.4820  0.0688
14294TIP3    H264374   2.730   2.624  16.608  0.5621 -2.8558 -1.9962
14295TIP3   OH264375   1.365   5.440   3.286 -0.6095 -0.1328 -0.3250
14295TIP3    H164376   1.333   5.467   3.199 -1.6116  0.2617  0.1477
14295TIP3    H264377   1.440   5.384   3.268 -1.0568 -0.3849 -1.4616
14296TIP3   OH264378   6.049   4.790  13.974  0.3247  0.2328  0.5424
14296TIP3    H164379   6.144   4.796  13.976  0.3012  1.4164 -0.3798
14296TIP3    H264380   6.029   4.700  13.997  1.7319 -0.4374 -0.7055
14297TIP3   OH264381   3.940   1.358  12.167  0.5470  0.2454  0.2734
14297TIP3    H164382   3.869   1.309  12.209  0.7199 -1.2210 -1.0379
14297TIP3    H264383   3.941   1.442  12.212 -2.1623  0.4032  0.2222
14298TIP3   OH264384   5.256   3.315  10.960 -0.0241 -0.3101 -0.1722
14298TIP3    H164385   5.237   3.339  10.869 -0.7937  1.9440  0.5182
14298TIP3    H264386   5.330   3.370  10.985 -1.3541  0.9094  1.2614
14299TIP3   OH264387   2.962   5.769  13.412 -0.7947  0.0883  0.2341
14299TIP3    H164388   3.012   5.697  13.449  0.3491  1.6677  1.9445
14299TIP3    H264389   2.958   5.834  13.482 -1.6056  1.7660 -1.2888
14300TIP3   OH264390   3.023   2.941  15.582 -0.1553  0.0051  0.2624
14300TIP3    H164391   2.969   2.888  15.524 -0.3224 -0.1741  0.5807
14300TIP3    H264392   2.977   3.024  15.588  0.0054  0.1252 -0.0785
14301TIP3   OH264393   2.495   4.948   3.650  0.8135  0.1541 -0.4350
14301TIP3    H164394   2.496   5.044   3.654  1.7008  0.1428  0.0467
14301TIP3    H264395   2.424   4.922   3.709  0.3893  0.5172 -0.7790
14302TIP3   OH264396   5.093   1.636   6.209  0.6117 -0.2343 -0.0299
14302TIP3    H164397   5.144   1.569   6.254 -0.9434 -0.6601  1.2001
14302TIP3    H264398   5.108   1.716   6.260  0.1868 -0.3344  0.2647
14303TIP3   OH264399   4.785   3.660  11.792 -0.2897 -0.3097 -0.2666
14303TIP3    H164400   4.842   3.717  11.844 -0.5081 -0.6039  0.2971
14303TIP3    H264401   4.846   3.610  11.737  0.0427 -1.0193  0.7254
14304TIP3   OH264402   5.338   5.339   1.990  0.5573  0.0367 -0.1609
14304TIP3    H164403   5.376   5.255   1.963  0.0750 -0.6980  1.3235
14304TIP3    H264404   5.244   5.322   1.995  0.4787  0.5998  0.3706
14305TIP3   OH264405   0.036   2.845   4.711  0.1031 -1.0651 -0.2632
14305TIP3    H164406  -0.035   2.909   4.706  2.0254  1.0933 -2.1112
14305TIP3    H264407   0.071   2.856   4.799 -0.9278 -1.1726  0.1837
14306TIP3   OH264408   2.681   3.433  15.178  0.0044 -0.5974 -0.6959
14306TIP3    H164409   2.614   3.389  15.230  1.5211 -0.7182  1.2819
14306TIP3    H264410   2.647   3.431  15.089 -2.7077 -0.4370  0.2339
14307TIP3   OH264411   4.345   6.582   3.401  0.2575 -0.0831 -0.3262
14307TIP3    H164412   4.412   6.536   3.350  0.8825 -0.3006  0.6641
14307TIP3    H264413   4.265   6.531   3.387  0.4420 -0.2104 -0.9676
14308TIP3   OH264414   2.156   0.214   0.499 -0.5961  0.2844  0.2108
14308TIP3    H164415   2.082   0.258   0.458 -0.6378  0.9436  0.9662
14308TIP3    H264416   2.121   0.183   0.583 -0.2776 -0.2729  0.1441
14309TIP3   OH264417   4.077   5.373  15.800  0.1240 -0.4167 -0.5182
14309TIP3    H164418   4.074   5.391  15.893  0.4705 -1.4326 -0.2868
14309TIP3    H264419   4.005   5.311  15.785  0.0279 -0.2077 -0.9360
14310TIP3   OH264420   6.550   1.652  13.785  0.1398  0.2166 -0.0667
14310TIP3    H164421   6.590   1.698  13.711  0.9546 -2.3842 -1.3695
14310TIP3    H264422   6.470   1.614  13.749 -0.7573  0.9287  1.1002
14311TIP3   OH264423   2.619   4.020   3.107  0.6038 -0.3437  0.2229
14311TIP3    H164424   2.592   4.034   3.197 -0.5036  0.8619 -0.2654
14311TIP3    H264425   2.555   3.957   3.073  0.8782 -0.6176  0.2126
14312TIP3   OH264426   1.282   6.330  15.340 -0.5025 -0.7468  0.1271
14312TIP3    H164427   1.265   6.424  15.350  0.0819 -0.6414  0.2312
14312TIP3    H264428   1.256   6.310  15.251  2.4977  0.2716 -1.1201
14313TIP3   OH264429   6.591   1.818   3.390 -0.7241 -0.3174 -0.7368
14313TIP3    H164430   6.552   1.737   3.424  1.6651 -1.4426 -0.4363
14313TIP3    H264431   6.632   1.858   3.466  1.5815 -0.9825 -1.5646
14314TIP3   OH264432   6.045   5.043  15.660 -0.4602  0.0601 -0.0194
14314TIP3    H164433   6.113   5.063  15.595  0.0700  1.6674  0.9676
14314TIP3    H264434   5.988   4.979  15.616  0.1279  0.7399 -1.8834
14315TIP3   OH264435   6.713   0.792   3.295 -0.0937  0.1864  0.1446
14315TIP3    H164436   6.791   0.736   3.300  0.3051  0.7785  0.8446
14315TIP3    H264437   6.658   0.751   3.229 -0.4859 -1.9083  1.6610
14316TIP3   OH264438   2.449   0.738  16.510 -0.8140  0.4924 -0.2725
14316TIP3    H164439   2.495   0.816  16.540 -0.7154  1.0682 -1.8211
14316TIP3    H264440   2.398   0.709  16.586  2.4119 -0.4904  1.7299
14317TIP3   OH264441   5.330   6.260   4.230  0.0557 -0.0177  0.4141
14317TIP3    H164442   5.328   6.355   4.242 -0.9829  0.3424 -2.0375
14317TIP3    H264443   5.418   6.241   4.198  0.0219  0.2126  0.1877
14318TIP3   OH264444   1.411   0.005   4.215  0.3008 -0.0588 -0.8663
14318TIP3    H164445   1.491   0.035   4.258  1.0906  0.2701 -2.5048
14318TIP3    H264446   1.390  -0.077   4.259  0.1765  1.0028  1.1869
14319TIP3   OH264447   4.167   4.818  15.044 -0.5284 -0.1870 -0.0564
14319TIP3    H164448   4.203   4.872  15.115  1.2812  0.0163 -1.0861
14319TIP3    H264449   4.136   4.739  15.088  3.0428 -1.3195  0.7690
14320TIP3   OH264450   1.889   6.406  14.601 -0.0838  0.2560 -0.2097
14320TIP3    H164451   1.804   6.392  14.558 -0.1292  0.2606 -0.1229
14320TIP3    H264452   1.925   6.484  14.558  0.4509 -0.4748 -1.1232
14321TIP3   OH264453   3.414   5.267  14.664 -0.1793 -0.0085 -0.3517
14321TIP3    H164454   3.492   5.322  14.671 -0.9051  0.9650  0.7308
14321TIP3    H264455   3.427   5.214  14.586  1.8873 -0.4170  0.2326
14322TIP3   OH264456   4.683   0.537   4.816 -0.4053  0.3112  0.1988
14322TIP3    H164457   4.669   0.632   4.810  0.2564  0.3320 -1.5238
14322TIP3    H264458   4.778   0.526   4.810 -0.4015 -0.4383  1.2465
14323TIP3   OH264459   1.670   1.173   5.494  0.1605  0.3047 -0.2697
14323TIP3    H164460   1.711   1.186   5.579  1.4970 -1.0822 -0.6342
14323TIP3    H264461   1.733   1.210   5.431  0.2029 -0.5683 -0.7624
14324TIP3   OH264462   6.162   2.747   1.320  0.2931 -0.7773 -0.3513
14324TIP3    H164463   6.249   2.745   1.359  0.5054 -0.4288 -0.8027
14324TIP3    H264464   6.121   2.666   1.349  0.6169 -0.7497  0.2034
14325TIP3   OH264465   2.798   5.365  16.481  0.2904  0.6001  0.1332
14325TIP3    H164466   2.879   5.391  16.437  0.2144 -0.2105 -0.4933
14325TIP3    H264467   2.747   5.446  16.487  2.5367  2.0250  3.7120
14326TIP3   OH264468   6.544   6.729   1.605  0.2160  0.2510  0.4133
14326TIP3    H164469   6.601   6.805   1.616 -0.3789  0.9486 -0.9406
14326TIP3    H264470   6.508   6.740   1.516 -0.8802 -0.9309  0.6862
14327TIP3   OH264471   2.977   1.337   4.235 -0.6975 -0.1630 -0.1848
14327TIP3    H164472   3.071   1.344   4.222 -0.6777  0.2390  0.1541
14327TIP3    H264473   2.967   1.284   4.314 -0.7226  0.5619  0.3175
14328TIP3   OH264474   1.400   6.258   6.219  0.0470  0.7747 -0.2439
14328TIP3    H164475   1.467   6.195   6.242  0.5724  1.1428 -0.7465
14328TIP3    H264476   1.397   6.318   6.294 -1.6128 -0.7388  1.0098
14329TIP3   OH264477   5.605   3.066   6.004 -0.1800 -0.4680 -0.2338
14329TIP3    H164478   5.545   3.092   5.933  0.0080 -0.5726 -0.4320
14329TIP3    H264479   5.680   3.028   5.959 -0.5549 -1.5791  0.0638
14330TIP3   OH264480   3.719   0.372   1.090 -0.2856 -0.3878  0.2127
14330TIP3    H164481   3.629   0.356   1.116 -0.2317 -0.9486  0.0542
14330TIP3    H264482   3.758   0.417   1.166 -0.8789  0.4897  0.0053
14331TIP3   OH264483   3.530   6.449   4.844  0.9993  0.0252 -0.2496
14331TIP3    H164484   3.542   6.487   4.757  0.1425 -0.7513 -0.7280
14331TIP3    H264485   3.524   6.355   4.829  0.8701 -0.1192  0.6473
14332TIP3   OH264486   3.427   5.807   5.158 -0.7553  0.1192 -0.0121
14332TIP3    H164487   3.391   5.890   5.126 -2.3220 -0.0562  1.1446
14332TIP3    H264488   3.421   5.748   5.083 -2.0725  0.3780 -0.1439
14333TIP3   OH264489   2.824   1.346  15.158  0.5663  0.2552  0.4063
14333TIP3    H164490   2.840   1.403  15.233 -0.4403 -0.3225  1.0903
14333TIP3    H264491   2.761   1.282  15.190  0.7364 -0.4943 -0.7086
14334TIP3   OH264492   0.531   3.082  13.174  0.1873  0.0171 -0.5976
14334TIP3    H164493   0.438   3.096  13.192  0.2046  3.2398 -2.1891
14334TIP3    H264494   0.533   3.032  13.093 -0.0927 -0.8565 -0.0850
14335TIP3   OH264495   3.813   1.862  11.432  0.1117  0.4221  0.1113
14335TIP3    H164496   3.821   1.939  11.376  1.7862  0.9440  1.0051
14335TIP3    H264497   3.886   1.869  11.493 -1.0445 -0.6789  1.6986
14336TIP3   OH264498   3.050   5.879   6.034 -0.7802  0.1792 -0.1434
14336TIP3    H164499   3.028   5.797   6.077 -2.7723  0.1232 -1.1932
14336TIP3    H264500   3.015   5.947   6.091 -0.5766  0.2423 -0.0908
14337TIP3   OH264501   1.477   3.296   6.324 -0.2252 -0.2238 -0.0055
14337TIP3    H164502   1.552   3.250   6.287  0.3978 -0.6802  1.7531
14337TIP3    H264503   1.478   3.382   6.281  0.1154 -0.9071 -1.4265
14338TIP3   OH264504   5.197   2.417   4.112 -0.2101 -0.1277 -0.4885
14338TIP3    H164505   5.291   2.398   4.104  0.1093  0.2654  1.6259
14338TIP3    H264506   5.180   2.410   4.206 -1.6661  2.6633 -0.4705
14339TIP3   OH264507   2.797   4.135  14.097 -0.3517 -0.1273  0.0743
14339TIP3    H164508   2.834   4.185  14.170 -2.1847  0.3097  0.7649
14339TIP3    H264509   2.871   4.119  14.039  1.0568 -0.0071  1.7579
14340TIP3   OH264510   0.115   3.849   2.669 -0.3237 -0.2720 -0.1372
14340TIP3    H164511   0.155   3.899   2.599 -1.0316 -0.4376 -0.6679
14340TIP3    H264512   0.037   3.899   2.693 -0.4700 -0.5813  0.0400
14341TIP3   OH264513   3.438   6.835   4.740 -0.1500  0.7031  0.3594
14341TIP3    H164514   3.392   6.776   4.682 -1.0550  0.8685  0.8815
14341TIP3    H264515   3.460   6.911   4.685  1.0676 -0.1167 -0.3210
14342TIP3   OH264516   2.783   3.019   1.854 -0.0640  0.1589 -0.1516
14342TIP3    H164517   2.762   3.087   1.790  1.4497  1.8854  1.0611
14342TIP3    H264518   2.799   2.941   1.802  0.0323  1.2233 -1.7892
14343TIP3   OH264519   4.667   2.215  15.651  0.6803  0.2718  0.4977
14343TIP3    H164520   4.656   2.191  15.559 -1.0226  0.5276  0.6055
14343TIP3    H264521   4.760   2.237  15.659  1.3107 -1.6836 -0.6907
14344TIP3   OH264522   4.611   5.715  13.040 -0.1864 -0.2323  0.0721
14344TIP3    H164523   4.520   5.696  13.017 -0.0883 -0.3327 -0.2450
14344TIP3    H264524   4.662   5.683  12.965 -0.0202  1.2197 -0.4742
14345TIP3   OH264525   0.310   4.575  15.804  0.4582  0.0918  0.2428
14345TIP3    H164526   0.371   4.514  15.845 -1.3028 -0.1908  2.7001
14345TIP3    H264527   0.243   4.518  15.765  1.6001  0.3965 -2.3893
14346TIP3   OH264528   1.010   1.454  14.505  0.3217 -0.3755  0.5545
14346TIP3    H164529   1.023   1.441  14.599  1.2887 -0.6508  0.3903
14346TIP3    H264530   0.979   1.369  14.473  0.1817 -0.3367  0.5839
14347TIP3   OH264531   2.787   5.087   1.001 -1.0116 -0.2152  0.6002
14347TIP3    H164532   2.805   5.037   1.081 -1.1618  0.3108  0.9709
14347TIP3    H264533   2.694   5.076   0.986 -1.1601  0.4290  1.0183
14348TIP3   OH264534   0.261   2.502  12.993  0.5253  0.3433 -0.2674
14348TIP3    H164535   0.291   2.592  12.982  1.8547 -0.1381 -0.8443
14348TIP3    H264536   0.222   2.479  12.909 -0.7116  0.6814  0.1972
14349TIP3   OH264537   6.442   0.214   6.061 -0.0257  0.0381 -0.9331
14349TIP3    H164538   6.484   0.262   5.989 -0.8253 -0.0315 -1.4585
14349TIP3    H264539   6.506   0.216   6.132  0.6801  0.3191 -1.5660
14350TIP3   OH264540   0.409   2.700   4.221 -0.3747  0.4265  0.1103
14350TIP3    H164541   0.330   2.646   4.219  0.9595 -1.6542  0.5261
14350TIP3    H264542   0.453   2.675   4.302  0.7507  1.5233 -0.1274
14351TIP3   OH264543   3.500   6.087   3.392 -0.3846 -0.2672  0.6982
14351TIP3    H164544   3.587   6.071   3.430 -0.1042 -3.1264 -0.8847
14351TIP3    H264545   3.518   6.145   3.318 -0.0861  0.3411  1.2245
14352TIP3   OH264546   0.090   5.525   0.598  0.4774  0.1366 -0.9086
14352TIP3    H164547   0.075   5.432   0.585 -1.7376 -0.1729  2.6663
14352TIP3    H264548   0.165   5.530   0.657  0.3054  0.5951 -0.7217
14353TIP3   OH264549   3.528   2.753  11.479 -0.4008  0.5223 -0.5483
14353TIP3    H164550   3.517   2.661  11.455 -0.3200  0.4905 -0.4640
14353TIP3    H264551   3.608   2.780  11.433 -0.5328  0.6060 -0.7332
14354TIP3   OH264552   2.031   6.204   2.127 -0.4949 -0.6364 -0.5227
14354TIP3    H164553   1.968   6.134   2.146 -0.8451 -0.4407 -0.9577
14354TIP3    H264554   2.102   6.161   2.080  0.2404 -1.0730  0.9354
14355TIP3   OH264555   0.957   6.622   5.167  0.3355  0.3335 -0.4946
14355TIP3    H164556   0.896   6.549   5.162 -0.6345  1.1823 -1.4836
14355TIP3    H264557   0.902   6.700   5.172  1.3158  0.9715  2.6378
14356TIP3   OH264558   1.801   2.463  14.593  0.2241  0.0849  0.5041
14356TIP3    H164559   1.844   2.505  14.668 -0.2938  1.0927  0.2534
14356TIP3    H264560   1.745   2.531  14.556 -1.0654 -1.0089  0.4017
14357TIP3   OH264561   5.966   3.612  15.502 -0.1871 -0.1720 -0.3777
14357TIP3    H164562   5.931   3.556  15.572 -0.0189  0.9799  0.6503
14357TIP3    H264563   6.059   3.590  15.498  0.9486  2.9770  3.0788
14358TIP3   OH264564   5.234   1.367  13.301 -0.4161 -0.3627  0.2549
14358TIP3    H164565   5.201   1.404  13.383  0.2173  0.5440  0.1198
14358TIP3    H264566   5.209   1.275  13.304 -0.8665 -0.2205  1.2189
14359TIP3   OH264567   2.348   0.750  11.134 -0.1531 -0.3090  0.3672
14359TIP3    H164568   2.288   0.748  11.209 -1.2172 -1.2685 -0.4912
14359TIP3    H264569   2.431   0.782  11.171 -1.1862  1.1575  1.5624
14360TIP3   OH264570   6.086   4.001  11.483 -0.1053 -0.1507  0.7126
14360TIP3    H164571   6.126   4.050  11.410 -0.9645  0.0894  0.3890
14360TIP3    H264572   5.996   4.033  11.486 -0.8202 -2.0373  0.2090
14361TIP3   OH264573   2.211   3.203   0.887 -0.7933 -0.0602  0.4294
14361TIP3    H164574   2.206   3.115   0.849 -1.2272 -0.5580  1.6056
14361TIP3    H264575   2.303   3.212   0.913 -0.5300  0.2201 -0.5414
14362TIP3   OH264576   5.096   4.468  14.062 -0.5405 -0.2396 -0.2009
14362TIP3    H164577   5.034   4.453  14.133 -0.2115  0.7616  0.3110
14362TIP3    H264578   5.040   4.484  13.985 -1.0814  3.2410  0.7471
14363TIP3   OH264579   2.071   4.158  11.783  0.4096  0.4932 -0.1343
14363TIP3    H164580   2.018   4.090  11.824  0.1792  0.8748  0.2165
14363TIP3    H264581   2.016   4.191  11.711  0.0489  1.0664  0.3898
14364TIP3   OH264582   0.200   3.093   2.365  0.1989 -0.2005 -0.0086
14364TIP3    H164583   0.222   3.076   2.457 -0.8975 -0.1957  0.2640
14364TIP3    H264584   0.150   3.174   2.367  0.4393 -0.0358 -0.6485
14365TIP3   OH264585   5.262   6.568  12.256  0.0607 -0.1755  0.3322
14365TIP3    H164586   5.289   6.537  12.342  0.8330  1.7760  0.8397
14365TIP3    H264587   5.306   6.509  12.195  0.0887 -1.1378  1.2549
14366TIP3   OH264588   5.081   0.206  13.495  0.1004  0.4520 -0.4954
14366TIP3    H164589   5.035   0.271  13.441 -0.0503 -0.1521 -1.1086
14366TIP3    H264590   5.079   0.126  13.443  0.8727  0.1230 -0.0377
14367TIP3   OH264591   3.969   2.290  10.794  0.2226 -0.1085  0.2588
14367TIP3    H164592   3.881   2.284  10.757  0.4039 -0.4207 -0.1252
14367TIP3    H264593   4.009   2.366  10.751  0.8526 -1.1714 -1.1003
14368TIP3   OH264594   3.140   5.714  11.723  0.4183  0.2672  0.3449
14368TIP3    H164595   3.234   5.707  11.740  0.1058 -1.6085  1.6552
14368TIP3    H264596   3.127   5.669  11.640  0.8793  2.1839 -0.8172
14369TIP3   OH264597   2.513   1.785   4.030 -0.1382 -0.3115  0.0200
14369TIP3    H164598   2.558   1.844   3.968  0.7345 -0.1113  0.8155
14369TIP3    H264599   2.553   1.805   4.115 -0.1375 -1.7449  0.3802
14370TIP3   OH264600   1.511   3.069   3.433  0.5173  0.4130  0.3374
14370TIP3    H164601   1.433   3.083   3.379  0.8854  1.4945  0.0482
14370TIP3    H264602   1.498   2.984   3.473 -0.4560  0.2410 -0.3116
14371TIP3   OH264603   0.900   0.081   2.587 -0.1825 -0.7363  0.7464
14371TIP3    H164604   0.989   0.091   2.556 -1.5420  1.2990 -3.0490
14371TIP3    H264605   0.867   0.003   2.542 -1.1865  0.3137 -0.4107
14372TIP3   OH264606   1.889   1.904  12.316 -0.3403  0.3603  0.1096
14372TIP3    H164607   1.863   1.878  12.405 -0.0441  0.2008  0.1530
14372TIP3    H264608   1.890   2.000  12.318 -0.1647  0.3559  0.3327
14373TIP3   OH264609   0.253   5.935   3.518 -0.1220 -0.3704 -0.4686
14373TIP3    H164610   0.347   5.942   3.529 -0.1279 -0.4162 -0.3851
14373TIP3    H264611   0.219   6.019   3.546 -0.1034 -0.3409 -0.5335
14374TIP3   OH264612   3.255   0.688  13.367 -0.6218 -0.1400  0.0924
14374TIP3    H164613   3.344   0.666  13.394 -0.4443  0.2050 -0.2063
14374TIP3    H264614   3.247   0.782  13.383 -1.4175 -0.4130  1.4599
14375TIP3   OH264615   1.014   0.477   4.179 -0.0630 -0.5273  0.0331
14375TIP3    H164616   0.993   0.557   4.227 -1.3358 -1.1975  0.6439
14375TIP3    H264617   1.045   0.415   4.246 -2.2808 -1.6137  0.1389
14376TIP3   OH264618   4.380   6.741   5.958 -0.4466  0.4035 -0.6147
14376TIP3    H164619   4.464   6.755   5.915 -0.6918 -0.1709 -1.2777
14376TIP3    H264620   4.366   6.647   5.956  1.3027 -0.2293  4.0293
14377TIP3   OH264621   1.477   1.127   6.728 -0.2509 -0.3585 -0.3063
14377TIP3    H164622   1.530   1.066   6.779 -0.5893  0.0470  0.5425
14377TIP3    H264623   1.503   1.110   6.637  0.8926 -0.5828  0.0416
14378TIP3   OH264624   5.713   6.646  13.988 -0.0059 -0.0871 -0.3315
14378TIP3    H164625   5.639   6.590  13.963 -1.3054  2.0980 -1.6406
14378TIP3    H264626   5.677   6.706  14.052  0.9096  0.3894 -0.2503
14379TIP3   OH264627   2.592   0.616  15.343  0.7946 -0.0583 -0.4045
14379TIP3    H164628   2.558   0.700  15.375  0.1508 -0.3586 -0.2741
14379TIP3    H264629   2.515   0.573  15.304  1.0028 -0.7983 -0.0224
14380TIP3   OH264630   5.212   5.892   4.140  0.1094  0.1884  0.5444
14380TIP3    H164631   5.272   5.842   4.083  1.1213 -0.3714  2.0347
14380TIP3    H264632   5.134   5.837   4.146 -0.7397  1.0473 -1.6387
14381TIP3   OH264633   4.563   1.645   3.151 -0.3780 -0.1815  0.4547
14381TIP3    H164634   4.602   1.733   3.150  0.0506 -0.3554  1.0138
14381TIP3    H264635   4.486   1.654   3.208 -0.0492 -0.2760  0.9230
14382TIP3   OH264636   2.564   2.260   2.724  0.1635  0.1941 -0.5584
14382TIP3    H164637   2.642   2.274   2.779 -0.6563 -0.4873  0.8290
14382TIP3    H264638   2.588   2.185   2.669  0.0643 -0.8739  0.7820
14383TIP3   OH264639   2.436   3.725  15.865  0.2864  0.0422 -0.1966
14383TIP3    H164640   2.484   3.642  15.863 -0.4820 -0.4141 -1.9875
14383TIP3    H264641   2.393   3.726  15.951 -1.4511 -2.5046 -0.9069
14384TIP3   OH264642   2.999   6.437   0.823 -0.1403 -0.7193  0.9662
14384TIP3    H164643   2.943   6.462   0.896  0.3817 -0.1736  1.1801
14384TIP3    H264644   3.084   6.420   0.863  0.1025 -0.5818  0.5085
14385TIP3   OH264645   3.867   0.621   6.286 -0.5342  0.0920 -0.0665
14385TIP3    H164646   3.845   0.631   6.379 -1.2008 -1.2160 -0.0614
14385TIP3    H264647   3.786   0.642   6.240 -0.1160  1.0548 -0.3823
14386TIP3   OH264648   6.645   6.132   2.856 -0.3859  0.3588 -0.2741
14386TIP3    H164649   6.559   6.105   2.886 -0.0274  0.4993  0.9318
14386TIP3    H264650   6.652   6.224   2.884  0.0496  0.4248 -0.5941
14387TIP3   OH264651   6.824   0.995  11.964  0.4991  0.1426 -0.0148
14387TIP3    H164652   6.858   1.079  11.935  4.5821 -1.0550  0.6568
14387TIP3    H264653   6.850   0.933  11.896 -0.1411 -0.9591  0.6989
14388TIP3   OH264654   6.301   6.647   2.214  0.5596 -0.1953 -0.2711
14388TIP3    H164655   6.312   6.650   2.309  1.6253  0.4147 -0.4010
14388TIP3    H264656   6.379   6.603   2.182  0.0927 -0.6077 -0.8566
14389TIP3   OH264657   5.991   1.916  14.068  0.0009 -0.0716  0.5233
14389TIP3    H164658   5.977   1.965  13.986  0.6826  1.3748  1.2376
14389TIP3    H264659   5.904   1.908  14.106 -0.5094 -1.7972 -0.8724
14390TIP3   OH264660   5.676   5.812   1.999  0.0558 -0.4065 -0.0037
14390TIP3    H164661   5.736   5.860   2.056  0.6264 -0.4753 -0.5377
14390TIP3    H264662   5.590   5.849   2.017  0.6604  1.8822 -1.4709
14391TIP3   OH264663   6.682   0.469  11.312 -0.6876  0.0951  0.2415
14391TIP3    H164664   6.702   0.407  11.382 -1.5776  0.9855  1.3381
14391TIP3    H264665   6.619   0.529  11.351  0.1376  1.6912 -0.7661
14392TIP3   OH264666   5.035   1.693   1.461 -0.1180 -0.3992 -0.5189
14392TIP3    H164667   5.112   1.724   1.413 -0.7629  2.4551  0.0658
14392TIP3    H264668   4.988   1.638   1.398  1.0197  0.0648 -1.8383
14393TIP3   OH264669   0.057   2.135   4.030  0.0999  0.2751  0.2426
14393TIP3    H164670   0.096   2.216   3.998 -0.2590  0.8883  1.3209
14393TIP3    H264671   0.124   2.096   4.086 -0.7980  1.3959  2.2054
14394TIP3   OH264672   4.163   3.921   1.736 -0.3331 -0.1079 -0.3297
14394TIP3    H164673   4.091   3.984   1.736  1.1901  1.7517  0.5847
14394TIP3    H264674   4.179   3.903   1.829  1.4088  0.8208 -0.4097
14395TIP3   OH264675   0.411   2.037  12.808  0.5367 -0.3070  0.0414
14395TIP3    H164676   0.420   2.026  12.713 -0.7664  0.7720 -0.2286
14395TIP3    H264677   0.478   2.101  12.831 -0.5234  1.0606 -0.5317
14396TIP3   OH264678   6.397   1.148   4.377  0.1948  0.3707 -0.8483
14396TIP3    H164679   6.385   1.122   4.469 -0.1214 -0.2160 -1.0500
14396TIP3    H264680   6.492   1.151   4.365  0.2454  1.3363 -0.2585
14397TIP3   OH264681   1.529   0.724  12.120  0.0375  0.3729  0.4186
14397TIP3    H164682   1.448   0.773  12.106 -0.3172 -0.3314 -0.0802
14397TIP3    H264683   1.531   0.707  12.214 -1.8505 -1.9775  0.1225
14398TIP3   OH264684   5.500   6.254  14.982 -0.2861 -0.0480  0.1657
14398TIP3    H164685   5.410   6.263  15.014 -0.3776 -0.1474 -0.0577
14398TIP3    H264686   5.506   6.163  14.953 -0.1927  0.0281 -0.0568
14399TIP3   OH264687   0.675   3.508  13.249  0.1472  0.0303 -0.0696
14399TIP3    H164688   0.683   3.413  13.255  0.1107  0.1062  1.6717
14399TIP3    H264689   0.603   3.522  13.188 -0.7456 -1.1019  0.6769
14400TIP3   OH264690   3.857   1.432  13.893  0.2848  0.1034  0.9030
14400TIP3    H164691   3.862   1.426  13.988  1.9767 -0.4851  0.8128
14400TIP3    H264692   3.844   1.525  13.875 -1.1621  0.0880  1.7108
14401TIP3   OH264693   1.277   1.394  16.551 -0.0967 -0.2172  0.1045
14401TIP3    H164694   1.229   1.420  16.630  1.0881  1.4417  0.3210
14401TIP3    H264695   1.230   1.436  16.479  1.4587  2.2153  0.3985
14402TIP3   OH264696   1.258   0.226  15.321  0.0499 -0.1541 -0.2472
14402TIP3    H164697   1.165   0.205  15.313  0.4807 -2.5896  0.2020
14402TIP3    H264698   1.303   0.141  15.311  2.1492  0.7794  0.5535
14403TIP3   OH264699   5.590   5.789   5.029  0.6337 -0.5824 -0.4019
14403TIP3    H164700   5.516   5.734   5.002  1.4900 -0.4179 -3.5691
14403TIP3    H264701   5.568   5.819   5.117 -2.8616 -0.8833 -1.0508
14404TIP3   OH264702   2.518   0.651   0.236 -0.3262 -0.1622  0.6017
14404TIP3    H164703   2.501   0.674   0.327  1.3522 -0.6658  1.0902
14404TIP3    H264704   2.604   0.609   0.238 -0.0384  0.2404 -1.2801
14405TIP3   OH264705   3.202   5.263  12.093 -0.0036  0.1325  0.0613
14405TIP3    H164706   3.196   5.326  12.166 -2.1304 -0.2614  0.2897
14405TIP3    H264707   3.162   5.308  12.019 -0.6186 -0.5636 -0.0420
14406TIP3   OH264708   0.691   3.750  10.816  0.1122  0.4540 -0.3411
14406TIP3    H164709   0.758   3.748  10.748 -0.4298  1.0908 -0.9055
14406TIP3    H264710   0.681   3.843  10.836 -0.9646  0.4091 -0.6301
14407TIP3   OH264711   5.515   1.113   0.558  0.4121 -0.1989  0.1665
14407TIP3    H164712   5.457   1.100   0.633  0.3233 -2.6835 -0.2453
14407TIP3    H264713   5.459   1.099   0.481  0.3098  3.0812 -0.5144
14408TIP3   OH264714   0.490   3.791  11.515 -0.2140 -0.4333 -0.3975
14408TIP3    H164715   0.556   3.847  11.475  0.1006  0.9136  1.8298
14408TIP3    H264716   0.410   3.809  11.466 -0.1912  2.3168  0.4261
14409TIP3   OH264717   6.234   5.887   5.090 -0.9556  0.0293  0.2652
14409TIP3    H164718   6.215   5.819   5.154  0.3140  1.0598  1.8287
14409TIP3    H264719   6.293   5.845   5.028  0.0760 -0.2624  1.3908
14410TIP3   OH264720   4.790   6.554   2.527 -0.5792 -0.1351  0.2055
14410TIP3    H164721   4.854   6.486   2.549  1.0479  1.1073 -0.4475
14410TIP3    H264722   4.805   6.623   2.591 -0.2105  0.7951 -0.8355
14411TIP3   OH264723   3.017   0.406  12.301  0.2049 -0.1117 -0.1154
14411TIP3    H164724   2.966   0.395  12.381 -0.8697  3.1659 -0.1878
14411TIP3    H264725   2.951   0.407  12.231  0.8924 -0.6078 -0.7902
14412TIP3   OH264726   2.809   3.753   1.507  0.6414 -0.5271  0.0175
14412TIP3    H164727   2.834   3.677   1.560 -2.2135 -2.3361 -0.9718
14412TIP3    H264728   2.745   3.799   1.560  0.5470 -0.1972 -0.3798
14413TIP3   OH264729   5.143   3.717  14.075 -0.1494  1.0288 -0.0537
14413TIP3    H164730   5.146   3.786  14.141 -0.4091  1.4580 -0.4839
14413TIP3    H264731   5.198   3.749  14.004  1.4371 -0.1384  0.6046
14414TIP3   OH264732   5.085   3.220  17.115 -0.0044 -0.3832  0.1194
14414TIP3    H164733   5.021   3.151  17.096 -0.4418 -0.0124  0.2456
14414TIP3    H264734   5.126   3.238  17.031  0.6335 -1.3047  0.2110
14415TIP3   OH264735   1.436   4.571  12.761 -0.0103 -0.6711 -0.3531
14415TIP3    H164736   1.523   4.548  12.795 -0.1251 -0.9933 -0.2702
14415TIP3    H264737   1.394   4.619  12.833  0.5628  0.6284 -0.8530
14416TIP3   OH264738   1.902   1.733  13.253  0.3532 -0.3611  0.9413
14416TIP3    H164739   1.986   1.758  13.292  0.6502  0.3920 -0.1266
14416TIP3    H264740   1.879   1.651  13.295  1.2405 -0.1703  1.8240
14417TIP3   OH264741   2.598   5.266   6.744 -0.0564  0.9375  0.2085
14417TIP3    H164742   2.676   5.321   6.732  1.2825 -1.2514 -1.9586
14417TIP3    H264743   2.629   5.191   6.795 -0.5456 -0.2498 -1.1758
14418TIP3   OH264744   6.759   1.478   3.044  0.0302 -0.4353  0.1941
14418TIP3    H164745   6.757   1.484   3.140 -1.9247  1.1738  0.1160
14418TIP3    H264746   6.837   1.528   3.019  0.0719 -0.1373  0.9037
14419TIP3   OH264747   5.722   1.412   1.154  0.1323 -0.3979  0.3982
14419TIP3    H164748   5.814   1.437   1.156  0.3767 -0.9586 -1.3891
14419TIP3    H264749   5.674   1.491   1.180  1.1215 -0.4785  2.6671
14420TIP3   OH264750   1.668   0.065  16.212  0.1793  0.3592  0.4471
14420TIP3    H164751   1.704   0.064  16.123  1.5099  0.6466  0.9636
14420TIP3    H264752   1.679   0.156  16.241 -1.6659  0.6414  0.3666
14421TIP3   OH264753   1.177   5.088   1.045  0.3837 -0.1625 -0.4358
14421TIP3    H164754   1.121   5.154   1.003  1.7049  1.2553 -0.0622
14421TIP3    H264755   1.212   5.037   0.973 -0.4618 -0.3126 -0.7536
14422TIP3   OH264756   1.882   2.741  15.599 -0.0273 -0.1386 -0.0639
14422TIP3    H164757   1.942   2.667  15.588  0.0426  0.1251 -1.7309
14422TIP3    H264758   1.800   2.702  15.628  0.6040 -0.6155  1.1657
14423TIP3   OH264759   1.863   6.023  10.941  0.4433 -0.5004 -0.3339
14423TIP3    H164760   1.813   6.001  10.863 -0.9899 -0.1392  0.4499
14423TIP3    H264761   1.955   6.021  10.913 -0.0310 -0.6861 -1.9259
14424TIP3   OH264762   6.472   5.355  15.121  0.0452 -0.1706 -0.3099
14424TIP3    H164763   6.422   5.425  15.079 -1.3766 -0.1819  1.2562
14424TIP3    H264764   6.406   5.297  15.158  1.2232 -1.0117  0.5441
14425TIP3   OH264765   4.625   3.942   4.670 -0.0893  0.3294  0.2229
14425TIP3    H164766   4.583   3.883   4.608  2.0595 -0.0439 -0.9980
14425TIP3    H264767   4.569   4.019   4.673  0.0156  0.6445 -2.7431
14426TIP3   OH264768   0.856   2.009  15.040  0.1485 -1.1730  0.9559
14426TIP3    H164769   0.882   1.960  15.118  2.3265  1.1003  1.7774
14426TIP3    H264770   0.930   1.999  14.980  0.3818  0.5544  0.9069
14427TIP3   OH264771   5.425   0.678   1.306  0.2238 -0.3017 -0.1167
14427TIP3    H164772   5.422   0.582   1.311 -0.0177 -0.3492 -0.9651
14427TIP3    H264773   5.336   0.705   1.329  0.1604 -0.3167 -0.3324
14428TIP3   OH264774   2.182   4.597  11.101 -0.0543  0.3665 -0.0261
14428TIP3    H164775   2.212   4.506  11.097 -1.4022 -0.0623 -0.9942
14428TIP3    H264776   2.097   4.592  11.146 -1.0052  0.8914 -1.6977
14429TIP3   OH264777   5.147   2.102   1.184 -0.1231 -0.0663 -0.3879
14429TIP3    H164778   5.173   2.118   1.093 -0.5433  0.5344 -0.4071
14429TIP3    H264779   5.187   2.173   1.233 -0.0253 -0.3045 -0.1182
14430TIP3   OH264780   6.772   1.486   4.700  0.2412 -0.2822  1.2206
14430TIP3    H164781   6.753   1.539   4.778 -1.8731 -0.1258  0.6822
14430TIP3    H264782   6.711   1.412   4.706  0.8716 -0.8992  0.2989
14431TIP3   OH264783   2.551   3.002  11.736  0.3648  0.2706 -0.2546
14431TIP3    H164784   2.522   2.913  11.717  0.5434  0.1214  0.1481
14431TIP3    H264785   2.592   3.032  11.655 -0.9391  0.5027 -0.8502
14432TIP3   OH264786   2.351   1.378  14.052 -0.8656 -0.3157  0.3853
14432TIP3    H164787   2.430   1.431  14.041 -0.3310 -1.0461  0.6037
14432TIP3    H264788   2.316   1.406  14.137 -0.6838 -0.2008  0.4238
14433TIP3   OH264789   4.715   3.232  14.384  0.4816  0.3633  0.4062
14433TIP3    H164790   4.781   3.242  14.315  0.7366  0.3640  0.6516
14433TIP3    H264791   4.670   3.150  14.362  1.6128 -0.4781  1.1176
14434TIP3   OH264792   4.308   3.481  15.718  0.2932  0.6336  0.0476
14434TIP3    H164793   4.246   3.424  15.763  0.7806 -0.2401 -0.3587
14434TIP3    H264794   4.307   3.451  15.627  0.4080  1.4129 -0.2186
14435TIP3   OH264795   3.554   3.407   2.389  0.0003 -0.0481 -0.1174
14435TIP3    H164796   3.501   3.329   2.373  0.2704 -0.1123 -0.7272
14435TIP3    H264797   3.644   3.374   2.393 -0.0209  0.0124  1.2243
14436TIP3   OH264798   6.394   6.362   2.374 -0.3551  0.3079 -0.6773
14436TIP3    H164799   6.400   6.443   2.426 -0.5462  1.1938 -1.9973
14436TIP3    H264800   6.395   6.392   2.283  1.8679 -1.3180 -1.2734
14437TIP3   OH264801   5.566   6.751  11.360 -0.0156  0.2314 -0.0914
14437TIP3    H164802   5.587   6.680  11.300 -1.1983 -1.3741  1.2709
14437TIP3    H264803   5.641   6.810  11.356  1.0675 -1.1580 -1.1985
14438TIP3   OH264804   1.726   3.396  13.166 -0.4930 -0.8058 -0.0484
14438TIP3    H164805   1.655   3.460  13.167 -0.3640 -0.6648  1.1307
14438TIP3    H264806   1.689   3.319  13.122 -0.9459 -0.2748 -0.6136
14439TIP3   OH264807   4.700   1.123   4.743  0.7567  0.5944 -0.5959
14439TIP3    H164808   4.652   1.048   4.778 -1.6026  2.5019  0.5494
14439TIP3    H264809   4.752   1.156   4.816 -0.5511  1.7848 -0.1442
14440TIP3   OH264810   6.255   3.841   2.587 -0.1095 -0.3276  0.2085
14440TIP3    H164811   6.202   3.809   2.660  0.0354  0.9258  0.9043
14440TIP3    H264812   6.196   3.897   2.537  0.3933  0.6564  0.6916
14441TIP3   OH264813   4.877   2.966  14.041  0.0157  0.2454  0.4676
14441TIP3    H164814   4.884   2.901  14.111 -2.0524 -1.6481 -0.9639
14441TIP3    H264815   4.785   2.965  14.016  0.7676  0.3289 -2.7545
14442TIP3   OH264816   2.152   5.052   4.397 -0.2552 -0.5013 -0.0909
14442TIP3    H164817   2.180   4.991   4.328  2.7814 -0.3468  0.8982
14442TIP3    H264818   2.143   5.136   4.352  1.0749 -0.5355 -0.4593
14443TIP3   OH264819   0.779   5.592   2.137  0.6561  0.1048 -0.4721
14443TIP3    H164820   0.707   5.654   2.123  0.2263 -0.6294 -1.6586
14443TIP3    H264821   0.754   5.544   2.216  0.4947  0.7453 -0.1263
14444TIP3   OH264822   1.346   3.850   2.342  0.1882  0.2244 -0.1411
14444TIP3    H164823   1.267   3.799   2.325  0.8459 -0.8080 -0.1513
14444TIP3    H264824   1.413   3.810   2.288  0.6405  1.3658 -0.4702
14445TIP3   OH264825   3.715   0.046   0.316 -0.0347  0.3569  0.2429
14445TIP3    H164826   3.717   0.049   0.221 -0.8643 -2.6911  0.0353
14445TIP3    H264827   3.803   0.016   0.341 -0.3664 -0.6191  0.2811
14446TIP3   OH264828   0.615   3.576   0.792  0.6934  0.1606  0.1155
14446TIP3    H164829   0.685   3.533   0.841  0.9935  0.1914 -0.2802
14446TIP3    H264830   0.658   3.610   0.713  0.1250 -0.3431 -0.4291
14447TIP3   OH264831   1.415   1.534   2.326 -0.1466  0.0338  0.1556
14447TIP3    H164832   1.423   1.613   2.380 -0.6590  1.4411 -1.7109
14447TIP3    H264833   1.469   1.552   2.249  0.9558 -2.1095  0.3371
14448TIP3   OH264834   5.735   5.546   5.010  0.4909 -0.0236 -0.0354
14448TIP3    H164835   5.752   5.504   5.094 -0.2940 -1.0682 -0.3728
14448TIP3    H264836   5.659   5.602   5.025  1.4690  1.2328  0.3867
14449TIP3   OH264837   6.528   0.884  15.869 -0.3912  0.3552 -0.0995
14449TIP3    H164838   6.486   0.813  15.918  0.3751 -1.0658 -1.3729
14449TIP3    H264839   6.466   0.904  15.799  0.0562 -0.1910 -0.6675
14450TIP3   OH264840   1.570   0.319   3.844 -0.5723  0.2277 -0.4744
14450TIP3    H164841   1.525   0.247   3.889  0.1264 -0.0981 -0.2772
14450TIP3    H264842   1.648   0.334   3.897  0.5237 -0.4835 -1.8256
14451TIP3   OH264843   0.043   5.376  16.732 -0.4069 -0.9598 -0.3429
14451TIP3    H164844   0.038   5.424  16.815  2.4773  0.7938 -1.0100
14451TIP3    H264845  -0.019   5.421  16.675  0.6966  0.7427 -0.3086
14452TIP3   OH264846   3.698   4.993  16.284 -0.1115  0.5172  0.2682
14452TIP3    H164847   3.659   5.034  16.362  1.5359  1.7663  0.4874
14452TIP3    H264848   3.663   5.043  16.211 -0.9281 -0.0529  0.2580
14453TIP3   OH264849   2.595   1.501  14.022 -0.2016 -0.7180  0.3198
14453TIP3    H164850   2.658   1.572  14.015 -1.9656  0.9155  0.0180
14453TIP3    H264851   2.610   1.447  13.945  1.0302 -0.5488  0.4331
14454TIP3   OH264852   3.553   4.214  15.741 -0.1442 -0.4409  0.0712
14454TIP3    H164853   3.615   4.191  15.810  0.6348  1.9162  0.2459
14454TIP3    H264854   3.468   4.217  15.785  0.0699 -0.7400  0.5147
14455TIP3   OH264855   3.412   3.326   2.708  0.0338 -0.2081 -0.1519
14455TIP3    H164856   3.457   3.387   2.767  1.1824  0.3713 -1.5503
14455TIP3    H264857   3.376   3.258   2.765  2.0953 -0.3084  1.1149
14456TIP3   OH264858   1.269   0.837   1.653  0.4532  0.3321 -0.3801
14456TIP3    H164859   1.243   0.751   1.622 -0.5192  0.2569  0.5742
14456TIP3    H264860   1.361   0.827   1.677  0.3891 -0.4044 -0.4282
14457TIP3   OH264861   5.254   0.709  12.821  0.0937  0.1227  0.7803
14457TIP3    H164862   5.166   0.747  12.813 -0.3222 -0.8089  0.6759
14457TIP3    H264863   5.311   0.783  12.839 -0.8405  0.6412  1.7364
14458TIP3   OH264864   1.298   3.442   3.443 -1.1102  0.0661  0.1079
14458TIP3    H164865   1.392   3.454   3.436 -0.9150 -1.0276  0.6587
14458TIP3    H264866   1.282   3.421   3.535 -1.9141  0.4331  0.0644
14459TIP3   OH264867   5.383   6.367   5.739 -0.5185  0.3298  0.0110
14459TIP3    H164868   5.475   6.345   5.748 -0.5651  0.4823  0.9590
14459TIP3    H264869   5.356   6.326   5.657  0.3258  0.0823 -0.1499
14460TIP3   OH264870   1.531   0.350   6.130 -0.6925  0.3746  0.0473
14460TIP3    H164871   1.498   0.352   6.041 -2.4507 -0.8634  0.6102
14460TIP3    H264872   1.458   0.316   6.182 -0.6627  3.4365  2.3950
14461TIP3   OH264873   1.852   1.534  12.735  0.3854  0.4569  0.0062
14461TIP3    H164874   1.887   1.445  12.741 -0.1714 -0.0958 -3.1096
14461TIP3    H264875   1.929   1.590  12.729  0.8297 -0.2986 -2.1752
14462TIP3   OH264876   3.975   3.571  10.861  0.1053  0.1219  0.9647
14462TIP3    H164877   3.923   3.523  10.796  0.6468  0.2818  0.4080
14462TIP3    H264878   3.999   3.653  10.818  2.5180 -0.7809  0.4209
14463TIP3   OH264879   1.511   0.544  10.742  0.0926  0.2201  0.2473
14463TIP3    H164880   1.487   0.452  10.731  0.5305 -0.0187  1.2045
14463TIP3    H264881   1.441   0.593  10.697  2.4939 -0.6080 -5.0831
14464TIP3   OH264882   4.533   0.968   0.677  0.1809 -0.2556 -0.2087
14464TIP3    H164883   4.463   0.978   0.741 -0.1831 -0.9628 -0.4864
14464TIP3    H264884   4.591   1.043   0.692 -0.4730  0.1646  0.2208
14465TIP3   OH264885   3.579   4.122   2.600 -0.4327 -0.4569  0.0773
14465TIP3    H164886   3.583   4.156   2.690  1.1994 -1.1289  0.2929
14465TIP3    H264887   3.545   4.195   2.548 -2.2327 -0.3208  1.3392
14466TIP3   OH264888   3.135   5.000  14.496  0.0322  0.0284  0.2503
14466TIP3    H164889   3.148   5.093  14.477  0.2748 -0.0092  0.2317
14466TIP3    H264890   3.187   4.954  14.429 -0.6994 -0.1299 -0.2160
14467TIP3   OH264891   3.626   4.221   5.461  0.4869  0.4174 -0.0688
14467TIP3    H164892   3.626   4.126   5.468 -1.2751  0.1709 -2.2014
14467TIP3    H264893   3.569   4.250   5.532  2.5773  0.1240  1.8498
14468TIP3   OH264894   1.857   2.132  12.600  0.3013  0.1533  0.1430
14468TIP3    H164895   1.942   2.140  12.644  0.9771 -0.5921 -0.9817
14468TIP3    H264896   1.842   2.037  12.596 -0.0239  0.2395 -0.7157
14469TIP3   OH264897   2.749   5.217  11.118 -0.3725 -0.0657 -0.2624
14469TIP3    H164898   2.707   5.296  11.084  0.7929  1.7572  2.1948
14469TIP3    H264899   2.826   5.204  11.062  0.7005  1.9786  0.6407
14470TIP3   OH264900   3.976   2.409  13.027 -0.0978  0.0933 -0.4881
14470TIP3    H164901   3.926   2.343  12.979  0.3069 -0.3222 -0.3373
14470TIP3    H264902   4.006   2.364  13.106 -0.2446  0.6022 -0.1337
14471TIP3   OH264903   4.262   4.371   2.984  0.1885 -0.3325  0.4662
14471TIP3    H164904   4.202   4.302   3.010  0.0913  0.0649  1.3216
14471TIP3    H264905   4.229   4.401   2.899  0.3755 -1.4877 -0.0215
14472TIP3   OH264906   0.532   5.430   5.397 -0.3086  0.0288 -0.0069
14472TIP3    H164907   0.493   5.502   5.446  0.4467 -0.4448  1.3516
14472TIP3    H264908   0.531   5.357   5.458  0.5233 -0.6416 -0.7717
14473TIP3   OH264909   3.432   0.370  13.157  0.2568  0.1468 -0.0926
14473TIP3    H164910   3.379   0.333  13.086 -0.0003  1.3625 -0.5652
14473TIP3    H264911   3.506   0.310  13.165 -1.1980 -1.6556  0.6542
14474TIP3   OH264912   6.390   4.022  16.191 -0.5922 -0.2994  0.2688
14474TIP3    H164913   6.415   4.101  16.144 -2.8012  0.8976  0.9498
14474TIP3    H264914   6.305   4.043  16.229 -1.1728 -2.9622  0.6236
14475TIP3   OH264915   3.480   5.445  15.033  0.0118 -0.0057 -0.5253
14475TIP3    H164916   3.573   5.447  15.054 -0.0354  0.6562 -0.3801
14475TIP3    H264917   3.461   5.531  14.997 -0.7052  0.1121  0.1249
14476TIP3   OH264918   6.163   3.875   5.271 -0.6788 -0.9914  0.4134
14476TIP3    H164919   6.197   3.787   5.291  2.1773  0.3042  1.8140
14476TIP3    H264920   6.202   3.897   5.187 -2.8508 -1.6723 -0.8473
14477TIP3   OH264921   6.343   4.637   3.961 -0.3563 -0.0685 -0.4067
14477TIP3    H164922   6.296   4.719   3.949  0.0879 -0.0251 -2.0136
14477TIP3    H264923   6.305   4.578   3.895 -1.8820 -1.7490  1.8031
14478TIP3   OH264924   1.672   5.284  12.293 -0.1834 -0.3772 -1.0469
14478TIP3    H164925   1.604   5.241  12.345 -0.0147  1.2415  0.6349
14478TIP3    H264926   1.728   5.213  12.263  0.2387 -1.3805  1.8059
14479TIP3   OH264927   3.938   3.128   0.180 -0.9198 -0.2884 -0.5626
14479TIP3    H164928   4.020   3.133   0.229 -0.9442  0.6041 -0.5922
14479TIP3    H264929   3.964   3.107   0.090 -0.9129 -2.4834 -0.0914
14480TIP3   OH264930   3.053   1.826  13.099 -0.1533  0.2498 -0.0535
14480TIP3    H164931   3.024   1.737  13.081 -0.4818  0.3736 -0.1484
14480TIP3    H264932   3.138   1.833  13.056  0.2335 -0.2592  0.6048
14481TIP3   OH264933   3.112   0.355   0.843  0.4447  0.8079 -0.6474
14481TIP3    H164934   3.176   0.290   0.872  0.4964 -0.4497 -3.1989
14481TIP3    H264935   3.027   0.315   0.860  0.4166  1.1186 -0.0591
14482TIP3   OH264936   3.790   4.023  15.298 -0.1232 -0.5799  0.0445
14482TIP3    H164937   3.773   3.950  15.239 -2.3560  1.4292 -2.0245
14482TIP3    H264938   3.708   4.038  15.343  0.5077  0.1924  0.9877
14483TIP3   OH264939   4.327   0.684   6.524  0.0242 -0.4501  0.2119
14483TIP3    H164940   4.311   0.772   6.490 -0.9455 -2.1217 -4.6147
14483TIP3    H264941   4.411   0.658   6.485 -1.5396 -2.8412 -1.9003
14484TIP3   OH264942   6.000   0.974   1.453  0.6155  0.5851 -0.1495
14484TIP3    H164943   6.018   0.893   1.406 -1.8229 -0.8172  1.1068
14484TIP3    H264944   6.001   1.042   1.386  2.6302 -0.4395 -1.2519
14485TIP3   OH264945   5.515   2.270  13.279 -0.0466  0.1302  0.3687
14485TIP3    H164946   5.439   2.226  13.316  0.9944 -0.8096  1.4931
14485TIP3    H264947   5.524   2.233  13.191 -1.2120  0.6833  0.0013
14486TIP3   OH264948   3.348   3.180  14.941 -0.0983 -0.3671  0.1342
14486TIP3    H164949   3.296   3.158  15.019 -1.3312  1.5559 -0.0799
14486TIP3    H264950   3.419   3.116  14.941  0.3621 -0.0175  3.2604
14487TIP3   OH264951   5.660   5.293  14.474 -0.6159 -0.8374 -0.5098
14487TIP3    H164952   5.668   5.361  14.540 -1.1491 -0.7154 -0.5647
14487TIP3    H264953   5.703   5.216  14.513 -1.9265 -1.1096  0.4651
14488TIP3   OH264954   6.301   0.567  13.103  0.4200  0.3492 -0.3975
14488TIP3    H164955   6.253   0.547  13.184  1.1954  2.0169  0.5266
14488TIP3    H264956   6.274   0.498  13.042  0.7025 -1.6716  1.6076
14489TIP3   OH264957   0.404   6.095   4.407 -0.2563  0.6422  0.0646
14489TIP3    H164958   0.396   6.008   4.368 -1.4010  0.9871 -0.5255
14489TIP3    H264959   0.490   6.126   4.379 -0.1420 -0.0148 -0.3291
14490TIP3   OH264960   5.457   6.489   6.752 -0.0241 -0.1472  0.2905
14490TIP3    H164961   5.492   6.400   6.749 -0.2696 -0.2395  0.1504
14490TIP3    H264962   5.534   6.545   6.762  0.1051 -0.3960  0.7384
14491TIP3   OH264963   3.824   1.148  16.998  0.2812  0.5983  0.3437
14491TIP3    H164964   3.757   1.081  17.011  2.0939 -1.8201 -1.6599
14491TIP3    H264965   3.884   1.136  17.071 -1.0480  2.3710  1.8115
14492TIP3   OH264966   5.429   6.397   0.801 -0.1693  0.2862  0.3519
14492TIP3    H164967   5.431   6.455   0.725  1.7789 -1.4020 -0.9843
14492TIP3    H264968   5.367   6.329   0.779 -0.5328  0.4567  0.8275
14493TIP3   OH264969   1.387   3.191  14.538 -0.1737 -0.7089  1.1783
14493TIP3    H164970   1.420   3.254  14.473 -0.7256 -0.8374  0.7686
14493TIP3    H264971   1.303   3.226  14.565 -0.6146 -1.4100  0.7435
14494TIP3   OH264972   1.417   5.259  13.359 -0.0662  0.3848  0.0965
14494TIP3    H164973   1.394   5.229  13.271  0.0660  0.7754 -0.0743
14494TIP3    H264974   1.333   5.286  13.397 -0.3973 -1.4724  0.7566
14495TIP3   OH264975   4.329   6.323  11.350 -0.0029 -0.7945  0.0482
14495TIP3    H164976   4.373   6.300  11.432 -1.4579  0.7043  1.3163
14495TIP3    H264977   4.236   6.322  11.372 -0.3748  0.5769 -1.3318
14496TIP3   OH264978   2.887   5.413   2.255  0.1312 -0.3920  0.2633
14496TIP3    H164979   2.866   5.337   2.200 -0.3143 -1.0535  1.3173
14496TIP3    H264980   2.814   5.419   2.316  0.8215  0.0578  1.0662
14497TIP3   OH264981   2.837   1.162   5.192 -0.0198  0.1033  0.8619
14497TIP3    H164982   2.864   1.203   5.274 -0.9064  0.4551  0.9948
14497TIP3    H264983   2.747   1.193   5.178 -0.0789 -0.3935  0.0446
14498TIP3   OH264984   0.354   0.258   2.969 -0.0941 -0.1300  0.6594
14498TIP3    H164985   0.374   0.230   3.058  0.0395  0.1405  0.7186
14498TIP3    H264986   0.418   0.213   2.914  2.0904  2.2438  1.0478
14499TIP3   OH264987   2.282   0.242  16.027  0.6290  0.0620  0.1935
14499TIP3    H164988   2.191   0.269  16.037  0.2388 -0.7596 -0.9309
14499TIP3    H264989   2.321   0.255  16.113 -0.9329 -0.9414  1.1015
14500TIP3   OH264990   1.299   1.339  14.651  0.5038 -0.1644 -0.5334
14500TIP3    H164991   1.247   1.278  14.599 -0.2363 -0.5310  0.5974
14500TIP3    H264992   1.386   1.335  14.613  0.2496 -1.2658 -1.0334
14501TIP3   OH264993   2.357   2.096  11.173  0.3326  0.0996  0.3771
14501TIP3    H164994   2.394   2.153  11.106 -0.6337 -0.3274 -0.5563
14501TIP3    H264995   2.321   2.022  11.123 -1.4292  0.3232  1.2560
14502TIP3   OH264996   2.919   4.324  16.732  0.3394 -0.0124 -0.3953
14502TIP3    H164997   2.892   4.233  16.716  0.1646 -0.2337  0.9858
14502TIP3    H264998   2.935   4.327  16.826 -0.1922  1.5433 -0.3371
14503TIP3   OH264999   2.073   0.422  10.999 -0.0971  0.3747 -0.5974
14503TIP3    H165000   2.057   0.403  11.091  0.5819 -2.1303 -0.9356
14503TIP3    H265001   1.986   0.442  10.964 -0.6813 -0.7075  0.1718
14504TIP3   OH265002   0.134   5.385   2.063  0.0272 -0.3849  0.9615
14504TIP3    H165003   0.198   5.398   1.993  1.1808 -0.6650  1.9341
14504TIP3    H265004   0.098   5.472   2.079 -1.0704 -0.4760 -0.6897
14505TIP3   OH265005   5.511   2.803   4.697 -0.1599 -0.3593  0.0589
14505TIP3    H165006   5.528   2.880   4.644 -0.7451 -0.5699 -0.4422
14505TIP3    H265007   5.570   2.812   4.772  1.1693 -0.4062 -0.9515
14506TIP3   OH265008   6.784   4.253   1.636  0.0098 -0.1375  0.4731
14506TIP3    H165009   6.711   4.314   1.647  0.8828  0.7844  1.3786
14506TIP3    H265010   6.771   4.188   1.705 -1.0622 -1.1757 -0.6503
14507TIP3   OH265011   0.958   0.211  11.941  0.0107 -0.0584  0.6136
14507TIP3    H165012   0.891   0.188  12.006 -0.8003 -1.2132 -0.5826
14507TIP3    H265013   0.916   0.275  11.884  0.2609 -0.0463  0.4406
14508TIP3   OH265014   6.057   5.190   3.155 -0.1546 -0.0084 -0.0012
14508TIP3    H165015   6.021   5.123   3.098 -1.3020  0.7732 -0.2214
14508TIP3    H265016   6.027   5.166   3.243 -0.8371  0.3838 -0.1224
14509TIP3   OH265017   6.343   3.428   0.642  0.3569 -0.4704  0.2160
14509TIP3    H165018   6.262   3.442   0.593  1.9921  0.2233 -2.5307
14509TIP3    H265019   6.314   3.401   0.730 -2.7773 -2.1343 -1.1630
14510TIP3   OH265020   6.166   0.491  16.481  0.1609 -0.2469 -0.6095
14510TIP3    H165021   6.152   0.465  16.391  1.7911 -0.2061 -0.9061
14510TIP3    H265022   6.224   0.424  16.517 -0.3949 -0.2180  0.3913
14511TIP3   OH265023   1.924   4.092   4.627 -1.2930 -0.0131 -0.4027
14511TIP3    H165024   1.911   3.999   4.609 -1.0267  0.0229 -0.8107
14511TIP3    H265025   1.998   4.117   4.571  0.3036 -0.1227  1.5433
14512TIP3   OH265026   6.773   5.974  14.812 -0.1751 -0.0108 -0.3899
14512TIP3    H165027   6.838   5.911  14.842  2.1367  0.3494 -3.9951
14512TIP3    H265028   6.798   6.056  14.855  0.7402 -0.2485 -0.4469
14513TIP3   OH265029   2.848   2.922   0.033 -0.2106 -0.2776  1.1675
14513TIP3    H165030   2.921   2.982   0.047  0.8892 -1.0458 -0.8022
14513TIP3    H265031   2.881   2.837   0.062 -0.2397 -0.6449  0.1824
14514TIP3   OH265032   4.311   4.751   5.126 -0.6162 -0.1397 -0.0818
14514TIP3    H165033   4.342   4.719   5.042 -0.1293 -3.2075  1.1106
14514TIP3    H265034   4.389   4.758   5.180 -0.8790  2.1123  0.0888
14515TIP3   OH265035   1.987   6.355   5.640  0.2657  0.0841  0.1184
14515TIP3    H165036   2.061   6.407   5.673 -0.1484  1.2199 -0.6578
14515TIP3    H265037   1.910   6.397   5.677 -0.0950  0.2500 -0.7818
14516TIP3   OH265038   4.784   2.220   0.542  0.8820  0.1104  0.8302
14516TIP3    H165039   4.790   2.129   0.571 -1.6530 -0.7493 -0.9733
14516TIP3    H265040   4.742   2.266   0.614 -0.6684 -0.8742  0.6012
14517TIP3   OH265041   5.745   1.195  11.590 -0.0469  0.0217 -0.3253
14517TIP3    H165042   5.741   1.105  11.560 -2.7750 -0.3189  0.7798
14517TIP3    H265043   5.722   1.247  11.513  3.0216  0.0122 -1.3936
14518TIP3   OH265044   5.222   3.457   4.088  0.5454 -0.5317  0.0087
14518TIP3    H165045   5.178   3.380   4.050 -0.6482 -0.2499  0.7932
14518TIP3    H265046   5.315   3.442   4.070  0.7030 -3.5269  2.4330
14519TIP3   OH265047   3.962   3.374   0.659  0.3438  0.2101 -0.1094
14519TIP3    H165048   3.972   3.288   0.619  4.6495  0.9977 -1.1851
14519TIP3    H265049   3.936   3.431   0.586 -0.8021  0.1639  0.2425
14520TIP3   OH265050   3.236   3.908   2.873  0.7511  0.4900 -0.2152
14520TIP3    H165051   3.222   3.934   2.964 -1.2575  1.2189 -0.6638
14520TIP3    H265052   3.210   3.985   2.823 -1.2786 -0.9242 -1.4745
14521TIP3   OH265053   1.603   3.442  12.658  0.1941 -0.2908 -0.6998
14521TIP3    H165054   1.580   3.411  12.746 -3.2157 -0.6966 -1.6035
14521TIP3    H265055   1.630   3.362  12.611 -1.2570 -0.6824 -0.9122
14522TIP3   OH265056   3.005   3.417  16.263  0.1610 -0.4282 -0.5219
14522TIP3    H165057   3.068   3.487  16.279 -0.2874  0.1869 -1.3374
14522TIP3    H265058   3.015   3.357  16.337 -0.3827  1.1821  0.9204
14523TIP3   OH265059   1.118   4.131  16.285 -0.3619 -0.1327  0.4982
14523TIP3    H165060   1.153   4.123  16.374  0.3881  0.5332  0.2646
14523TIP3    H265061   1.025   4.148  16.298 -0.3359 -0.4432  1.1454
14524TIP3   OH265062   5.027   0.469  16.198 -0.0848 -0.4380  0.6529
14524TIP3    H165063   5.062   0.454  16.111  0.0990 -0.4979  0.7362
14524TIP3    H265064   5.080   0.413  16.255 -0.7687 -1.0700  0.6913
14525TIP3   OH265065   6.099   2.306   5.429  0.1747 -0.0323 -0.0225
14525TIP3    H165066   6.147   2.333   5.507 -1.3406 -0.5555  1.1447
14525TIP3    H265067   6.167   2.276   5.368  1.4053  0.6545  0.9731
14526TIP3   OH265068   5.328   4.667   5.773 -0.2875 -0.0102  0.0904
14526TIP3    H165069   5.337   4.729   5.845 -0.2986  0.5413 -0.3734
14526TIP3    H265070   5.310   4.721   5.696  2.2017 -0.3359 -0.8271
14527TIP3   OH265071   0.514   1.623  11.929  0.1597 -0.3236  0.6587
14527TIP3    H165072   0.489   1.627  12.021  0.3722 -2.5072  0.8816
14527TIP3    H265073   0.434   1.645  11.881 -0.8197 -2.0350  1.3955
14528TIP3   OH265074   5.578   3.937  16.809  0.5725  0.1470  0.2041
14528TIP3    H165075   5.541   3.958  16.895  2.8254 -1.1270  1.5970
14528TIP3    H265076   5.567   4.017  16.758 -2.7938  0.2619  0.8915
14529TIP3   OH265077   0.393   5.108   5.242  0.0413  0.1806  0.2952
14529TIP3    H165078   0.378   5.062   5.325  0.3254  0.9374  0.7838
14529TIP3    H265079   0.415   5.040   5.180  3.2309 -0.1540  1.6221
14530TIP3   OH265080   5.681   5.477  11.321 -0.1493  0.0105  0.5075
14530TIP3    H165081   5.704   5.495  11.412  0.4408  0.5242  0.2583
14530TIP3    H265082   5.755   5.509  11.270 -0.5188 -0.1845 -0.1666
14531TIP3   OH265083   4.963   6.167  14.540  0.1358  0.1616  0.2450
14531TIP3    H165084   4.869   6.163  14.527  0.0199  1.6570  0.3875
14531TIP3    H265085   5.000   6.109  14.473 -0.8976 -1.0362  0.6891
14532TIP3   OH265086   5.383   2.727   1.010 -0.7915  0.5671  0.0789
14532TIP3    H165087   5.429   2.811   1.003  1.5006 -0.5779  0.3266
14532TIP3    H265088   5.301   2.740   0.963 -1.9550  3.8665  2.6492
14533TIP3   OH265089   2.064   1.322   4.523  0.0601 -0.2948  0.0786
14533TIP3    H165090   1.994   1.383   4.545 -1.4776 -1.4624 -1.3007
14533TIP3    H265091   2.042   1.291   4.436  1.7046 -1.5667  0.0651
14534TIP3   OH265092   5.012   0.897   6.612  0.3804 -0.4467 -0.4032
14534TIP3    H165093   5.090   0.856   6.576 -0.6151 -0.9878 -2.0313
14534TIP3    H265094   4.948   0.896   6.541 -0.8933  0.6218  0.6530
14535TIP3   OH265095   4.506   3.562   2.435  0.3931  0.0871 -0.4523
14535TIP3    H165096   4.427   3.607   2.465  0.0115 -1.0578  0.3061
14535TIP3    H265097   4.493   3.551   2.341 -0.3782 -0.1417 -0.3265
14536TIP3   OH265098   4.122   1.528   2.267 -0.3374  0.7175 -0.1351
14536TIP3    H165099   4.215   1.520   2.249  0.1245  1.8734  1.5521
14536TIP3    H265100   4.112   1.614   2.308 -1.8725 -0.1003  1.3339
14537TIP3   OH265101   3.944   6.614   2.290 -0.1996  0.5772  0.1256
14537TIP3    H165102   3.957   6.641   2.199  0.9069  1.2822  0.4768
14537TIP3    H265103   3.978   6.524   2.293 -1.0625  0.2230 -0.3441
14538TIP3   OH265104   5.752   4.940  13.125  0.3136 -0.9952  0.5798
14538TIP3    H165105   5.670   4.987  13.137  1.0116  0.7363 -1.0628
14538TIP3    H265106   5.811   4.977  13.191  0.4904 -0.5045  0.1425
14539TIP3   OH265107   4.166   1.781   3.785 -0.6289 -0.0198  0.3655
14539TIP3    H165108   4.144   1.805   3.875 -2.5223 -1.6962  0.4220
14539TIP3    H265109   4.216   1.700   3.794  0.7729  0.7781 -0.0418
14540TIP3   OH265110   3.907   4.097  13.389 -0.1587  0.1365  0.3673
14540TIP3    H165111   3.951   4.133  13.466 -0.7969  0.3064  0.6606
14540TIP3    H265112   3.893   4.004  13.411  1.2437 -0.2427 -0.2775
14541TIP3   OH265113   4.143   6.093   2.132  0.3347 -0.3806  0.2358
14541TIP3    H165114   4.190   6.165   2.174  0.1865 -0.8976  1.3196
14541TIP3    H265115   4.072   6.072   2.193  0.0215 -1.0473 -0.3520
14542TIP3   OH265116   5.142   2.622   1.581  0.3263  0.2621  0.6681
14542TIP3    H165117   5.165   2.529   1.571  1.2118  0.6035 -0.8684
14542TIP3    H265118   5.110   2.648   1.495  0.4597  1.4758  0.9649
14543TIP3   OH265119   1.719   3.789  11.443 -0.1842 -0.3609 -0.2398
14543TIP3    H165120   1.668   3.710  11.422 -0.4776  0.0416 -1.0946
14543TIP3    H265121   1.810   3.760  11.443 -0.1476 -0.3622 -2.3227
14544TIP3   OH265122   5.017   4.342   3.843 -0.7708 -0.0147  0.4433
14544TIP3    H165123   5.072   4.397   3.788 -1.3617 -0.1132 -0.2690
14544TIP3    H265124   4.932   4.341   3.799 -1.6444  0.9266  2.0116
14545TIP3   OH265125   5.662   2.417  15.203 -0.2470 -0.1836  0.2061
14545TIP3    H165126   5.704   2.398  15.288  2.4619  2.9874 -0.2079
14545TIP3    H265127   5.615   2.499  15.218 -0.9469 -0.3579 -1.0039
14546TIP3   OH265128   6.027   0.660   1.853 -0.3307  0.0545 -0.4011
14546TIP3    H165129   6.091   0.618   1.796 -2.1046 -3.2023 -0.2461
14546TIP3    H265130   6.000   0.739   1.805  3.0090  1.0973 -0.8466
14547TIP3   OH265131   5.537   3.036   3.731  0.1601 -0.0163  0.0776
14547TIP3    H165132   5.500   3.020   3.818  2.2627  1.5286  1.3647
14547TIP3    H265133   5.469   3.085   3.685 -0.3120  0.7361  1.5040
14548TIP3   OH265134   2.888   2.827  14.448  0.3087  0.5796  0.4944
14548TIP3    H165135   2.907   2.839  14.355 -0.8984  0.6993  0.2494
14548TIP3    H265136   2.886   2.915  14.484  2.7369  0.4694  1.0841
14549TIP3   OH265137   1.264   1.407  15.304  0.4993  0.1179  0.0236
14549TIP3    H165138   1.339   1.350  15.322  1.2347  0.4323 -1.7975
14549TIP3    H265139   1.299   1.475  15.247 -0.9827  0.8357 -0.0835
14550TIP3   OH265140   6.683   4.399   1.217 -0.1872 -0.1437 -0.4942
14550TIP3    H165141   6.657   4.365   1.131  2.0619 -0.2306 -1.2039
14550TIP3    H265142   6.690   4.321   1.273 -0.2071 -0.2531 -0.6435
14551TIP3   OH265143   3.312   4.862  13.310  0.1238  0.4023 -0.0506
14551TIP3    H165144   3.372   4.882  13.382  0.8047 -0.3367 -0.3942
14551TIP3    H265145   3.366   4.813  13.248 -1.0793 -1.1622  0.0770
14552TIP3   OH265146   0.414   0.798   3.148 -0.1870  0.1287 -0.5123
14552TIP3    H165147   0.412   0.717   3.096 -1.2818  1.0095 -1.9382
14552TIP3    H265148   0.347   0.853   3.107 -0.9624  0.9629  1.7687
14553TIP3   OH265149   0.843   4.451  14.248 -0.6388  0.4511 -1.0180
14553TIP3    H165150   0.760   4.414  14.219 -1.8398  1.7109  0.6261
14553TIP3    H265151   0.875   4.391  14.315 -0.2264 -0.0061 -1.6142
14554TIP3   OH265152   2.379   2.682   6.527 -0.9051  0.0843 -0.0715
14554TIP3    H165153   2.457   2.709   6.478 -0.8119  0.4827  0.2922
14554TIP3    H265154   2.412   2.624   6.596 -1.3442 -3.1744 -2.3880
14555TIP3   OH265155   5.037   1.956  16.832  0.6589 -0.5122 -0.5072
14555TIP3    H165156   5.014   1.998  16.749  0.8085  1.7867  0.5369
14555TIP3    H265157   5.132   1.960  16.835  0.5947  1.0912  0.5282
14556TIP3   OH265158   4.933   0.093   5.136 -0.0762 -0.1575  0.4403
14556TIP3    H165159   4.911   0.015   5.085 -1.7846 -0.2709  1.2678
14556TIP3    H265160   4.951   0.059   5.224 -0.5266  0.3383  0.7273
14557TIP3   OH265161   3.877   1.845   2.400  0.6657  0.4482  0.1713
14557TIP3    H165162   3.792   1.814   2.431 -0.0350  0.6467 -1.4525
14557TIP3    H265163   3.873   1.940   2.410  0.1986  0.5699 -1.0278
14558TIP3   OH265164   2.276   5.457   4.109  0.3505 -0.6339  0.1485
14558TIP3    H165165   2.366   5.487   4.104 -0.2083  1.4627  1.2526
14558TIP3    H265166   2.263   5.405   4.030  1.9633  0.6464 -1.0251
14559TIP3   OH265167   3.395   6.035   4.016  0.1776  0.1015 -0.1005
14559TIP3    H165168   3.359   6.083   4.090 -0.9565  0.0895 -0.6313
14559TIP3    H265169   3.319   6.007   3.965  0.8584 -1.1982 -0.4664
14560TIP3   OH265170   3.893   2.059  15.105  0.3104 -0.5924  0.0968
14560TIP3    H165171   3.866   2.058  15.197  0.2842 -1.6873  0.0911
14560TIP3    H265172   3.939   2.142  15.094 -2.6646  1.2450  0.2206
14561TIP3   OH265173   6.420   2.722   2.189 -0.3546 -1.4922  0.6463
14561TIP3    H165174   6.486   2.784   2.218 -1.9476  1.0520 -0.7429
14561TIP3    H265175   6.437   2.711   2.096 -2.1690 -0.2705  0.1138
14562TIP3   OH265176   5.423   2.692  11.576 -0.2067 -0.1544  0.2033
14562TIP3    H165177   5.350   2.632  11.585 -1.0083  0.8381  0.5158
14562TIP3    H265178   5.383   2.773  11.543  0.7903  0.3106  0.1029
14563TIP3   OH265179   5.712   5.303  12.812 -0.1009 -0.0173  0.0680
14563TIP3    H165180   5.723   5.353  12.893  2.2275 -2.1433  1.2191
14563TIP3    H265181   5.784   5.332  12.756  0.5139 -1.1137  0.2581
14564TIP3   OH265182   1.455   0.578  16.238 -0.6897 -0.0523 -0.3911
14564TIP3    H165183   1.492   0.490  16.242  2.2122  1.0852 -0.0459
14564TIP3    H265184   1.448   0.606  16.329  0.4184  0.8202 -0.5552
14565TIP3   OH265185   1.885   5.493   1.527 -0.1286  0.1757  0.1841
14565TIP3    H165186   1.941   5.571   1.530 -1.9048  1.5596 -0.5675
14565TIP3    H265187   1.803   5.522   1.568 -1.2524 -0.9274 -1.2106
14566TIP3   OH265188   3.598   1.495   3.548 -0.1879 -0.7888 -0.0658
14566TIP3    H165189   3.520   1.482   3.603  0.4667 -1.2311  0.7886
14566TIP3    H265190   3.595   1.588   3.525 -0.1487 -0.4363  1.2606
14567TIP3   OH265191   2.330   2.248  16.237  0.5525 -0.4451  0.2230
14567TIP3    H165192   2.236   2.259  16.249  0.3989 -0.4919 -0.8463
14567TIP3    H265193   2.359   2.330  16.196  0.2992 -1.7508 -2.8967
14568TIP3   OH265194   1.965   4.545  16.357 -0.2775  0.5804 -0.8316
14568TIP3    H165195   2.013   4.474  16.314  1.7001  0.6488  1.0580
14568TIP3    H265196   2.007   4.625  16.323 -0.0143  0.6887 -0.2727
14569TIP3   OH265197   4.017   1.459   6.231  0.1985 -0.2059  0.0442
14569TIP3    H165198   4.010   1.483   6.139 -0.6395 -0.0506  0.1333
14569TIP3    H265199   4.110   1.465   6.252  0.5856 -1.6079 -1.1494
14570TIP3   OH265200   3.854   1.144   1.263  1.0290  0.0829 -0.3657
14570TIP3    H165201   3.804   1.074   1.221  0.4206  0.6630 -0.6271
14570TIP3    H265202   3.912   1.099   1.325  2.7153 -0.9201 -2.5239
14571TIP3   OH265203   6.514   6.084   5.408  0.3212  0.2001 -0.4909
14571TIP3    H165204   6.443   6.027   5.437  1.7092 -0.8905  0.9672
14571TIP3    H265205   6.497   6.168   5.450 -0.4712  0.1651 -0.7288
14572TIP3   OH265206   1.969   6.442  12.152 -0.5083  0.0463  0.0197
14572TIP3    H165207   1.943   6.382  12.082 -0.6807  0.6838 -0.4694
14572TIP3    H265208   1.907   6.515  12.145 -0.8249 -0.1024  1.1403
14573TIP3   OH265209   3.281   0.609   3.248 -0.4958  0.1075 -0.0654
14573TIP3    H165210   3.279   0.704   3.260 -1.9680  0.2718 -1.2363
14573TIP3    H265211   3.199   0.578   3.286 -0.9394 -0.4275 -1.3823
14574TIP3   OH265212   0.921   1.609  15.606  0.5354 -0.6113  0.1918
14574TIP3    H165213   1.003   1.590  15.652  1.5168  2.1170 -0.2330
14574TIP3    H265214   0.868   1.655  15.671 -0.4817 -1.8505  0.2826
14575TIP3   OH265215   6.054   3.613  13.945  0.4141 -0.1951  0.0891
14575TIP3    H165216   6.146   3.630  13.928  0.4057  0.9224  1.0318
14575TIP3    H265217   6.028   3.551  13.877  1.9039 -0.6863 -0.0576
14576TIP3   OH265218   4.365   1.148  14.780 -0.1103 -0.1365 -0.1348
14576TIP3    H165219   4.427   1.101  14.724  0.7517 -0.0501  0.7102
14576TIP3    H265220   4.416   1.171  14.858 -1.5266 -1.1680  1.1667
14577TIP3   OH265221   5.528   2.315  16.413  0.0703  0.4715  0.2364
14577TIP3    H165222   5.610   2.268  16.429  1.2898  2.1166 -0.8372
14577TIP3    H265223   5.496   2.280  16.330 -1.1116 -1.1708  1.3341
14578TIP3   OH265224   6.412   6.270  12.395 -0.2479  0.4506  0.7147
14578TIP3    H165225   6.397   6.345  12.338 -1.2039 -0.7795 -0.7384
14578TIP3    H265226   6.359   6.287  12.472  0.2414  1.6645  0.7951
14579TIP3   OH265227   6.285   4.220   3.641 -0.0466 -0.1559 -0.9407
14579TIP3    H165228   6.378   4.203   3.626  0.1383 -0.6658  0.6674
14579TIP3    H265229   6.263   4.169   3.719 -0.8198  2.6643  0.8128
14580TIP3   OH265230   5.131   0.729  14.552  0.6148  0.4184  0.0472
14580TIP3    H165231   5.045   0.726  14.593  0.9298  1.4456  0.8185
14580TIP3    H265232   5.191   0.689  14.615  1.0500  1.7248  0.4969
14581TIP3   OH265233   0.857   1.995  16.733  0.4110  0.0981 -0.2290
14581TIP3    H165234   0.839   2.047  16.811 -0.5986  1.1168 -1.1045
14581TIP3    H265235   0.846   2.056  16.660  1.2675 -0.8423 -1.1838
14582TIP3   OH265236   4.976   2.617  10.883 -0.3422 -0.5821  0.1226
14582TIP3    H165237   4.910   2.684  10.864  0.6007  0.1776 -0.5240
14582TIP3    H265238   4.944   2.539  10.836 -0.3547  0.0170 -0.8989
14583TIP3   OH265239   4.794   4.976  13.520 -0.2228  0.1335 -0.1792
14583TIP3    H165240   4.773   5.069  13.509 -4.0693 -0.6213 -0.7917
14583TIP3    H265241   4.800   4.965  13.615  1.2755  1.1237 -0.1244
14584TIP3   OH265242   3.145   6.466   1.174  0.2766  0.1091  0.1202
14584TIP3    H165243   3.057   6.491   1.146 -0.5156 -0.3008  2.1021
14584TIP3    H265244   3.179   6.414   1.101 -0.2147  2.1065 -1.6382
14585TIP3   OH265245   5.814   0.901  12.169 -0.3387 -0.0383  0.3812
14585TIP3    H165246   5.829   0.807  12.176 -0.1129 -0.0393 -0.1271
14585TIP3    H265247   5.738   0.917  12.226 -0.7399 -0.6205  0.0237
14586TIP3   OH265248   0.179   3.455   0.452  0.7410 -0.2556 -0.3663
14586TIP3    H165249   0.270   3.482   0.441  0.7795 -0.8512 -1.6621
14586TIP3    H265250   0.159   3.476   0.544  2.0493  0.2399 -0.1699
14587TIP3   OH265251   1.429   3.943  11.149 -0.4044 -0.3346  0.4178
14587TIP3    H165252   1.396   3.929  11.238 -2.1694  2.3280  0.2775
14587TIP3    H265253   1.480   4.024  11.154  0.1213 -0.5553 -0.8533
14588TIP3   OH265254   5.510   0.416  10.493  0.3431 -0.0155  0.3632
14588TIP3    H165255   5.436   0.437  10.551 -0.9701 -0.2976 -1.1389
14588TIP3    H265256   5.505   0.481  10.423  0.1043 -1.3867 -0.9503
14589TIP3   OH265257   2.920   6.286  15.027  0.5836 -0.1397  0.2591
14589TIP3    H165258   2.855   6.293  14.958  1.0831 -1.1952 -0.3524
14589TIP3    H265259   2.886   6.339  15.098  0.1688  1.1590 -0.8770
14590TIP3   OH265260   4.828   3.732   4.415  0.2609 -0.4534 -0.4408
14590TIP3    H165261   4.748   3.723   4.467 -0.0940  1.2595 -0.6372
14590TIP3    H265262   4.809   3.689   4.332  0.0479 -1.2825  0.0355
14591TIP3   OH265263   3.072   5.111   1.731 -0.1282  0.2168 -0.2656
14591TIP3    H165264   3.109   5.111   1.819 -0.1553  0.1140 -0.2550
14591TIP3    H265265   3.023   5.194   1.726 -1.9114 -0.7315  0.5645
14592TIP3   OH265266   3.220   0.963   0.835 -0.3018  0.2084  0.7097
14592TIP3    H165267   3.158   1.000   0.773 -0.5335 -2.1427 -0.5789
14592TIP3    H265268   3.298   0.942   0.783  0.4949  0.5213  1.7280
14593TIP3   OH265269   0.365   3.895   4.915 -0.6159 -0.1549 -0.4607
14593TIP3    H165270   0.315   3.822   4.952  0.1296 -0.4982 -0.1005
14593TIP3    H265271   0.439   3.852   4.871 -1.2281  0.2608 -1.9850
14594TIP3   OH265272   1.904   3.730  15.733  0.3156 -0.2143 -0.0153
14594TIP3    H165273   1.996   3.716  15.712  0.1423 -0.3734 -0.7251
14594TIP3    H265274   1.863   3.644  15.723 -0.0960  0.0579 -0.7794
14595TIP3   OH265275   1.681   3.324   0.548 -0.1911  0.2807  0.1114
14595TIP3    H165276   1.708   3.296   0.461 -1.3031 -1.1096  0.1726
14595TIP3    H265277   1.749   3.291   0.607  1.4062  2.5767 -0.3110
14596TIP3   OH265278   4.556   3.960  16.140  0.4197 -0.4195 -0.0236
14596TIP3    H165279   4.476   4.010  16.158 -0.7266 -2.0862 -0.3077
14596TIP3    H265280   4.616   4.024  16.100 -1.6366  0.3356 -2.0905
14597TIP3   OH265281   2.249   0.279  14.955  0.0362  0.4292 -0.8027
14597TIP3    H165282   2.196   0.328  14.892 -2.1375 -0.7151  0.0172
14597TIP3    H265283   2.320   0.339  14.979 -1.1264  2.2241 -1.6583
14598TIP3   OH265284   3.170   2.793   1.080 -0.0023  0.4136 -0.4041
14598TIP3    H165285   3.198   2.702   1.073  0.8549  0.7231 -1.3207
14598TIP3    H265286   3.229   2.841   1.021 -1.0341  1.4307 -0.6624
14599TIP3   OH265287   1.735   3.147  16.090  0.9612  0.3695  0.1929
14599TIP3    H165288   1.736   3.130  16.184  2.1455  1.9131  0.5061
14599TIP3    H265289   1.796   3.083  16.053 -0.3936 -1.0418  0.2544
14600TIP3   OH265290   5.559   5.529   2.989  0.0753  0.2085 -0.0705
14600TIP3    H165291   5.542   5.622   2.972 -0.4451  0.2648  0.7131
14600TIP3    H265292   5.485   5.501   3.042 -0.1903 -0.8637 -0.9749
14601TIP3   OH265293   4.396   0.057   2.770 -0.1616  0.3530 -0.2121
14601TIP3    H165294   4.419   0.100   2.852 -1.8002  1.1436 -0.1368
14601TIP3    H265295   4.434  -0.031   2.777  1.6492  1.1442  0.4163
14602TIP3   OH265296   1.034   5.519   1.310  0.2988 -0.7809  0.2836
14602TIP3    H165297   1.026   5.587   1.376 -0.3804 -0.4822 -0.1014
14602TIP3    H265298   1.127   5.521   1.285  0.0038  1.1598 -0.9156
14603TIP3   OH265299   5.679   2.670  13.801 -0.0345  0.3128 -0.4731
14603TIP3    H165300   5.738   2.618  13.747  0.0543 -1.1068  0.9310
14603TIP3    H265301   5.594   2.628  13.791  0.3629 -1.2487  2.0031
14604TIP3   OH265302   6.398   1.212   0.356  0.1763 -0.2623 -0.1304
14604TIP3    H165303   6.360   1.189   0.271  0.1180  1.2011 -0.5360
14604TIP3    H265304   6.491   1.226   0.338  0.5894 -1.9500  0.4848
14605TIP3   OH265305   6.400   4.200   4.727  0.1267 -0.6294 -0.1299
14605TIP3    H165306   6.370   4.269   4.668  0.3138  0.1157  0.6231
14605TIP3    H265307   6.339   4.128   4.714 -1.1658  0.3459  0.3596
14606TIP3   OH265308   6.350   1.022   6.154  0.1616  0.0945 -0.5795
14606TIP3    H165309   6.297   1.101   6.160  0.2579  0.1002  0.2438
14606TIP3    H265310   6.436   1.047   6.187  0.3279 -0.2313 -0.7569
14607TIP3   OH265311   3.208   3.443  12.881 -1.0280  0.2706 -0.5024
14607TIP3    H165312   3.160   3.370  12.843 -0.4138 -1.7999  2.3404
14607TIP3    H265313   3.283   3.403  12.924 -0.3297  2.6546  0.6890
14608TIP3   OH265314   1.059   4.266  17.161 -0.0676 -0.0799 -0.6700
14608TIP3    H165315   1.093   4.182  17.130  0.5153  0.0643 -0.4321
14608TIP3    H265316   1.137   4.321  17.173 -0.5715  1.1687 -2.7225
14609TIP3   OH265317   2.639   0.444   5.256  0.0351  0.1010 -0.2727
14609TIP3    H165318   2.603   0.521   5.213 -2.1730 -0.5884  0.2475
14609TIP3    H265319   2.596   0.370   5.214  1.1166 -0.8164  0.1546
14610TIP3   OH265320   3.087   5.903  14.427  0.0474 -1.0887  0.1885
14610TIP3    H165321   3.093   5.830  14.488  0.0164 -0.0629  1.4569
14610TIP3    H265322   3.163   5.957  14.447  0.3318 -0.9808 -1.0577
14611TIP3   OH265323   0.445   5.177  15.944  0.9938  0.7158  0.1553
14611TIP3    H165324   0.350   5.172  15.958  0.8803 -1.4365 -0.9199
14611TIP3    H265325   0.483   5.145  16.025  0.8737  2.6451  1.0108
14612TIP3   OH265326   0.167   0.684  12.000 -1.0445 -0.0600 -0.0082
14612TIP3    H165327   0.168   0.591  12.021  1.4335 -0.4218 -1.3904
14612TIP3    H265328   0.126   0.689  11.913  1.5129 -0.3175 -1.3261
14613TIP3   OH265329   5.845   2.999   6.241  0.2159 -0.3243 -0.2170
14613TIP3    H165330   5.815   3.050   6.316 -1.3162 -0.2642 -0.8380
14613TIP3    H265331   5.843   3.060   6.168  2.4384 -0.1739 -0.2102
14614TIP3   OH265332   2.818   5.993  14.437  0.1626  0.0559  0.1185
14614TIP3    H165333   2.790   6.023  14.351  0.7305  3.5501  0.9824
14614TIP3    H265334   2.907   5.960  14.424  0.8781  2.0779 -0.4498
14615TIP3   OH265335   3.948   4.199   6.402 -0.4629  0.1877 -0.1675
14615TIP3    H165336   4.012   4.216   6.332  0.1255 -0.2555  0.2534
14615TIP3    H265337   3.987   4.238   6.480  0.4416 -2.0982  0.6129
14616TIP3   OH265338   3.820   6.752   2.500  0.4678 -0.1793  0.0620
14616TIP3    H165339   3.729   6.725   2.491  0.4677  0.0956 -0.9706
14616TIP3    H265340   3.863   6.717   2.421  1.3395 -0.6319  0.7227
14617TIP3   OH265341   2.378   1.524   0.185 -0.1038 -0.3795  0.3771
14617TIP3    H165342   2.419   1.488   0.106 -0.4060  0.2762 -0.0909
14617TIP3    H265343   2.348   1.447   0.233  0.9288 -0.8403  0.3325
14618TIP3   OH265344   3.417   5.114   2.035 -0.2681  0.2786 -0.4281
14618TIP3    H165345   3.476   5.077   1.969  0.7275  0.1218  0.5208
14618TIP3    H265346   3.422   5.209   2.022  0.7052  0.3014  0.0546
14619TIP3   OH265347   4.503   4.505   3.957 -0.3532 -0.1040 -0.3137
14619TIP3    H165348   4.457   4.511   3.873  0.7085  1.3002 -0.8380
14619TIP3    H265349   4.593   4.533   3.937 -0.2496  0.9547  1.4214
14620TIP3   OH265350   1.726   0.824   2.675 -0.3872 -0.3127 -0.0328
14620TIP3    H165351   1.680   0.833   2.592  1.6931  0.5246 -1.1694
14620TIP3    H265352   1.799   0.886   2.669  0.7289 -1.3600  1.7816
14621TIP3   OH265353   2.087   1.889  12.110  0.7295 -0.4601  0.1583
14621TIP3    H165354   2.024   1.929  12.170  0.0095 -2.4652  0.8348
14621TIP3    H265355   2.171   1.896  12.154  0.6561  0.4936  0.1543
14622TIP3   OH265356   4.952   2.971   3.510 -0.4191 -0.1101  0.1470
14622TIP3    H165357   5.031   2.958   3.458 -0.4177  0.1045  0.0947
14622TIP3    H265358   4.900   3.033   3.459 -1.1771 -1.1921 -0.4273
14623TIP3   OH265359   0.655   1.140   0.431  0.1028 -0.3994 -0.0851
14623TIP3    H165360   0.561   1.151   0.418  0.2681 -0.7203 -1.7924
14623TIP3    H265361   0.687   1.229   0.447 -0.4490 -0.2657  0.3434
14624TIP3   OH265362   4.987   1.462  15.302 -0.4592  0.1134  0.3503
14624TIP3    H165363   5.069   1.487  15.345  0.1686 -1.6839  0.2459
14624TIP3    H265364   4.988   1.367  15.301 -2.2274  0.0729 -0.3101
14625TIP3   OH265365   5.564   6.037  11.089 -0.3003 -0.1515  0.1493
14625TIP3    H165366   5.562   5.954  11.042 -0.2716  0.2277 -0.5415
14625TIP3    H265367   5.642   6.032  11.144  0.5877  0.0365 -1.0595
14626TIP3   OH265368   1.841   1.808   5.301 -0.2961  0.0167  0.0727
14626TIP3    H165369   1.806   1.852   5.378 -1.0357  0.5485 -0.5605
14626TIP3    H265370   1.808   1.718   5.307  1.2371 -0.5132  1.3795
14627TIP3   OH265371   1.709   1.565   5.278 -0.3377 -0.1378  0.4432
14627TIP3    H165372   1.730   1.472   5.279 -1.2826 -0.4128 -1.4957
14627TIP3    H265373   1.618   1.570   5.248  0.2394  1.4371 -1.3059
14628TIP3   OH265374   2.415   3.080   0.666  0.2093 -0.0089  0.0598
14628TIP3    H165375   2.396   3.023   0.741  0.4306  1.1230  0.9964
14628TIP3    H265376   2.440   3.164   0.705  0.4869  0.5552 -1.2843
14629TIP3   OH265377   2.714   0.824  11.747  0.3419 -0.0142  0.8295
14629TIP3    H165378   2.736   0.853  11.659  1.4573  0.2185  1.1784
14629TIP3    H265379   2.716   0.903  11.800  0.2988 -0.2533  1.1926
14630TIP3   OH265380   0.778   0.477  11.187 -0.6939  0.0187 -0.0308
14630TIP3    H165381   0.842   0.524  11.240 -1.7090  1.3792  0.0440
14630TIP3    H265382   0.818   0.469  11.101 -0.7680  1.7169 -0.2593
14631TIP3   OH265383   1.212   4.168   4.730 -0.3754 -0.1031 -0.3864
14631TIP3    H165384   1.235   4.190   4.640  2.1208 -0.4966  0.0791
14631TIP3    H265385   1.293   4.133   4.768 -0.6268  2.3002  2.7347
14632TIP3   OH265386   6.563   6.381  16.170  1.0785 -0.3957 -0.2093
14632TIP3    H165387   6.546   6.430  16.251 -0.8583 -1.2545 -0.0523
14632TIP3    H265388   6.523   6.295  16.185 -0.6881 -0.1002 -2.6012
14633TIP3   OH265389   1.099   5.246   6.412 -0.1486 -0.1861 -0.1823
14633TIP3    H165390   1.027   5.304   6.391  1.3752  2.8570  2.2182
14633TIP3    H265391   1.059   5.174   6.462 -1.6933  0.5466 -0.3374
14634TIP3   OH265392   0.886   4.949   3.549 -0.7989 -0.3778  0.2067
14634TIP3    H165393   0.957   4.951   3.613 -0.5240  0.7096 -0.1158
14634TIP3    H265394   0.807   4.965   3.601 -0.7824 -1.2590  0.5175
14635TIP3   OH265395   5.351   6.240  15.485  0.1222 -0.0905  0.6171
14635TIP3    H165396   5.447   6.241  15.492  0.0629  0.3533  1.4363
14635TIP3    H265397   5.322   6.304  15.550 -0.7101  0.1628  0.0020
14636TIP3   OH265398   5.671   4.791  11.659  0.5477 -0.5418 -0.4675
14636TIP3    H165399   5.695   4.736  11.585  0.6743 -0.4657 -0.4828
14636TIP3    H265400   5.739   4.858  11.662  0.3302 -0.3187 -0.5184
14637TIP3   OH265401   1.593   5.308  16.284  0.6692  0.0744 -0.2048
14637TIP3    H165402   1.533   5.292  16.212  0.5332  0.3900 -0.1652
14637TIP3    H265403   1.543   5.289  16.363  0.8018 -0.2217 -0.1918
14638TIP3   OH265404   5.496   2.130   2.296  0.0089 -0.4365 -0.0860
14638TIP3    H165405   5.495   2.054   2.238 -1.3541 -2.2130  2.1046
14638TIP3    H265406   5.408   2.166   2.291  0.4097  0.5081 -0.4759
14639TIP3   OH265407   5.261   2.385   1.598 -0.5849  0.0333  0.2046
14639TIP3    H165408   5.349   2.412   1.623 -0.2494 -0.9285  0.1005
14639TIP3    H265409   5.273   2.335   1.518 -1.1357 -0.7275  0.5798
14640TIP3   OH265410   1.889   4.810   4.226  0.3467 -0.4281  0.1135
14640TIP3    H165411   1.915   4.792   4.316 -2.0644 -0.8301  0.7865
14640TIP3    H265412   1.856   4.900   4.229  1.7264  0.1287 -0.7439
14641TIP3   OH265413   0.258   1.216  11.065  1.0997  0.6415  0.4539
14641TIP3    H165414   0.302   1.287  11.113  2.1824  0.4428 -0.2246
14641TIP3    H265415   0.248   1.250  10.976 -2.2260  1.5966  1.0576
14642TIP3   OH265416   1.259   4.844   4.848  1.0442 -0.8058  0.2438
14642TIP3    H165417   1.245   4.930   4.889 -1.0147 -0.4797 -0.9987
14642TIP3    H265418   1.336   4.856   4.792  2.9535 -0.8338  2.7019
14643TIP3   OH265419   1.412   3.976  17.167  0.1689 -0.7283  0.5258
14643TIP3    H165420   1.341   4.026  17.126  0.0529 -0.9309  0.4737
14643TIP3    H265421   1.414   4.006  17.258  1.3758  0.7638  0.0381
14644TIP3   OH265422   0.900   5.787  14.608  0.0991 -0.0266 -0.0233
14644TIP3    H165423   0.919   5.694  14.621 -2.4611 -0.9042 -1.7007
14644TIP3    H265424   0.805   5.793  14.618 -0.0638  1.9731 -2.0839
14645TIP3   OH265425   4.272   1.796   4.554 -0.7041 -0.2429 -0.4230
14645TIP3    H165426   4.318   1.725   4.509  0.1601 -0.2590  0.4346
14645TIP3    H265427   4.217   1.836   4.487  1.0324  0.1628 -1.6820
14646TIP3   OH265428   1.136   2.471   0.365  0.4142 -0.6159  0.5283
14646TIP3    H165429   1.049   2.509   0.371  0.1069 -0.8211 -1.5655
14646TIP3    H265430   1.191   2.525   0.421 -1.0216 -0.4314  1.8154
14647TIP3   OH265431   5.611   4.649   0.865  0.4887 -0.8060 -0.1326
14647TIP3    H165432   5.549   4.654   0.938 -3.3095 -2.7812 -2.8842
14647TIP3    H265433   5.578   4.710   0.800  2.0834 -1.1686 -1.3608
14648TIP3   OH265434   5.411   2.700   6.543 -0.3856  0.0134  0.0010
14648TIP3    H165435   5.381   2.614   6.572 -0.6106 -0.7137 -2.2725
14648TIP3    H265436   5.420   2.750   6.625  0.2358 -2.2751  1.4270
14649TIP3   OH265437   5.945   4.093  11.141 -0.1158  0.2672 -0.0466
14649TIP3    H165438   5.960   4.017  11.085 -1.1206 -0.3407  0.4737
14649TIP3    H265439   6.029   4.139  11.143  1.2019 -2.0290  1.4087
14650TIP3   OH265440   3.084   5.772  12.676 -0.2789 -0.1642  0.6328
14650TIP3    H165441   3.094   5.682  12.644 -0.9870 -0.1962  0.4967
14650TIP3    H265442   3.066   5.762  12.769 -1.9855 -0.2634  0.3320
14651TIP3   OH265443   2.444   4.696   5.847  0.5241 -0.3619  0.0508
14651TIP3    H165444   2.489   4.767   5.802  0.8291 -0.3253  0.4052
14651TIP3    H265445   2.506   4.623   5.846  0.1652 -0.6605 -0.4151
14652TIP3   OH265446   6.149   6.300   2.510  0.6936  0.2805  0.4547
14652TIP3    H165447   6.153   6.265   2.599  0.9495  0.6029  0.5733
14652TIP3    H265448   6.240   6.301   2.480  0.9360  2.3399  1.0568
14653TIP3   OH265449   1.618   1.650  11.789 -0.1966  0.1121  0.5086
14653TIP3    H165450   1.711   1.629  11.783 -0.3185 -0.2910 -0.1049
14653TIP3    H265451   1.614   1.724  11.850  0.7190  1.3482 -0.8551
14654TIP3   OH265452   1.664   5.960   3.731 -0.4284 -0.3580  0.0527
14654TIP3    H165453   1.667   5.882   3.677 -2.0963 -0.0742 -0.4948
14654TIP3    H265454   1.575   5.994   3.721  0.0269  1.1989  0.8595
14655TIP3   OH265455   1.470   2.738  14.257  0.8519  0.4466 -0.1548
14655TIP3    H165456   1.407   2.733  14.185  2.7380 -0.3260 -1.8444
14655TIP3    H265457   1.420   2.775  14.330 -1.8221 -1.0839 -1.0750
14656TIP3   OH265458   5.451   0.603   3.540  0.0034 -0.3750  0.3659
14656TIP3    H165459   5.434   0.693   3.564  0.3181 -0.6909  1.8717
14656TIP3    H265460   5.527   0.578   3.592 -0.2531 -1.6030  0.1947
14657TIP3   OH265461   2.267   0.285   6.129  0.6487 -1.1019  0.0637
14657TIP3    H165462   2.277   0.380   6.136  0.1769 -1.0156 -0.3773
14657TIP3    H265463   2.304   0.251   6.211 -0.9368 -0.4052  1.1219
14658TIP3   OH265464   6.035   3.668   3.567  0.3506 -0.4404  0.1555
14658TIP3    H165465   6.053   3.681   3.474  2.1989 -0.3209  0.4818
14658TIP3    H265466   6.098   3.601   3.594 -0.8566 -1.2356  1.1113
14659TIP3   OH265467   1.999   3.001  15.605  0.6266  0.1097  0.0826
14659TIP3    H165468   1.973   2.909  15.593  2.5167 -0.3742 -0.5509
14659TIP3    H265469   1.929   3.050  15.562 -0.9366 -0.9482  1.2717
14660TIP3   OH265470   1.094   6.713  15.119  0.2705 -0.1810 -0.1460
14660TIP3    H165471   1.175   6.732  15.073  1.2787 -1.4258  1.0453
14660TIP3    H265472   1.121   6.666  15.198 -1.3486  2.3738  2.0729
14661TIP3   OH265473   1.943   1.948   3.949  0.8475  0.3301 -0.0253
14661TIP3    H165474   1.984   1.915   3.869  4.1559  1.5524  0.9930
14661TIP3    H265475   1.980   1.894   4.019 -0.1857  0.7880  0.9122
14662TIP3   OH265476   1.878   1.823   4.450  0.1782  0.1712  0.1350
14662TIP3    H165477   1.848   1.912   4.435 -1.4405 -0.6883 -2.4978
14662TIP3    H265478   1.798   1.772   4.459  0.9447 -1.3671 -1.1208
14663TIP3   OH265479   5.921   5.261   4.911 -0.0981 -0.6336  0.0233
14663TIP3    H165480   5.942   5.257   5.004  0.5841 -1.3013 -0.1563
14663TIP3    H265481   5.854   5.330   4.905  0.4440 -0.0134  0.8888
14664TIP3   OH265482   5.749   0.291  12.256  0.4343  0.6962 -0.1762
14664TIP3    H165483   5.768   0.220  12.317  0.7362  0.7352 -0.2217
14664TIP3    H265484   5.669   0.264  12.212  0.6116  0.3308 -0.2747
14665TIP3   OH265485   4.124   5.954   4.651 -0.4499  0.1964 -0.0003
14665TIP3    H165486   4.156   5.872   4.689 -2.3129 -0.2942  0.6143
14665TIP3    H265487   4.179   5.968   4.573  0.3659 -1.2430  0.2851
14666TIP3   OH265488   5.342   5.127  14.533  0.4548 -0.0593  0.3387
14666TIP3    H165489   5.307   5.211  14.504 -0.0541 -0.4555 -0.2181
14666TIP3    H265490   5.372   5.084  14.453  0.9964 -0.2818  0.6552
14667TIP3   OH265491   2.547   2.026   0.005 -0.4962  0.0536 -0.1845
14667TIP3    H165492   2.530   2.084   0.079  0.3806  0.1369 -0.0466
14667TIP3    H265493   2.482   1.956   0.015 -0.3341  0.0267  0.7009
14668TIP3   OH265494   1.642   3.861   4.239 -0.0518  0.0450  0.1232
14668TIP3    H165495   1.573   3.849   4.173 -1.0064 -1.0719  1.2764
14668TIP3    H265496   1.703   3.789   4.222 -0.6782 -0.6850  0.8874
14669TIP3   OH265497   2.284   1.460  14.326  0.3944  0.1537  0.4290
14669TIP3    H165498   2.351   1.505  14.378  0.2796  2.8268 -1.5296
14669TIP3    H265499   2.203   1.472  14.376  0.6036  0.9820  0.5814
14670TIP3   OH265500   4.867   0.751  14.634 -0.5789 -0.0515  0.1062
14670TIP3    H165501   4.824   0.808  14.570  1.0575 -0.0929 -1.0903
14670TIP3    H265502   4.850   0.662  14.603  1.0158 -0.0494 -0.8626
14671TIP3   OH265503   5.258   4.585  12.882  0.8066  0.5140 -0.1031
14671TIP3    H165504   5.178   4.559  12.836  0.2043 -1.2562  1.7740
14671TIP3    H265505   5.307   4.503  12.893  0.9677  0.8622  2.2535
14672TIP3   OH265506   3.262   3.861   4.406 -0.5232 -0.4698  0.4659
14672TIP3    H165507   3.345   3.832   4.368 -0.4743  0.2928 -0.0224
14672TIP3    H265508   3.212   3.780   4.420  0.7055 -1.0519  1.7666
14673TIP3   OH265509   3.344   4.972   2.495 -0.3993 -0.7580 -0.0058
14673TIP3    H165510   3.360   5.000   2.405 -0.9985 -2.0909 -0.5609
14673TIP3    H265511   3.263   5.016   2.519 -0.5097 -0.7898 -0.3098
14674TIP3   OH265512   5.008   2.511  16.966 -0.8144 -0.3938 -0.1885
14674TIP3    H165513   4.999   2.417  16.980  0.0386 -0.6657 -1.3214
14674TIP3    H265514   5.074   2.538  17.030  0.6908 -1.0339 -1.3878
14675TIP3   OH265515   5.696   3.856  12.733 -0.4074  0.4750  0.0824
14675TIP3    H165516   5.673   3.910  12.809 -0.4239  3.0066 -1.6028
14675TIP3    H265517   5.792   3.854  12.733 -0.4067 -0.8166  0.9591
14676TIP3   OH265518   2.317   1.810   3.018 -0.4451 -0.2897 -0.4407
14676TIP3    H165519   2.313   1.898   3.055 -1.7026 -0.6773  0.4025
14676TIP3    H265520   2.299   1.822   2.925 -1.7655  0.2340 -0.1287
14677TIP3   OH265521   0.138   5.297   0.202 -0.3318  0.1852  0.3019
14677TIP3    H165522   0.223   5.338   0.218 -0.0783 -0.2836  0.1717
14677TIP3    H265523   0.083   5.367   0.166  0.4664  0.1181 -1.1072
14678TIP3   OH265524   2.085   4.538  14.690 -0.1665 -0.9981 -0.7407
14678TIP3    H165525   2.165   4.485  14.684 -0.1511 -1.1586  0.6359
14678TIP3    H265526   2.087   4.592  14.611  1.2799 -1.0492 -0.7716
14679TIP3   OH265527   6.325   1.250  12.998  0.8498 -0.0239  0.0114
14679TIP3    H165528   6.349   1.288  13.082 -0.8961 -0.4581  0.7475
14679TIP3    H265529   6.258   1.308  12.963  0.6085 -0.5642 -0.4464
14680TIP3   OH265530   1.139   5.853  13.171  0.4615  0.0451 -0.3678
14680TIP3    H165531   1.184   5.932  13.140  0.6979 -0.5821 -1.6584
14680TIP3    H265532   1.159   5.787  13.106 -0.4096 -0.8795  0.2822
14681TIP3   OH265533   6.105   3.400   3.657 -0.0206 -0.3790 -0.1455
14681TIP3    H165534   6.183   3.383   3.605  0.4537 -0.6919  0.6496
14681TIP3    H265535   6.032   3.385   3.597  0.5245  0.2782 -1.0060
14682TIP3   OH265536   0.398   0.445  16.713 -0.2621 -0.0381 -0.0743
14682TIP3    H165537   0.354   0.515  16.760 -1.9746 -0.2946 -1.2346
14682TIP3    H265538   0.490   0.474  16.708 -0.8202  1.8558 -0.0877
14683TIP3   OH265539   4.195   0.055  16.633 -0.0076 -0.1958  0.8483
14683TIP3    H165540   4.101   0.054  16.614 -0.3132  2.6077  1.7686
14683TIP3    H265541   4.228   0.134  16.591  1.9370 -0.9693  0.7762
14684TIP3   OH265542   3.293   4.545  13.071 -0.1092 -0.2943  0.1081
14684TIP3    H165543   3.279   4.467  13.124  1.9345  0.1721  1.4290
14684TIP3    H265544   3.368   4.589  13.111 -0.0960  1.4399 -1.6507
14685TIP3   OH265545   4.232   0.277  12.461  0.2796  0.2717  0.8042
14685TIP3    H165546   4.232   0.201  12.403  1.8885 -0.4008  1.6219
14685TIP3    H265547   4.243   0.352  12.403  0.2321 -0.2534  0.1106
14686TIP3   OH265548   3.440   6.304  15.662  0.2457  0.2153  0.4137
14686TIP3    H165549   3.414   6.369  15.728  4.6408  1.6347  1.0740
14686TIP3    H265550   3.425   6.348  15.578  0.7305  1.0657  0.7582
14687TIP3   OH265551   4.939   5.450  15.962 -0.6087 -0.0811 -0.0725
14687TIP3    H165552   4.955   5.393  15.887  2.6141  0.5329 -0.0064
14687TIP3    H265553   4.970   5.400  16.037  3.0029  1.7782 -0.0923
14688TIP3   OH265554   5.521   4.997  12.496  0.0626  0.1177 -0.0150
14688TIP3    H165555   5.500   4.966  12.408  1.2045  0.2894 -0.3694
14688TIP3    H265556   5.615   4.981  12.505 -0.1264 -0.3258  1.3516
14689TIP3   OH265557   1.983   1.932  17.039  0.1539 -0.6519 -0.4760
14689TIP3    H165558   1.893   1.965  17.048  0.1242 -0.5125 -1.2139
14689TIP3    H265559   1.986   1.856  17.096 -0.6184 -1.0125 -0.9019
14690TIP3   OH265560   3.185   5.010  11.966 -0.2106 -0.4272 -0.3346
14690TIP3    H165561   3.116   5.004  11.900  1.5233  0.9970 -2.4042
14690TIP3    H265562   3.200   5.103  11.977  0.6441 -0.6898  0.9432
14691TIP3   OH265563   5.342   4.936  16.995  0.5032 -0.2029  0.4196
14691TIP3    H165564   5.349   5.016  16.943  0.9734 -0.6799 -0.2802
14691TIP3    H265565   5.275   4.884  16.950  0.7400 -0.5168  0.4213
14692TIP3   OH265566   0.291   6.641  16.504 -0.0810 -0.1291 -0.3985
14692TIP3    H165567   0.380   6.665  16.478  0.1198  1.1134  1.3391
14692TIP3    H265568   0.277   6.685  16.587 -1.5029 -2.1788  0.5251
14693TIP3   OH265569   0.134   3.251  13.748  0.0302  0.6487  0.3738
14693TIP3    H165570   0.161   3.162  13.773 -2.5257 -0.0733  0.9200
14693TIP3    H265571   0.117   3.295  13.831  0.0291  1.2351  0.0678
14694TIP3   OH265572   0.345   1.944   0.212 -0.1040  0.2255 -0.1099
14694TIP3    H165573   0.316   2.033   0.192 -2.4099 -0.5207 -0.3102
14694TIP3    H265574   0.440   1.952   0.221 -0.3335  2.9037  0.9079
14695TIP3   OH265575   0.234   3.617  16.835  0.2759  0.3054  0.0614
14695TIP3    H165576   0.140   3.598  16.841  0.7847 -2.5548  0.6340
14695TIP3    H265577   0.270   3.582  16.917  1.7962  1.8282  0.0836
14696TIP3   OH265578   1.873   0.254   0.620  0.0658 -0.3253 -0.0208
14696TIP3    H165579   1.805   0.193   0.591  1.2847 -1.7020 -0.0585
14696TIP3    H265580   1.934   0.201   0.670  0.4677  1.1399  1.1122
14697TIP3   OH265581   1.630   3.530  11.239 -0.2981 -0.1057 -0.1100
14697TIP3    H165582   1.726   3.529  11.238 -0.2935  0.2861 -0.4424
14697TIP3    H265583   1.604   3.446  11.203 -0.0770  0.0370 -0.6126
14698TIP3   OH265584   6.376   0.025  14.032 -0.0810 -0.4661 -0.6176
14698TIP3    H165585   6.417  -0.058  14.054  0.7119 -0.4400 -1.9087
14698TIP3    H265586   6.338   0.012  13.946 -0.6518  0.2771 -0.4931
14699TIP3   OH265587   1.226   0.533  16.054 -0.0570  0.2395 -0.5758
14699TIP3    H165588   1.315   0.542  16.085  0.0128 -0.5157 -0.5309
14699TIP3    H265589   1.177   0.498  16.128 -0.5018  1.1149 -0.4449
14700TIP3   OH265590   2.665   3.709  14.106  0.1413  0.5825  0.8325
14700TIP3    H165591   2.692   3.628  14.061 -0.5779 -0.1666  1.7223
14700TIP3    H265592   2.692   3.696  14.197 -2.1706  0.2590  1.5276
14701TIP3   OH265593   2.603   0.559   4.113 -0.0180  0.1701  0.1688
14701TIP3    H165594   2.550   0.500   4.060 -0.4024  0.0464  0.6853
14701TIP3    H265595   2.640   0.503   4.182  0.6815  0.2784 -0.1038
14702TIP3   OH265596   0.945   4.740   6.409 -0.7103  0.3957  0.2518
14702TIP3    H165597   1.030   4.755   6.452 -0.0339 -0.5170 -0.7282
14702TIP3    H265598   0.899   4.683   6.470  0.1861 -0.7730 -0.1323
14703TIP3   OH265599   1.309   1.895   3.405  0.2914  0.3401 -0.1363
14703TIP3    H165600   1.402   1.912   3.415  0.5218 -1.0679  0.3265
14703TIP3    H265601   1.302   1.799   3.405 -0.9694  0.3812 -1.8568
14704TIP3   OH265602   5.360   3.073   0.567 -0.1257  0.1180  0.2231
14704TIP3    H165603   5.397   3.109   0.648  0.3858  1.0030 -0.3904
14704TIP3    H265604   5.350   3.148   0.509 -2.5614 -0.1442  0.2073
14705TIP3   OH265605   0.809   6.457   1.504 -0.2610  0.4439  0.1678
14705TIP3    H165606   0.820   6.541   1.460  1.7043 -0.6248 -1.5263
14705TIP3    H265607   0.714   6.449   1.517 -0.8173  1.4876 -2.5877
14706TIP3   OH265608   1.558   4.261   3.401  0.4749 -0.3905  0.2481
14706TIP3    H165609   1.578   4.244   3.308 -3.2717  1.0977 -1.0093
14706TIP3    H265610   1.560   4.174   3.441 -0.8348 -1.5606 -1.9808
14707TIP3   OH265611   3.149   0.829  16.642 -0.5657 -0.2982  0.0462
14707TIP3    H165612   3.105   0.775  16.577  0.5099 -2.1701  0.7888
14707TIP3    H265613   3.228   0.859  16.598 -0.3121 -0.7683  0.1771
14708TIP3   OH265614   4.563   1.197  14.966  0.5642  0.1200 -0.1506
14708TIP3    H165615   4.655   1.224  14.962  1.2721 -1.7160  1.7896
14708TIP3    H265616   4.556   1.148  15.048 -2.3147  0.7343  0.0810
14709TIP3   OH265617   6.214   1.551  12.340 -0.3948 -0.2111  0.4633
14709TIP3    H165618   6.230   1.580  12.250  1.2916 -0.3453  0.6936
14709TIP3    H265619   6.178   1.463  12.331  0.2561 -0.4302 -0.0842
14710TIP3   OH265620   1.310   2.170  10.333 -0.7953 -0.2533  0.5984
14710TIP3    H165621   1.356   2.106  10.387 -0.7238 -0.4270  0.3352
14710TIP3    H265622   1.379   2.210  10.279 -0.6463  0.8933  1.5861
14711TIP3   OH265623   5.814   3.129   4.649  0.3629 -0.4023  0.5637
14711TIP3    H165624   5.818   3.192   4.721  0.8330  0.2712 -0.0305
14711TIP3    H265625   5.895   3.144   4.600 -1.2066  1.1355 -1.7250
14712TIP3   OH265626   6.300   6.004  12.582  0.0189  0.2483  0.0692
14712TIP3    H165627   6.325   5.929  12.636  0.0439  0.6895  0.6868
14712TIP3    H265628   6.217   6.033  12.619 -0.0453  0.4594 -0.2373
14713TIP3   OH265629   6.206   0.676  15.520 -0.5795 -0.6098  0.6220
14713TIP3    H165630   6.266   0.682  15.595 -1.2250 -2.9556  1.4256
14713TIP3    H265631   6.132   0.625  15.553 -0.7364 -1.9970 -1.6779
14714TIP3   OH265632   5.138   5.674   2.967 -0.1760  0.8568  0.0976
14714TIP3    H165633   5.071   5.707   3.027 -0.0607  1.4118 -0.0760
14714TIP3    H265634   5.202   5.745   2.961  0.6418  0.1690  0.5715
14715TIP3   OH265635   0.366   1.932  13.054 -0.0444 -0.3350  0.1015
14715TIP3    H165636   0.366   1.959  12.962 -1.2027  0.3023  0.2719
14715TIP3    H265637   0.371   1.836  13.050 -0.0881 -0.3139 -0.6264
14716TIP3   OH265638   0.971   6.369   2.944  0.1812  0.1133 -0.1229
14716TIP3    H165639   1.047   6.313   2.928 -0.8251 -1.4109  0.1866
14716TIP3    H265640   1.003   6.437   3.003  1.2517 -0.6307  0.1779
14717TIP3   OH265641   3.135   6.235   0.398  0.3667  0.4017 -0.0925
14717TIP3    H165642   3.171   6.165   0.343  1.2290  1.4008 -0.8324
14717TIP3    H265643   3.207   6.258   0.457 -0.2560 -0.0304  0.8766
14718TIP3   OH265644   2.206   6.419  14.601 -0.0082 -0.2323  0.1959
14718TIP3    H165645   2.207   6.471  14.682 -0.0941  0.2632 -0.1153
14718TIP3    H265646   2.133   6.358  14.613  0.5911 -0.8296  0.8979
14719TIP3   OH265647   4.527   5.564   2.482 -0.1748 -0.2999  0.4506
14719TIP3    H165648   4.586   5.491   2.465 -0.8676 -0.9743  0.8634
14719TIP3    H265649   4.481   5.539   2.562 -0.6189  0.4682  0.4456
14720TIP3   OH265650   3.527   0.285  15.243 -0.5871  0.1143 -0.0181
14720TIP3    H165651   3.491   0.206  15.284 -1.3867  0.9874  0.9836
14720TIP3    H265652   3.527   0.264  15.149 -0.3735 -1.2407  0.2583
14721TIP3   OH265653   4.546   0.706  14.746  0.0338 -0.1449 -0.2694
14721TIP3    H165654   4.598   0.638  14.704 -0.6207 -0.3300 -0.7872
14721TIP3    H265655   4.494   0.659  14.811 -0.5907 -0.1786 -0.7876
14722TIP3   OH265656   1.311   2.867  13.610  0.1311 -0.0393  0.6179
14722TIP3    H165657   1.301   2.958  13.636  1.8019  0.1298  0.7317
14722TIP3    H265658   1.392   2.864  13.559 -0.8294 -1.1395 -0.9697
14723TIP3   OH265659   6.225   4.694   5.143 -0.5426  0.1296  0.0545
14723TIP3    H165660   6.194   4.757   5.078  1.6092  2.0785  0.7999
14723TIP3    H265661   6.170   4.710   5.220  0.9878  2.3017  0.7713
14724TIP3   OH265662   0.933   6.502   4.927  0.0973  0.6072  0.2077
14724TIP3    H165663   0.991   6.565   4.970  1.5168 -0.9419  0.6386
14724TIP3    H265664   0.864   6.556   4.887  1.0781  2.3888  0.8461
14725TIP3   OH265665   5.580   1.293  10.864 -0.3379 -0.4309  0.0548
14725TIP3    H165666   5.550   1.383  10.852  1.4584  0.2652  0.5146
14725TIP3    H265667   5.503   1.239  10.844 -1.3362  1.1768 -0.6046
14726TIP3   OH265668   0.298   5.524   0.784  0.0690  0.3114  0.1053
14726TIP3    H165669   0.348   5.590   0.737  0.2206  0.0778 -0.0641
14726TIP3    H265670   0.362   5.478   0.838 -0.3401  1.6404  1.8083
14727TIP3   OH265671   6.325   3.703   2.377  0.2929  0.3280  0.3389
14727TIP3    H165672   6.309   3.760   2.453 -0.9344  0.5025 -0.0255
14727TIP3    H265673   6.360   3.622   2.415 -1.7398 -0.1738  1.2802
14728TIP3   OH265674   1.317   6.454   5.921 -0.3770  0.2594  0.0335
14728TIP3    H165675   1.295   6.371   5.963 -0.9865  0.1960 -0.4038
14728TIP3    H265676   1.344   6.430   5.832 -1.4883  0.6038 -0.4139
14729TIP3   OH265677   5.863   2.458  13.649  0.8444 -0.2781  0.2180
14729TIP3    H165678   5.842   2.375  13.607 -1.4680  0.3762 -0.0766
14729TIP3    H265679   5.902   2.511  13.580  1.0357 -0.6474  0.0405
14730TIP3   OH265680   2.664   1.213  14.774 -0.2693 -0.0957 -0.2380
14730TIP3    H165681   2.582   1.255  14.800 -1.5633 -1.9000 -1.1833
14730TIP3    H265682   2.700   1.272  14.706 -0.8348  0.6466  0.0913
14731TIP3   OH265683   0.901   6.350  14.237  0.0300 -0.0964  0.2873
14731TIP3    H165684   0.840   6.366  14.309 -1.6877 -1.3500 -0.8202
14731TIP3    H265685   0.852   6.296  14.175  2.6964 -2.2634 -0.0997
14732TIP3   OH265686   6.183   2.247  17.093 -0.2293  0.3680 -0.4825
14732TIP3    H165687   6.241   2.184  17.136 -0.2965  0.3878 -0.3619
14732TIP3    H265688   6.204   2.240  17.000  0.8063  1.2412 -0.3211
14733TIP3   OH265689   5.502   0.449  11.466  0.0707 -0.4695  0.2695
14733TIP3    H165690   5.439   0.471  11.534  0.5960 -0.9280  0.9170
14733TIP3    H265691   5.562   0.387  11.508  1.1943  0.2699 -0.2074
14734TIP3   OH265692   6.318   5.533  12.783  0.2599 -0.1039 -0.2985
14734TIP3    H165693   6.382   5.509  12.716  0.3806 -0.5737 -0.0170
14734TIP3    H265694   6.319   5.460  12.845 -0.8215 -0.3018 -0.4872
14735TIP3   OH265695   0.005   6.194   0.857 -0.1612  0.2736  0.2687
14735TIP3    H165696  -0.063   6.127   0.853  1.0717 -0.9879 -0.2899
14735TIP3    H265697  -0.041   6.276   0.839 -1.9635 -0.1852  2.2907
14736TIP3   OH265698   4.112   0.960  14.780  0.1703  0.2919 -0.4735
14736TIP3    H165699   4.066   1.019  14.721 -0.2560  1.7455  1.2297
14736TIP3    H265700   4.204   0.967  14.755 -0.1117  0.0183 -1.6502
14737TIP3   OH265701   2.567   4.940  17.062  0.2224  0.5408  0.2693
14737TIP3    H165702   2.622   4.862  17.068  1.0643  1.2118  1.8128
14737TIP3    H265703   2.584   4.975  16.974  3.3653  1.4749  1.1277
14738TIP3   OH265704   6.203   1.758   3.598 -0.3949 -0.1674 -0.8058
14738TIP3    H165705   6.133   1.823   3.600  0.0633  0.3665 -1.4666
14738TIP3    H265706   6.160   1.678   3.565 -0.5396  0.3884 -2.0453
14739TIP3   OH265707   4.598   6.256   4.280  0.0025 -0.0457  0.2087
14739TIP3    H165708   4.504   6.267   4.267 -0.3761 -1.7745  1.1800
14739TIP3    H265709   4.605   6.187   4.345  1.9583  0.2505  0.3629
14740TIP3   OH265710   0.273   3.222  16.007 -1.3281  0.2018  0.1011
14740TIP3    H165711   0.241   3.132  16.001 -1.2673  0.2517 -1.4722
14740TIP3    H265712   0.260   3.246  16.098  0.8029 -2.1941  1.1794
14741TIP3   OH265713   0.376   2.818   4.668  0.2586 -0.2211  0.0823
14741TIP3    H165714   0.399   2.739   4.717  1.4430  0.9089  1.4460
14741TIP3    H265715   0.455   2.838   4.617 -0.5559 -0.7225 -1.4630
14742TIP3   OH265716   2.597   6.162  15.600  0.2603 -0.0978 -0.9677
14742TIP3    H165717   2.656   6.111  15.657 -1.6736 -1.5842 -0.1673
14742TIP3    H265718   2.525   6.187  15.657  0.0363  1.6103 -1.9408
14743TIP3   OH265719   3.667   2.216  13.947 -0.1102  0.2823 -0.2115
14743TIP3    H165720   3.736   2.164  13.987  0.0705  1.2859  0.8331
14743TIP3    H265721   3.616   2.249  14.021 -1.3113  0.1156 -0.9330
14744TIP3   OH265722   2.919   2.800  12.391 -0.0205 -0.0663  0.1806
14744TIP3    H165723   2.993   2.834  12.442 -0.5785  0.9168  0.3500
14744TIP3    H265724   2.841   2.830  12.438 -0.5530 -1.8701  0.5133
14745TIP3   OH265725   1.617   5.588  11.523  0.4632 -0.1153  0.2019
14745TIP3    H165726   1.677   5.659  11.543 -1.6663  2.2590 -1.2331
14745TIP3    H265727   1.569   5.617  11.446 -3.9920 -0.7422  2.3511
14746TIP3   OH265728   4.781   0.349  16.876 -0.2427  0.1853 -0.1299
14746TIP3    H165729   4.709   0.365  16.816  0.1348 -1.3889 -1.0527
14746TIP3    H265730   4.853   0.318  16.821  1.2476  1.8913  0.7308
14747TIP3   OH265731   2.021   1.324  16.938 -0.7138  0.3432  0.6278
14747TIP3    H165732   2.098   1.360  16.893 -0.6801 -1.0200 -0.4499
14747TIP3    H265733   1.978   1.401  16.974  1.1001  1.1558  1.1936
14748TIP3   OH265734   4.152   6.183   1.664  0.3115 -0.3243 -0.6819
14748TIP3    H165735   4.131   6.257   1.607 -1.2448 -1.4900 -1.7041
14748TIP3    H265736   4.192   6.223   1.741  0.4651  1.4810 -1.6429
14749TIP3   OH265737   1.368   5.581   5.034 -0.0191 -0.2010 -0.1003
14749TIP3    H165738   1.273   5.583   5.041 -0.1177 -0.9960 -1.0169
14749TIP3    H265739   1.395   5.513   5.096 -0.1200 -0.6016 -0.4957
14750TIP3   OH265740   5.827   1.222   2.515 -0.2670 -0.1559 -0.7097
14750TIP3    H165741   5.764   1.152   2.534 -1.6047  1.6044  1.9157
14750TIP3    H265742   5.827   1.229   2.420 -1.2935 -2.6176 -0.9669
14751TIP3   OH265743   6.488   5.610   4.736  0.4261 -0.0593 -0.2106
14751TIP3    H165744   6.567   5.646   4.776  0.2294 -1.3309  1.4468
14751TIP3    H265745   6.518   5.532   4.690  0.1148 -0.9191  0.9660
14752TIP3   OH265746   0.267   2.645   0.747 -0.6517 -0.1992  0.4556
14752TIP3    H165747   0.285   2.564   0.700 -1.8664 -0.2566  0.0524
14752TIP3    H265748   0.180   2.632   0.786 -0.9048  0.9282  0.3132
14753TIP3   OH265749   4.851   0.999   2.208  0.1576  0.3890 -0.1428
14753TIP3    H165750   4.901   1.040   2.279 -1.4113  2.1853  0.0176
14753TIP3    H265751   4.801   1.072   2.169 -1.1496 -1.0411 -1.2610
14754TIP3   OH265752   5.108   5.242  16.830 -0.9307  0.8721  0.4218
14754TIP3    H165753   5.079   5.330  16.807 -1.2609  0.4025 -1.0864
14754TIP3    H265754   5.047   5.214  16.899 -2.8585  0.7001 -1.2345
14755TIP3   OH265755   5.461   6.640   0.627 -0.1331 -0.2004  0.5529
14755TIP3    H165756   5.482   6.706   0.694 -3.6845  0.9491  0.7385
14755TIP3    H265757   5.378   6.669   0.590 -0.4243 -3.1246 -1.4069
14756TIP3   OH265758   1.593   3.974   3.473  0.0258 -0.4570 -0.8512
14756TIP3    H165759   1.596   3.889   3.429 -0.5906 -1.0489  0.1848
14756TIP3    H265760   1.526   3.963   3.541  0.9526  0.4088  0.2371
14757TIP3   OH265761   4.634   0.306  12.476  0.3037 -0.5659  0.0235
14757TIP3    H165762   4.575   0.242  12.515  1.2336 -1.3133  0.2394
14757TIP3    H265763   4.603   0.390  12.509 -0.6823 -0.9226  0.0615
14758TIP3   OH265764   0.883   1.786  12.904 -0.3834  0.1833  0.3151
14758TIP3    H165765   0.845   1.804  12.818 -1.4152  0.3754  0.7981
14758TIP3    H265766   0.974   1.763  12.885 -0.6956 -0.1652 -0.8615
14759TIP3   OH265767   3.623   2.030  14.357  0.0524 -0.0865  0.0597
14759TIP3    H165768   3.603   1.974  14.282  0.0643  0.9126 -0.6977
14759TIP3    H265769   3.648   2.114  14.320  0.7592  0.2208  1.1636
14760TIP3   OH265770   2.073   4.817  16.645 -0.2760 -0.1965 -0.3098
14760TIP3    H165771   2.123   4.737  16.663 -0.8569 -0.4882  0.0131
14760TIP3    H265772   2.131   4.868  16.588  1.0341  0.1401  1.2411
14761TIP3   OH265773   1.495   3.368   0.250 -0.4895 -0.1237  0.2390
14761TIP3    H165774   1.491   3.399   0.159 -0.1837 -0.9421 -0.0595
14761TIP3    H265775   1.586   3.341   0.262 -0.7347 -0.8521  0.5053
14762TIP3   OH265776   3.947   3.999   3.470 -0.0080 -0.5599 -1.0154
14762TIP3    H165777   4.006   4.061   3.514 -1.1903  0.6017 -1.0028
14762TIP3    H265778   3.895   3.962   3.541 -0.5815 -0.1385 -1.2001
14763TIP3   OH265779   4.239   2.788   4.625  0.7564 -0.0788  0.3827
14763TIP3    H165780   4.331   2.770   4.643  0.5879 -0.3912  0.9455
14763TIP3    H265781   4.212   2.720   4.564  0.3660 -1.2190  1.7857
14764TIP3   OH265782   2.095   5.197  16.371  0.0418  0.2600  0.3983
14764TIP3    H165783   2.000   5.204  16.359  0.1514  2.7776  0.4369
14764TIP3    H265784   2.131   5.224  16.287  0.7413  0.2158  0.6824
14765TIP3   OH265785   6.399   0.490   0.840  0.5220 -0.1193 -0.0004
14765TIP3    H165786   6.479   0.439   0.825 -0.6079 -1.5403 -1.6537
14765TIP3    H265787   6.409   0.568   0.785  0.6372 -0.4567 -0.4594
14766TIP3   OH265788   2.329   3.886   3.110  0.1589  0.1237  0.5730
14766TIP3    H165789   2.392   3.847   3.171  1.4269  0.7147 -0.3094
14766TIP3    H265790   2.353   3.851   3.025 -1.7119 -0.8348  0.3960
14767TIP3   OH265791   4.899   2.420  14.352  0.1735  0.0454  0.5257
14767TIP3    H165792   4.875   2.478  14.280 -0.2225 -0.2538  0.4139
14767TIP3    H265793   4.979   2.458  14.388 -0.3227  0.9308  0.7477
14768TIP3   OH265794   4.263   3.749   1.980 -0.4302  0.4752 -0.7034
14768TIP3    H165795   4.222   3.668   2.009 -1.0033  0.9600 -0.1405
14768TIP3    H265796   4.318   3.723   1.906 -0.0756 -0.5430 -0.1044
14769TIP3   OH265797   6.010   1.338  13.273  0.0861 -0.7666  0.2077
14769TIP3    H165798   6.091   1.308  13.315  1.4618  2.4281  0.0620
14769TIP3    H265799   5.977   1.406  13.331 -2.0861 -1.3887 -0.2045
14770TIP3   OH265800   6.507   5.222   5.654  0.3712  0.1723  0.4414
14770TIP3    H165801   6.491   5.303   5.703  0.2928 -1.0786  2.6369
14770TIP3    H265802   6.536   5.160   5.721  1.3775 -1.3551 -1.3326
14771TIP3   OH265803   6.129   4.277   4.379  1.1580 -0.0566 -0.4224
14771TIP3    H165804   6.175   4.309   4.301 -1.0086 -2.1713 -2.7714
14771TIP3    H265805   6.073   4.350   4.405  2.7034  1.0624 -0.1196
14772TIP3   OH265806   4.773   2.766   4.952  0.0388  0.0864  0.7983
14772TIP3    H165807   4.684   2.737   4.930 -0.0932  1.4571 -0.7093
14772TIP3    H265808   4.824   2.685   4.956 -0.9853 -0.6263  0.1720
14773TIP3   OH265809   2.852   3.611   0.001 -0.2366  0.3320  0.1000
14773TIP3    H165810   2.819   3.696   0.028  0.6798  0.6470  0.2760
14773TIP3    H265811   2.825   3.552   0.072 -3.5716 -0.2149 -1.4454
14774TIP3   OH265812   0.498   1.614   4.485 -0.6927  1.0848  0.4786
14774TIP3    H165813   0.556   1.673   4.437 -0.3639  0.0843 -0.4104
14774TIP3    H265814   0.421   1.666   4.504  0.1814  2.2225  1.0160
14775TIP3   OH265815   3.610   6.399  13.793  0.0836 -0.1970  0.2179
14775TIP3    H165816   3.624   6.319  13.741  0.2796  0.2786 -0.4698
14775TIP3    H265817   3.515   6.403  13.805  0.1478 -1.1567  1.2759
14776TIP3   OH265818   6.234   1.569  13.375  0.1544  0.2105 -0.1268
14776TIP3    H165819   6.174   1.631  13.333 -0.8199  0.5617  1.6958
14776TIP3    H265820   6.302   1.623  13.415 -1.0779  0.2408  2.0743
14777TIP3   OH265821   5.732   5.361  13.850 -0.2961  0.4575 -0.1364
14777TIP3    H165822   5.655   5.313  13.881 -0.6769  0.1657 -1.4380
14777TIP3    H265823   5.760   5.413  13.925 -1.6670  0.4419  0.4256
14778TIP3   OH265824   4.552   0.356   5.233  0.4257 -0.6280  0.2486
14778TIP3    H165825   4.463   0.329   5.255  0.0215  0.0934 -0.4358
14778TIP3    H265826   4.607   0.283   5.262 -0.3511 -0.9595  0.9377
14779TIP3   OH265827   3.719   2.314  16.010  0.4481 -0.0748  0.0484
14779TIP3    H165828   3.653   2.290  15.946 -0.0988  0.2730  0.4752
14779TIP3    H265829   3.679   2.385  16.060  1.2384  0.3069  0.1493
14780TIP3   OH265830   1.902   5.587  11.702  0.1009 -0.0533 -0.2116
14780TIP3    H165831   1.978   5.617  11.653 -0.8788  1.6483 -0.7526
14780TIP3    H265832   1.836   5.654  11.688 -1.8173 -1.9025 -0.4637
14781TIP3   OH265833   5.215   2.637   3.928 -0.4941  0.1443 -0.5817
14781TIP3    H165834   5.189   2.588   4.007 -2.7871  1.1584 -0.6278
14781TIP3    H265835   5.193   2.728   3.948  0.3835  0.6452 -1.8139
14782TIP3   OH265836   1.574   4.373   0.082 -0.0139  0.3791  0.1180
14782TIP3    H165837   1.638   4.404   0.145  0.0876 -0.0761  0.2448
14782TIP3    H265838   1.535   4.452   0.046  0.8795  0.6785 -0.2269
14783TIP3   OH265839   4.921   2.949  13.340  0.5001  0.4957  0.1511
14783TIP3    H165840   4.971   2.917  13.416 -1.0505 -1.4350  0.4417
14783TIP3    H265841   4.859   2.878  13.321 -0.0167  1.4784 -2.1406
14784TIP3   OH265842   6.278   3.592   3.103 -0.0440 -0.1211 -0.0571
14784TIP3    H165843   6.231   3.601   3.020  0.1427  2.4354  0.0332
14784TIP3    H265844   6.349   3.656   3.097  0.7494 -0.7964  1.5691
14785TIP3   OH265845   2.877   2.528  12.300  0.3295  0.1889 -0.4931
14785TIP3    H165846   2.878   2.622  12.316 -3.0726  0.2087  0.5752
14785TIP3    H265847   2.892   2.518  12.206  0.9318  1.7816 -0.5770
14786TIP3   OH265848   1.113   1.509   3.202  0.2739 -0.3320  0.0712
14786TIP3    H165849   1.118   1.580   3.266 -1.3345  0.6749 -0.8374
14786TIP3    H265850   1.025   1.517   3.164  1.3021 -0.5728 -2.5686
14787TIP3   OH265851   5.235   1.387  14.521  0.1781 -0.8614  0.1760
14787TIP3    H165852   5.181   1.412  14.446  1.3190 -0.5325 -0.5749
14787TIP3    H265853   5.204   1.441  14.593 -0.0014 -0.1319 -0.4371
14788TIP3   OH265854   4.680   2.549  15.950  0.0272  0.0134  0.5822
14788TIP3    H165855   4.684   2.551  15.855 -0.3981 -1.1840  0.5211
14788TIP3    H265856   4.738   2.477  15.975 -0.9094 -0.5724  1.1318
14789TIP3   OH265857   5.124   5.899  16.281  0.3848 -0.4313  0.1331
14789TIP3    H165858   5.120   5.831  16.348  1.0511  0.2164  0.8517
14789TIP3    H265859   5.125   5.981  16.331  0.1923  0.0842 -0.6979
14790TIP3   OH265860   1.144   1.209  15.471 -1.0448 -0.2908 -0.6145
14790TIP3    H165861   1.162   1.132  15.418  2.2035 -0.4385  0.4664
14790TIP3    H265862   1.167   1.283  15.415  3.3016 -0.4625  0.5498
14791TIP3   OH265863   2.567   4.549  15.681  1.2751 -1.0150  0.0733
14791TIP3    H165864   2.569   4.624  15.622  1.3269 -1.3770 -0.3914
14791TIP3    H265865   2.474   4.535  15.699  1.2010 -1.4467 -0.6289
14792TIP3   OH265866   2.863   2.283   3.792 -0.1520  0.0704  0.2930
14792TIP3    H165867   2.919   2.355   3.820  1.2974 -1.2951  1.0412
14792TIP3    H265868   2.845   2.234   3.872 -0.1894 -1.0230 -0.3647
14793TIP3   OH265869   1.795   4.113  14.413  0.4529  0.3401 -0.4644
14793TIP3    H165870   1.709   4.132  14.376  0.2834  0.5532  0.0340
14793TIP3    H265871   1.777   4.070  14.496  0.7945  1.8952  0.4452
14794TIP3   OH265872   1.766   0.055   3.071 -0.2682  0.3669 -0.0041
14794TIP3    H165873   1.726   0.016   3.148 -2.3698 -1.3493 -1.8008
14794TIP3    H265874   1.845   0.002   3.056 -0.4192  0.0285  0.3743
14795TIP3   OH265875   1.250   1.485   4.674 -0.1529 -0.9515  0.1478
14795TIP3    H165876   1.304   1.516   4.602 -0.0165  1.6192  1.2361
14795TIP3    H265877   1.300   1.412   4.712  1.4425 -0.1266 -0.2916
14796TIP3   OH265878   5.498   0.319  15.654 -0.8486 -0.1443 -0.1219
14796TIP3    H165879   5.475   0.264  15.730 -0.4978 -0.5766 -0.3225
14796TIP3    H265880   5.441   0.287  15.584 -0.6885 -0.2028 -0.2229
14797TIP3   OH265881   4.957   0.027  11.801  0.1424  0.1663 -0.6816
14797TIP3    H165882   4.946  -0.008  11.712  0.6309  1.3171 -1.2172
14797TIP3    H265883   5.043  -0.006  11.829  0.9705  1.5199 -1.5011
14798TIP3   OH265884   3.105   3.511  14.926  0.1490 -0.1918 -0.3092
14798TIP3    H165885   3.038   3.479  14.986 -0.4216  1.6024  0.0773
14798TIP3    H265886   3.186   3.467  14.954 -0.6798 -1.7681 -0.2728
14799TIP3   OH265887   4.745   1.977  14.575 -0.1861  0.0402 -0.3095
14799TIP3    H165888   4.815   1.949  14.516  1.0417  0.1173  1.0653
14799TIP3    H265889   4.723   2.065  14.545 -0.5538 -0.4306 -1.4938
14800TIP3   OH265890   3.948   5.741   3.771  0.2432  0.1204 -0.4626
14800TIP3    H165891   3.925   5.653   3.801  0.7339 -0.0313 -0.5238
14800TIP3    H265892   3.961   5.791   3.852  0.0801  0.1045 -0.4266
14801TIP3   OH265893   3.293   1.867   4.855 -0.0687 -0.1069  0.7129
14801TIP3    H165894   3.236   1.844   4.781  0.9542  0.0969 -0.1701
14801TIP3    H265895   3.304   1.962   4.848 -1.6294  0.2516  2.3924
14802TIP3   OH265896   0.516   1.751   3.844 -0.2638 -1.0419  0.2279
14802TIP3    H165897   0.484   1.807   3.915  1.9534  0.0219  0.4851
14802TIP3    H265898   0.541   1.813   3.775  2.0633 -1.6321  0.4426
14803TIP3   OH265899   0.608   0.654  14.277  0.6376 -0.5655 -0.1630
14803TIP3    H165900   0.591   0.700  14.359  0.4202 -1.0776  0.0875
14803TIP3    H265901   0.522   0.645  14.236  0.7119 -0.5330 -0.3250
14804TIP3   OH265902   2.975   6.582  14.443  0.2551  0.5879 -0.4577
14804TIP3    H165903   2.884   6.579  14.474  0.3301 -0.2391 -0.2853
14804TIP3    H265904   2.968   6.600  14.350  0.0123  2.8096 -0.0741
14805TIP3   OH265905   2.657   6.195  11.550 -0.3046  0.5265  0.3922
14805TIP3    H165906   2.569   6.201  11.515  0.3742  1.1686 -1.3332
14805TIP3    H265907   2.655   6.121  11.610 -1.8225  0.0793 -0.1771
14806TIP3   OH265908   1.558   0.673  12.379  0.0261 -0.6579  0.5735
14806TIP3    H165909   1.466   0.663  12.403 -0.1406 -1.1012 -0.1926
14806TIP3    H265910   1.597   0.588  12.400  0.5001 -0.1346  1.8660
14807TIP3   OH265911   0.646   2.512  12.297  0.2128 -0.6754  1.0441
14807TIP3    H165912   0.687   2.560  12.370 -0.3652  0.0806  0.8846
14807TIP3    H265913   0.710   2.518  12.226  0.1120 -0.0450  0.9976
14808TIP3   OH265914   5.369   0.397   4.427  0.1004  0.4939  0.1364
14808TIP3    H165915   5.439   0.407   4.363  0.2201 -0.6173  0.0773
14808TIP3    H265916   5.400   0.442   4.505  0.3650  1.0256 -0.2719
14809TIP3   OH265917   5.108   4.031   1.283 -0.7627 -0.2926  0.1086
14809TIP3    H165918   5.060   4.060   1.361 -0.1662 -2.1600  1.2366
14809TIP3    H265919   5.157   3.954   1.313  2.9226  1.4135 -0.9616
14810TIP3   OH265920   2.338   3.185  11.490  0.4415  0.3080  0.2210
14810TIP3    H165921   2.296   3.206  11.574  3.1843  1.5931  1.4164
14810TIP3    H265922   2.304   3.251  11.430 -0.3054  0.4391  0.7710
14811TIP3   OH265923   6.609   2.273   5.822  0.2767  0.1181 -0.0077
14811TIP3    H165924   6.680   2.337   5.826  0.6314 -0.3183  0.8857
14811TIP3    H265925   6.652   2.188   5.836 -0.5011 -0.0838  1.2309
14812TIP3   OH265926   0.195   4.024  14.228  0.1113  0.1365 -0.6362
14812TIP3    H165927   0.180   4.066  14.313  1.0371  1.0438 -0.8963
14812TIP3    H265928   0.134   3.951  14.226  2.0330 -1.7300  2.0468
14813TIP3   OH265929   1.282   5.927  12.541  0.1272 -0.6818  0.4129
14813TIP3    H165930   1.337   5.950  12.616  0.5624 -1.3467  0.3103
14813TIP3    H265931   1.196   5.961  12.563  0.6183  0.5562  0.4898
14814TIP3   OH265932   6.089   3.614   6.574  0.1585 -0.4809  0.1449
14814TIP3    H165933   6.104   3.550   6.505 -1.1335  0.1471 -0.7547
14814TIP3    H265934   6.131   3.694   6.542  0.9056 -0.5937  0.8139
14815TIP3   OH265935   6.782   4.840  15.005  0.0692  0.0053  0.1271
14815TIP3    H165936   6.761   4.903  15.075 -1.7206  0.4780 -0.7697
14815TIP3    H265937   6.876   4.852  14.990 -0.3248  3.1476 -0.5741
14816TIP3   OH265938   3.733   0.946   0.290  0.2693 -0.2440 -0.3355
14816TIP3    H165939   3.827   0.961   0.286  0.2000 -0.0253 -1.4975
14816TIP3    H265940   3.694   1.029   0.262 -0.2736 -0.3397  0.1167
14817TIP3   OH265941   4.520   4.996   2.085  0.1974  0.0799  0.1075
14817TIP3    H165942   4.571   5.004   2.004  1.8604 -1.0083  0.9952
14817TIP3    H265943   4.531   5.081   2.129  0.2721  0.2603 -0.2587
14818TIP3   OH265944   5.898   3.257   2.878  0.0703  0.0964 -0.4833
14818TIP3    H165945   5.872   3.344   2.848  0.6561 -0.1037 -1.6104
14818TIP3    H265946   5.817   3.205   2.876 -0.0279  0.2691 -1.0618
14819TIP3   OH265947   4.313   0.486  16.102  0.3916 -0.0209 -0.2610
14819TIP3    H165948   4.396   0.520  16.135  0.2681 -1.0610  1.2344
14819TIP3    H265949   4.313   0.393  16.128 -1.2438 -0.0348 -0.1815
14820TIP3   OH265950   0.134   4.141  13.589  0.3220 -0.0042 -0.3681
14820TIP3    H165951   0.050   4.101  13.567 -0.1069 -1.5941  3.3304
14820TIP3    H265952   0.111   4.221  13.636  0.9359  0.3678 -0.6869
14821TIP3   OH265953   5.676   0.233  11.608  0.3320  0.6848  0.2002
14821TIP3    H165954   5.652   0.170  11.675 -0.3097 -0.1997 -0.8317
14821TIP3    H265955   5.750   0.193  11.563  0.9791  1.4254  0.5783
14822TIP3   OH265956   6.174   5.152  11.047  0.3187 -0.2356 -0.4009
14822TIP3    H165957   6.166   5.204  10.967 -0.5874 -0.5520 -0.5285
14822TIP3    H265958   6.262   5.115  11.043  0.4689  0.1734 -0.9913
14823TIP3   OH265959   4.400   3.258   2.425  0.0624 -0.4725 -0.3440
14823TIP3    H165960   4.373   3.335   2.375  2.1916  0.9300  0.5003
14823TIP3    H265961   4.478   3.227   2.379  0.2233 -1.0748  0.3242
14824TIP3   OH265962   6.565   0.677   2.243  0.1238  0.2502  0.0968
14824TIP3    H165963   6.526   0.691   2.329 -0.9084 -0.0189 -0.3145
14824TIP3    H265964   6.626   0.749   2.232  0.3000  0.2655  1.0684
14825TIP3   OH265965   6.801   4.464   3.745 -0.2738  0.6613  0.3252
14825TIP3    H165966   6.712   4.455   3.780 -0.8467  2.1981 -0.6316
14825TIP3    H265967   6.857   4.465   3.822 -1.0462 -0.4594  0.9426
14826TIP3   OH265968   5.483   6.698   1.908  0.2392 -0.7517 -0.1096
14826TIP3    H165969   5.556   6.760   1.907  0.6662 -1.2209  0.6304
14826TIP3    H265970   5.509   6.629   1.847  0.5344 -1.0490  0.3510
14827TIP3   OH265971   6.321   2.667   2.426 -0.2898  0.3609 -0.0731
14827TIP3    H165972   6.363   2.690   2.343  0.7981 -0.6907  0.1654
14827TIP3    H265973   6.274   2.586   2.408 -0.4079  0.3612  0.2312
14828TIP3   OH265974   1.296   1.322   6.686  0.1463  0.1293 -0.0269
14828TIP3    H165975   1.364   1.361   6.631 -1.1130  0.1526 -1.6361
14828TIP3    H265976   1.331   1.236   6.709  0.5742 -0.0206 -1.1491
14829TIP3   OH265977   1.550   1.303   0.531  0.4052 -0.1705 -0.0240
14829TIP3    H165978   1.537   1.365   0.602 -2.0187 -0.8085  0.1739
14829TIP3    H265979   1.633   1.260   0.552  0.2775  0.4089  1.8359
14830TIP3   OH265980   5.950   1.587   4.254 -0.4391  0.7492  1.0220
14830TIP3    H165981   5.987   1.540   4.329 -0.4027 -0.8461  0.0617
14830TIP3    H265982   6.025   1.611   4.200 -0.5617  0.4718  0.7198
14831TIP3   OH265983   2.489   1.474   4.606 -0.1410 -0.0179  0.2711
14831TIP3    H165984   2.403   1.433   4.614 -0.5212  0.3770 -1.4086
14831TIP3    H265985   2.472   1.554   4.557  1.2241 -0.1417 -0.4466
14832TIP3   OH265986   2.027   6.597  15.128  0.4424  0.1213  0.2185
14832TIP3    H165987   2.016   6.570  15.037  1.2166 -1.1576  0.4879
14832TIP3    H265988   2.001   6.689  15.128 -2.4941 -0.6000 -0.6873
14833TIP3   OH265989   2.776   3.171   0.837  0.8190 -0.3527  1.1038
14833TIP3    H165990   2.793   3.251   0.886  1.8633 -0.1340  0.4209
14833TIP3    H265991   2.761   3.105   0.904  0.6402  0.2685  1.6904
14834TIP3   OH265992   5.298   1.041   1.865 -0.1214 -0.1433  0.3146
14834TIP3    H165993   5.315   1.000   1.950  1.0110 -1.1856 -0.3727
14834TIP3    H265994   5.328   0.976   1.801 -1.0360  0.5828 -0.8902
14835TIP3   OH265995   0.802   1.168   2.622  0.5014 -0.0347 -0.0472
14835TIP3    H165996   0.728   1.129   2.668 -0.4207  0.2316 -1.2826
14835TIP3    H265997   0.854   1.094   2.593  0.5767 -0.2294  0.5711
14836TIP3   OH265998   1.102   1.671   3.814  0.1318 -0.1468  0.0597
14836TIP3    H165999   1.019   1.681   3.768  0.3473  1.5433 -0.0435
14836TIP3    H266000   1.110   1.751   3.866  2.6115  0.7016 -1.4749
14837TIP3   OH266001   4.086   2.340   2.734 -0.5549  0.0097 -0.3038
14837TIP3    H166002   4.177   2.367   2.744  0.2757 -2.1467 -1.2528
14837TIP3    H266003   4.035   2.420   2.744  1.3965  1.1711  0.8267
14838TIP3   OH266004   1.858   4.876  11.090 -0.0206 -0.6916  0.8979
14838TIP3    H166005   1.902   4.956  11.062  2.5041 -1.5384  2.1022
14838TIP3    H266006   1.827   4.836  11.008 -2.9999  2.2588  0.3851
14839TIP3   OH266007   0.307   1.199  17.029  0.3898  0.0160  0.2662
14839TIP3    H166008   0.280   1.284  17.063  1.5858  0.3575  0.4027
14839TIP3    H266009   0.403   1.200  17.032  0.4734 -0.8552 -0.8980
14840TIP3   OH266010   1.692   2.889   0.034  0.0674  0.1240 -0.6197
14840TIP3    H166011   1.674   2.981   0.051  1.3950  0.0335  1.6263
14840TIP3    H266012   1.768   2.890  -0.024 -0.1201  0.4468 -0.8624
14841TIP3   OH266013   2.849   5.470   0.006  0.1472  0.6154 -0.1682
14841TIP3    H166014   2.757   5.463   0.034  0.2054 -0.2029 -0.1788
14841TIP3    H266015   2.897   5.418   0.070  0.4805  0.1488 -0.7878
14842TIP3   OH266016   1.794   1.570   3.525 -0.3374 -0.0216 -0.3526
14842TIP3    H166017   1.845   1.626   3.583 -1.3405  0.3698  0.1751
14842TIP3    H266018   1.705   1.574   3.560 -0.9425  0.1199 -1.8429
14843TIP3   OH266019   3.982   1.322  16.848  0.6132 -0.2338 -0.2503
14843TIP3    H166020   3.938   1.286  16.925  0.2373 -0.3637 -0.5207
14843TIP3    H266021   3.914   1.373  16.804  0.9208  0.1298 -0.3084
14844TIP3   OH266022   0.826   6.502   3.323  0.3812 -0.5032  0.2991
14844TIP3    H166023   0.752   6.494   3.263  1.1376  0.1776 -0.7599
14844TIP3    H266024   0.786   6.520   3.408 -0.7032 -1.2997 -0.0250
14845TIP3   OH266025   1.935   6.592   0.811  0.4745 -0.2113 -0.5972
14845TIP3    H166026   1.928   6.647   0.890  1.5599 -0.1849 -0.5010
14845TIP3    H266027   1.844   6.576   0.786  0.0944 -0.3018  0.7199
14846TIP3   OH266028   2.714   5.973  15.026 -0.5526 -0.5798  0.6428
14846TIP3    H166029   2.642   5.911  15.041  0.6586 -1.7587  1.9418
14846TIP3    H266030   2.791   5.929  15.062  1.0493  0.1851 -1.6281
14847TIP3   OH266031   6.837   3.956   1.839 -0.1724  0.0220  0.2237
14847TIP3    H166032   6.837   3.948   1.934 -0.0646 -0.7285  0.1662
14847TIP3    H266033   6.744   3.956   1.815 -0.1820 -0.9326  0.2432
14848TIP3   OH266034   1.712   0.953  13.562 -0.0399  0.1731  0.1551
14848TIP3    H166035   1.805   0.933  13.561 -0.0011  0.3381 -0.9078
14848TIP3    H266036   1.701   1.019  13.493 -0.9844 -0.0704  0.0567
14849TIP3   OH266037   4.499   0.044   1.503  0.6516  0.3601  0.1421
14849TIP3    H166038   4.576   0.100   1.511  0.0893  1.1270  0.3115
14849TIP3    H266039   4.429   0.095   1.543 -0.1685  0.1198 -0.9650
14850TIP3   OH266040   1.901   5.227   3.439  0.1783  0.0354 -0.1185
14850TIP3    H166041   1.976   5.201   3.492  0.0404  0.3934  0.2549
14850TIP3    H266042   1.911   5.321   3.426  1.3765 -0.3365 -2.5590
14851TIP3   OH266043   4.997   4.178  12.937  0.1574  0.1105 -0.1165
14851TIP3    H166044   4.986   4.094  12.892  0.7781 -0.2191  0.3355
14851TIP3    H266045   5.090   4.181  12.960 -0.4350 -0.5312  2.6856
14852TIP3   OH266046   1.252   0.626  11.535 -0.1116 -0.3338  0.6487
14852TIP3    H166047   1.270   0.702  11.480  1.3385 -1.4862 -0.5534
14852TIP3    H266048   1.321   0.627  11.601  0.9568 -1.5017 -0.4003
14853TIP3   OH266049   5.541   1.426   4.801 -0.5689  0.1610  0.1127
14853TIP3    H166050   5.622   1.463   4.836  0.2011  0.5603 -1.9865
14853TIP3    H266051   5.486   1.412   4.879  0.8094  1.5440  1.4063
14854TIP3   OH266052   2.518   2.014  12.412  0.8320 -0.3934 -0.0483
14854TIP3    H166053   2.600   1.991  12.367  1.1899  0.8540 -0.0839
14854TIP3    H266054   2.544   2.028  12.503  0.4614 -1.0134  0.1556
14855TIP3   OH266055   3.930   1.150   4.977  0.0368 -0.1214  0.3663
14855TIP3    H166056   4.023   1.145   4.954 -0.2537 -1.6748 -0.6140
14855TIP3    H266057   3.885   1.166   4.894 -0.5592  1.0546  0.8954
14856TIP3   OH266058   5.942   5.034   4.073 -0.2581  0.2068  0.3689
14856TIP3    H166059   5.933   5.078   4.158 -2.5543 -2.1207  1.4759
14856TIP3    H266060   6.035   5.014   4.066  0.2234  1.8226  1.5756
14857TIP3   OH266061   0.544   4.798  13.957  0.1903 -0.3410 -0.1831
14857TIP3    H166062   0.600   4.788  14.034 -2.4331  0.6519  1.9893
14857TIP3    H266063   0.509   4.710  13.942 -0.7039 -0.2042  0.9603
14858TIP3   OH266064   2.969   2.420   4.093  0.1353  0.0028 -0.5219
14858TIP3    H166065   2.985   2.504   4.049  1.8157 -0.1604 -0.2795
14858TIP3    H266066   2.969   2.442   4.187 -0.4957 -0.1226 -0.4835
14859TIP3   OH266067   5.111   0.526  15.671  0.0262 -0.4748  0.3505
14859TIP3    H166068   5.207   0.532  15.669 -0.0169  0.2016 -1.5504
14859TIP3    H266069   5.082   0.583  15.600 -1.7366 -1.7698 -0.0376
14860TIP3   OH266070   2.856   3.394  12.041  0.2825  0.1957 -0.3287
14860TIP3    H166071   2.761   3.412  12.045  0.2037 -0.4218  0.9540
14860TIP3    H266072   2.865   3.325  11.976 -0.1722  0.1206 -0.3143
14861TIP3   OH266073   0.941   2.230   0.096 -0.7195 -0.1987  0.1126
14861TIP3    H166074   0.875   2.300   0.092 -0.1216  0.3193 -1.5466
14861TIP3    H266075   1.006   2.255   0.031  0.2522 -1.5902  0.5080
14862TIP3   OH266076   1.200   2.138   0.342 -0.2573 -0.0431 -0.1014
14862TIP3    H166077   1.275   2.142   0.402  0.8202 -2.7705 -1.1186
14862TIP3    H266078   1.143   2.209   0.371  1.7666  0.8685  1.9965
14863TIP3   OH266079   1.187   5.227  15.634 -0.3780 -0.4011 -0.5625
14863TIP3    H166080   1.228   5.146  15.604  0.4393 -0.1509 -0.1634
14863TIP3    H266081   1.093   5.213  15.622 -0.3890 -2.0890  1.1256
14864TIP3   OH266082   4.689   3.655  10.445 -0.1729  0.3060  0.1522
14864TIP3    H166083   4.742   3.606  10.508  1.3018 -0.6207 -1.6985
14864TIP3    H266084   4.661   3.590  10.381 -0.5664  1.4054 -0.8281
14865TIP3   OH266085   4.346   2.263  16.206  0.4719  0.3743 -0.4963
14865TIP3    H166086   4.252   2.244  16.213  0.0285  2.7135  1.4572
14865TIP3    H266087   4.351   2.330  16.138  0.8109 -0.1969 -1.0339
14866TIP3   OH266088   6.444   4.453   2.711  0.1411 -0.3540 -0.2846
14866TIP3    H166089   6.431   4.367   2.671 -1.1444  0.6881 -2.2885
14866TIP3    H266090   6.514   4.492   2.660 -0.8967  0.6589 -0.9793
14867TIP3   OH266091   3.885   4.354  14.002  0.5476  0.2923  0.2303
14867TIP3    H166092   3.976   4.365  13.974  1.1316 -3.3974  0.1549
14867TIP3    H266093   3.882   4.266  14.040 -2.8557  0.5648  0.9315
14868TIP3   OH266094   2.462   5.232   5.115 -0.1150 -0.3134  0.0919
14868TIP3    H166095   2.429   5.315   5.081  2.2845  0.4856 -0.4766
14868TIP3    H266096   2.464   5.173   5.040  1.3501  0.2114 -0.3300
14869TIP3   OH266097   0.104   5.659   2.145 -0.3080  0.8817  0.6375
14869TIP3    H166098   0.087   5.724   2.076  0.1158  0.6684  0.3243
14869TIP3    H266099   0.087   5.706   2.227 -0.7808  1.1508  0.3905
14870TIP3   OH266100   1.614   4.160  16.354 -0.2969 -0.0557  0.3386
14870TIP3    H166101   1.623   4.081  16.300  0.8915 -0.7136  1.4528
14870TIP3    H266102   1.639   4.132  16.442  0.3386  1.6019  0.7226
14871TIP3   OH266103   6.309   5.374  11.295  0.1888  0.1016  0.2303
14871TIP3    H166104   6.386   5.327  11.265 -0.0874  0.8097 -1.6976
14871TIP3    H266105   6.343   5.448  11.344  0.7432  0.2960 -0.4389
14872TIP3   OH266106   2.254   3.019   1.685 -0.3320 -0.4450 -0.0780
14872TIP3    H166107   2.193   3.092   1.694 -0.9471 -0.8992 -0.4674
14872TIP3    H266108   2.319   3.033   1.754 -1.6145 -0.6565  1.2055
14873TIP3   OH266109   4.371   3.061  14.998 -0.3061  0.6271 -0.1898
14873TIP3    H166110   4.336   3.021  15.078  2.0321  1.0287  1.1462
14873TIP3    H266111   4.428   3.131  15.029  2.9796 -1.0124 -1.9571
14874TIP3   OH266112   3.037   6.244   5.827  0.4152 -0.4009 -0.1370
14874TIP3    H166113   3.028   6.159   5.785  1.7194 -0.4711 -0.2991
14874TIP3    H266114   3.106   6.232   5.892  1.6640  0.8988 -1.1636
14875TIP3   OH266115   6.773   3.088  13.951  0.4191 -0.3546 -0.2149
14875TIP3    H166116   6.777   3.036  14.032 -1.0799  0.3489  0.3433
14875TIP3    H266117   6.723   3.033  13.890  2.4291 -1.3479 -1.0940
14876TIP3   OH266118   3.461   4.531  14.909 -0.5588  0.5300 -0.2951
14876TIP3    H166119   3.454   4.446  14.951 -1.3408  0.5057 -0.4519
14876TIP3    H266120   3.372   4.549  14.877 -0.5004  1.5769  0.0930
14877TIP3   OH266121   2.636   6.274   4.556 -0.2843  0.3516 -0.4570
14877TIP3    H166122   2.658   6.273   4.649  0.0905 -1.1371 -0.5307
14877TIP3    H266123   2.623   6.182   4.534  3.6617  0.1002 -2.7692
14878TIP3   OH266124   1.461   5.491  11.051  0.0353  0.0962  0.5750
14878TIP3    H166125   1.490   5.581  11.038 -1.5104  0.5518 -0.0105
14878TIP3    H266126   1.438   5.486  11.144  1.6134 -0.1869  0.9739
14879TIP3   OH266127   2.740   2.641  14.043 -0.5515  0.3730  0.4670
14879TIP3    H166128   2.722   2.692  14.122 -1.3374  1.0840 -0.1575
14879TIP3    H266129   2.669   2.578  14.039 -0.0488 -0.2257  0.7714
14880TIP3   OH266130   3.169   2.691  10.581 -0.1998 -0.6208 -0.3404
14880TIP3    H166131   3.261   2.714  10.571 -0.2537 -0.5921 -0.7732
14880TIP3    H266132   3.132   2.761  10.634  0.1627 -0.9547  0.3801
14881TIP3   OH266133   0.251   1.436   5.862  0.2800  0.3151 -0.3727
14881TIP3    H166134   0.180   1.480   5.908 -1.3229 -2.7728  0.4032
14881TIP3    H266135   0.312   1.409   5.931  0.8525  0.6484 -0.7397
14882TIP3   OH266136   4.528   4.796  14.685  0.0780  0.1457  0.2939
14882TIP3    H166137   4.481   4.823  14.764 -0.5951  1.0952 -0.4045
14882TIP3    H266138   4.468   4.736  14.641 -0.0762  0.5806 -0.1008
14883TIP3   OH266139   3.435   0.606   2.185  0.4952  0.6620 -0.3051
14883TIP3    H166140   3.496   0.553   2.134  0.4170  0.0281  0.2496
14883TIP3    H266141   3.359   0.617   2.127  0.1059 -0.6591 -0.0839
14884TIP3   OH266142   5.784   5.553   0.938  0.1457  0.3578  0.1117
14884TIP3    H166143   5.802   5.495   1.012  2.1255  2.2624  1.2483
14884TIP3    H266144   5.728   5.622   0.974 -1.9910 -0.5841 -1.1639
14885TIP3   OH266145   5.581   5.354   3.964  0.1986 -0.4841  0.4161
14885TIP3    H166146   5.616   5.383   4.048  0.7463 -0.5329  0.2043
14885TIP3    H266147   5.491   5.387   3.964  0.1652 -0.5550  1.0539
14886TIP3   OH266148   0.054   6.482  15.208  0.1260 -0.4773 -0.7325
14886TIP3    H166149   0.130   6.541  15.204  0.7872 -1.2345  0.2461
14886TIP3    H266150   0.089   6.399  15.240 -1.0002 -1.0596 -0.9477
14887TIP3   OH266151   4.912   0.513   3.325 -0.2801  0.3423  0.0589
14887TIP3    H166152   4.878   0.495   3.413 -2.0468  0.2762 -0.6095
14887TIP3    H266153   4.895   0.433   3.275  1.0420  0.2443 -0.2899
14888TIP3   OH266154   3.098   4.649   3.469 -0.2271  0.5040 -0.2242
14888TIP3    H166155   3.110   4.717   3.536  1.2232 -0.5856  0.6778
14888TIP3    H266156   3.030   4.684   3.411 -1.2325  1.6644  1.5745
14889TIP3   OH266157   6.392   6.196   4.887 -0.3693  0.1195  0.3944
14889TIP3    H166158   6.415   6.279   4.928 -1.3740  0.1723  0.8979
14889TIP3    H266159   6.442   6.130   4.935 -0.4779  0.3239  0.7928
14890TIP3   OH266160   2.758   1.674  13.899 -0.6623 -0.1206  0.3864
14890TIP3    H166161   2.800   1.758  13.881 -1.3298 -0.1124 -1.2762
14890TIP3    H266162   2.705   1.656  13.821  0.5376 -2.7498  0.0668
14891TIP3   OH266163   2.568   1.065   2.302 -0.2174  0.6069  0.0157
14891TIP3    H166164   2.535   1.044   2.389 -0.0852 -2.2044 -0.5035
14891TIP3    H266165   2.663   1.057   2.309 -0.1850  0.6928 -0.2971
14892TIP3   OH266166   1.787   6.042  14.766 -0.4268  0.1531 -0.3367
14892TIP3    H166167   1.782   5.946  14.765 -1.1763  0.1496  1.2019
14892TIP3    H266168   1.793   6.067  14.674 -1.4084 -1.3184 -0.8297
14893TIP3   OH266169   6.797   3.823  16.583 -0.1080 -0.4981 -0.2058
14893TIP3    H166170   6.784   3.918  16.584  0.7249 -0.3800  0.1139
14893TIP3    H266171   6.862   3.807  16.652 -0.1132 -1.2798 -0.3737
14894TIP3   OH266172   3.939   1.869  12.791  0.3059 -0.2134  0.2278
14894TIP3    H166173   3.876   1.904  12.728 -2.2065 -0.3539  2.4648
14894TIP3    H266174   3.998   1.942  12.810 -1.1872  0.9950  0.4227
14895TIP3   OH266175   1.694   6.799   3.473  0.6274  0.3736 -0.3797
14895TIP3    H166176   1.745   6.728   3.433  1.3475  0.5891  0.1317
14895TIP3    H266177   1.661   6.762   3.554  1.6799  0.8589  0.2882
14896TIP3   OH266178   5.588   0.053  14.608 -0.0664  0.3329  0.2412
14896TIP3    H166179   5.564   0.018  14.694  1.3971 -1.8729 -0.1735
14896TIP3    H266180   5.649   0.125  14.627  0.1417 -0.0512  1.0573
14897TIP3   OH266181   1.196   5.247  11.273 -0.4590  0.4497 -0.2038
14897TIP3    H166182   1.125   5.196  11.312 -1.3517  1.2426 -0.7240
14897TIP3    H266183   1.202   5.216  11.183 -0.4633  0.7046 -0.2930
14898TIP3   OH266184   2.075   0.595  12.140 -0.0067 -0.0703 -0.0398
14898TIP3    H166185   2.131   0.628  12.209  0.4083 -0.5068 -0.1629
14898TIP3    H266186   2.035   0.673  12.101  0.0563  0.1980  0.4339
14899TIP3   OH266187   0.770   3.216   0.618  0.1412  0.1287  0.3691
14899TIP3    H166188   0.818   3.299   0.623  0.9647 -0.3520  0.5937
14899TIP3    H266189   0.735   3.203   0.706 -1.8396  1.2780 -0.1576
14900TIP3   OH266190   3.156   3.054   0.068  0.5226  0.4315  0.2526
14900TIP3    H166191   3.189   3.050  -0.022  0.4939  0.6807  0.2317
14900TIP3    H266192   3.208   3.123   0.109  0.8642 -0.0024  0.5629
14901TIP3   OH266193   6.214   1.941  15.539 -0.1605  0.0296 -0.2464
14901TIP3    H166194   6.220   1.846  15.553 -0.5110  0.0553  0.0841
14901TIP3    H266195   6.298   1.965  15.501 -0.2368 -0.4918 -0.7614
14902TIP3   OH266196   3.608   0.973   5.478 -0.0175  0.0021 -0.4147
14902TIP3    H166197   3.584   1.048   5.533 -0.5311 -0.5084  0.0582
14902TIP3    H266198   3.535   0.962   5.418  1.3062  1.7143 -2.5006
14903TIP3   OH266199   3.000   2.694  14.932 -0.0756  0.3800  0.2320
14903TIP3    H166200   3.086   2.660  14.907  0.3666  0.8173  1.0885
14903TIP3    H266201   3.020   2.767  14.991 -1.0202  1.0782 -0.2797
14904TIP3   OH266202   5.360   0.220  11.369  0.2356  0.1430 -0.3980
14904TIP3    H166203   5.446   0.258  11.388  0.7695 -0.8142 -0.7839
14904TIP3    H266204   5.346   0.156  11.439  0.3990 -0.5572 -0.9859
14905TIP3   OH266205   0.320   2.811  16.361 -0.6689 -0.0855 -0.3789
14905TIP3    H166206   0.236   2.811  16.314 -0.4911  1.0513 -0.7269
14905TIP3    H266207   0.378   2.863  16.305  0.5100 -1.5105 -0.5373
14906TIP3   OH266208   1.588   6.201  13.126  0.1612 -0.1984  0.0944
14906TIP3    H166209   1.670   6.160  13.099  0.0316 -0.7908  0.5743
14906TIP3    H266210   1.614   6.274  13.182  0.4159  0.7692 -1.2365
14907TIP3   OH266211   6.273   0.880  15.727  0.5768 -0.1561  0.2128
14907TIP3    H166212   6.292   0.912  15.639  1.6653  1.0651  0.8520
14907TIP3    H266213   6.179   0.860  15.726  0.0225  2.1619 -0.5345
14908TIP3   OH266214   4.808   2.694  16.624  0.2896 -0.2563  0.2399
14908TIP3    H166215   4.844   2.741  16.549  1.2810  0.4149  1.0944
14908TIP3    H266216   4.878   2.697  16.689  0.0775 -2.2718  0.6090
14909TIP3   OH266217   1.885   6.553  14.853 -0.1708 -0.3271  0.2785
14909TIP3    H166218   1.881   6.471  14.804 -0.1109 -1.0468  1.4420
14909TIP3    H266219   1.804   6.555  14.904 -1.0000  1.1838 -0.9815
14910TIP3   OH266220   1.495   5.330  13.595  0.1398  0.1086  0.0500
14910TIP3    H166221   1.585   5.354  13.572  0.4379 -0.7979  0.2142
14910TIP3    H266222   1.459   5.291  13.516  0.6272 -1.5131  0.5838
14911TIP3   OH266223   1.975   5.580  13.722  0.3736  0.6903 -0.0640
14911TIP3    H166224   1.951   5.657  13.774 -1.5084  0.2578 -0.2210
14911TIP3    H266225   1.950   5.506  13.777  1.0839  0.2065 -0.3894
14912TIP3   OH266226   3.946   0.318   3.665 -0.0114 -0.2228 -0.0360
14912TIP3    H166227   3.903   0.403   3.657  1.9160  0.7292 -0.9337
14912TIP3    H266228   3.964   0.309   3.759  0.1458  0.5774  0.0186
14913TIP3   OH266229   3.442   0.301   1.920  0.2659  0.1708  0.3442
14913TIP3    H166230   3.441   0.387   1.878  2.5996  0.2730  0.3494
14913TIP3    H266231   3.445   0.239   1.846  2.2284  0.2789  0.2709
14914TIP3   OH266232   4.161   5.176  10.947 -0.2083 -0.4728  0.3163
14914TIP3    H166233   4.190   5.240  10.882  0.0404  0.2413  1.1068
14914TIP3    H266234   4.088   5.130  10.904  0.9807 -1.1699 -1.0726
14915TIP3   OH266235   6.812   5.488  14.845 -0.0600  0.0803  0.2163
14915TIP3    H166236   6.804   5.454  14.934  3.0328 -3.1087 -0.5237
14915TIP3    H266237   6.906   5.498  14.831 -0.2759 -1.2614 -3.1716
14916TIP3   OH266238   2.875   3.687   5.519  0.3546  0.2388 -0.3236
14916TIP3    H166239   2.825   3.613   5.555 -0.8409  0.2263 -1.8860
14916TIP3    H266240   2.838   3.764   5.562 -1.7760  0.3210 -2.1192
14917TIP3   OH266241   5.190   2.709  11.231 -0.0886 -0.1644 -0.0646
14917TIP3    H166242   5.138   2.644  11.184 -0.0535  0.1642 -0.5728
14917TIP3    H266243   5.278   2.670  11.236 -1.0518 -2.3133  3.8879
14918TIP3   OH266244   6.643   0.175   1.810 -0.8819  0.1672 -0.3030
14918TIP3    H166245   6.639   0.151   1.717 -2.7989 -0.3275 -0.1232
14918TIP3    H266246   6.735   0.161   1.834 -1.2714 -4.9838 -0.7725
14919TIP3   OH266247   3.133   4.044  15.429 -0.0337 -0.0543 -0.3237
14919TIP3    H166248   3.053   4.005  15.395  1.2205 -0.7179 -2.8028
14919TIP3    H266249   3.103   4.116  15.485 -2.3348 -0.3986 -1.0065
14920TIP3   OH266250   5.468   0.909  11.625 -0.2162 -0.8233  0.0407
14920TIP3    H166251   5.447   0.920  11.717  0.3563 -0.3780  0.1280
14920TIP3    H266252   5.442   0.991  11.584  0.1058 -0.7827 -0.0841
14921TIP3   OH266253   4.668   6.145  14.549  0.5257  0.5065 -0.0292
14921TIP3    H166254   4.643   6.061  14.512  1.1376  0.5888 -0.6629
14921TIP3    H266255   4.669   6.204  14.474 -0.0837  1.1302  0.4376
14922TIP3   OH266256   3.691   0.370   0.067 -0.2482 -0.0428  0.0979
14922TIP3    H166257   3.630   0.398  -0.002  0.3550 -1.1724 -0.9349
14922TIP3    H266258   3.711   0.450   0.115 -2.1846  0.4367  0.1946
14923TIP3   OH266259   0.408   0.693  11.714 -0.2319 -0.1700  0.2639
14923TIP3    H166260   0.322   0.680  11.674 -1.5821  2.3805  2.0608
14923TIP3    H266261   0.445   0.767  11.667  0.7892 -0.9107 -0.1285
14924TIP3   OH266262   5.436   6.064  16.619 -0.5823 -0.2867  0.5989
14924TIP3    H166263   5.520   6.077  16.663  0.6205  1.3207 -1.9166
14924TIP3    H266264   5.373   6.115  16.671  0.3555 -0.0305  1.5131
14925TIP3   OH266265   5.193   3.388  16.326 -0.1463  0.4096 -0.3538
14925TIP3    H166266   5.138   3.415  16.253 -0.1938 -0.1396 -0.5198
14925TIP3    H266267   5.148   3.422  16.404 -1.3209 -0.9960 -0.3876
14926TIP3   OH266268   3.067   4.248  15.603 -0.0147 -0.2397  0.0994
14926TIP3    H166269   2.973   4.261  15.610  0.0461  0.0247  0.4216
14926TIP3    H266270   3.097   4.231  15.692  0.3445  0.4012  0.1101
14927TIP3   OH266271   1.017   0.553  13.118  0.1517 -0.2204 -0.0667
14927TIP3    H166272   0.990   0.517  13.202  0.7681 -1.0678 -0.2216
14927TIP3    H266273   1.053   0.639  13.140 -1.2504  0.2996  0.3140
14928TIP3   OH266274   2.535   1.545  16.435 -0.1146 -0.5053 -0.6535
14928TIP3    H166275   2.546   1.562  16.528 -1.9697  2.1581 -0.8257
14928TIP3    H266276   2.617   1.502  16.409  1.9347  1.7526  1.5214
14929TIP3   OH266277   1.851   6.043   2.317 -0.0676 -0.6314 -0.7713
14929TIP3    H166278   1.845   5.965   2.372  1.3852  0.2127  0.6687
14929TIP3    H266279   1.814   6.113   2.371  1.1387  0.1667 -0.9274
14930TIP3   OH266280   4.836   3.662   1.082  0.4123  0.1175  0.2173
14930TIP3    H166281   4.854   3.734   1.022 -0.3251  0.6000  0.5655
14930TIP3    H266282   4.772   3.608   1.036  0.5408 -0.0126  0.1903
14931TIP3   OH266283   1.539   0.059   4.632 -0.2543 -0.2353  0.4553
14931TIP3    H166284   1.493   0.142   4.624  0.9464  0.2383 -3.3384
14931TIP3    H266285   1.631   0.083   4.643 -0.1942 -1.1715  2.5564
14932TIP3   OH266286   3.523   2.784   5.398  0.2190 -0.3367 -0.1604
14932TIP3    H166287   3.443   2.733   5.416  0.5760 -0.7408  0.3364
14932TIP3    H266288   3.579   2.723   5.350  0.6624 -0.4352  0.4652
14933TIP3   OH266289   6.569   0.540   1.723 -0.4095 -0.1260  0.5086
14933TIP3    H166290   6.546   0.448   1.713  0.3365 -0.2367 -0.2826
14933TIP3    H266291   6.530   0.566   1.807  0.0520 -1.3618  1.1162
14934TIP3   OH266292   5.502   4.515  16.760  0.2844 -0.0865 -0.0507
14934TIP3    H166293   5.591   4.492  16.734  0.1668  0.3070 -0.8367
14934TIP3    H266294   5.509   4.540  16.852  0.7487 -1.3438  0.2796
14935TIP3   OH266295   2.937   6.362   3.346 -0.1984 -0.8376 -0.2164
14935TIP3    H166296   3.000   6.388   3.412  1.3140 -1.1854 -1.4628
14935TIP3    H266297   2.978   6.288   3.301 -1.7559 -1.4627 -0.6837
14936TIP3   OH266298   5.864   5.546  13.449  0.6335 -0.2177 -0.1046
14936TIP3    H166299   5.843   5.593  13.368 -0.1762  2.0533  1.3097
14936TIP3    H266300   5.956   5.520  13.439  0.4532 -0.2563 -1.8571
14937TIP3   OH266301   4.486   0.564   6.306  0.2450  0.0412 -0.4742
14937TIP3    H166302   4.493   0.659   6.296  1.0680 -0.0130 -0.5250
14937TIP3    H266303   4.569   0.539   6.347 -0.0426 -0.6351 -0.2955
14938TIP3   OH266304   0.335   4.292  16.260 -0.0754  0.1428  0.0596
14938TIP3    H166305   0.429   4.298  16.245  0.0416  0.7950  0.9476
14938TIP3    H266306   0.321   4.202  16.292 -0.3615 -1.3565 -3.8187
14939TIP3   OH266307   2.440   1.705  14.157  0.0981 -0.5688 -0.5537
14939TIP3    H166308   2.488   1.635  14.111  0.3463 -0.1095 -0.9998
14939TIP3    H266309   2.487   1.716  14.239  0.0698 -0.9112 -0.4880
14940TIP3   OH266310   0.231   3.931   0.085  0.2288 -0.1320 -0.4771
14940TIP3    H166311   0.226   4.025   0.103 -0.5791 -0.4499  1.1214
14940TIP3    H266312   0.231   3.925  -0.010  0.5734  1.4958 -0.6137
14941TIP3   OH266313   6.678   3.050   3.027 -0.1467  0.4943 -0.1237
14941TIP3    H166314   6.706   3.086   3.111 -0.9065  0.2700  0.2375
14941TIP3    H266315   6.583   3.046   3.033 -0.0990 -2.0767  0.0750
14942TIP3   OH266316   0.424   2.937  15.230  0.2561 -0.2863 -0.4258
14942TIP3    H166317   0.423   2.856  15.281  1.4172  0.3867  0.7216
14942TIP3    H266318   0.447   2.909  15.141  3.1332 -1.0482  0.4334
14943TIP3   OH266319   0.781   2.867   2.404 -0.4778  0.5733  0.2198
14943TIP3    H166320   0.733   2.928   2.348 -0.4629  1.5763  1.2808
14943TIP3    H266321   0.716   2.838   2.468 -0.0585  0.7517  0.7250
14944TIP3   OH266322   5.165   3.954  14.213 -0.4103  0.0874  0.5138
14944TIP3    H166323   5.227   3.989  14.149  1.9804 -2.3698  1.2741
14944TIP3    H266324   5.162   4.020  14.282  0.6446  0.7000  0.0027
14945TIP3   OH266325   1.152   2.472   2.797  0.4101 -0.0882  0.2878
14945TIP3    H166326   1.146   2.465   2.702  0.1488  1.1277  0.2006
14945TIP3    H266327   1.061   2.473   2.827  0.4968 -1.3602  0.6378
14946TIP3   OH266328   5.739   6.308  13.176 -0.2131 -0.3301 -0.0519
14946TIP3    H166329   5.675   6.372  13.207 -0.8078 -0.8152 -0.2532
14946TIP3    H266330   5.707   6.282  13.089  0.8547  0.2286 -0.6372
14947TIP3   OH266331   2.697   4.811  15.495 -0.1368  0.0966 -0.1819
14947TIP3    H166332   2.633   4.744  15.468 -0.4767  1.6267 -3.6971
14947TIP3    H266333   2.646   4.891  15.505  1.0303  1.2566 -2.6460
14948TIP3   OH266334   3.204   2.047  14.392 -0.4910 -0.4349  0.1901
14948TIP3    H166335   3.129   2.040  14.332  0.9557 -0.7065 -1.6587
14948TIP3    H266336   3.224   1.957  14.416 -0.2369 -0.4218  0.0264
14949TIP3   OH266337   4.848   3.194  13.416 -0.5171  0.1978  0.4328
14949TIP3    H166338   4.930   3.242  13.428  0.4310 -1.5917  1.6038
14949TIP3    H266339   4.876   3.105  13.394 -2.1139 -0.6837  1.7808
14950TIP3   OH266340   4.597   6.506  16.505 -0.2287 -0.0467  0.0883
14950TIP3    H166341   4.637   6.545  16.583  0.7810  1.7225 -1.2199
14950TIP3    H266342   4.555   6.426  16.536 -0.5930  1.0293  2.5783
14951TIP3   OH266343   0.659   0.865   4.635  0.2187 -0.5742 -0.8420
14951TIP3    H166344   0.735   0.815   4.663 -0.9138 -1.3014  1.1014
14951TIP3    H266345   0.650   0.934   4.700  0.6913  1.1354 -2.4946
14952TIP3   OH266346   0.450   2.356  13.544  0.0377  0.2120 -0.2273
14952TIP3    H166347   0.425   2.384  13.456  1.5916  0.1582 -0.7168
14952TIP3    H266348   0.447   2.260  13.540  0.1552  0.2086 -0.2402
14953TIP3   OH266349   6.540   5.578  14.864 -0.1574 -0.4225 -0.2919
14953TIP3    H166350   6.635   5.569  14.870  0.1351  0.4240 -2.5834
14953TIP3    H266351   6.516   5.633  14.939  1.3344  0.2712 -0.2920
14954TIP3   OH266352   4.423   3.355  16.750  0.2733 -0.0544  0.6327
14954TIP3    H166353   4.453   3.271  16.784  4.5501 -0.3877 -3.1029
14954TIP3    H266354   4.345   3.334  16.699  1.6476 -1.9922 -0.7979
14955TIP3   OH266355   5.132   0.928  11.663 -0.0885 -0.1864 -0.9666
14955TIP3    H166356   5.116   0.891  11.750 -1.9701  0.5566 -0.9575
14955TIP3    H266357   5.046   0.930  11.621  0.0414  3.1259 -1.3686
14956TIP3   OH266358   0.802   0.475  12.470 -0.1064 -0.0852 -0.4081
14956TIP3    H166359   0.870   0.458  12.405 -0.5993  0.0365 -0.9632
14956TIP3    H266360   0.805   0.399  12.528 -0.4801 -0.7974 -1.2900
14957TIP3   OH266361   3.603   3.893   0.427  0.3710 -0.7983 -0.0462
14957TIP3    H166362   3.519   3.923   0.461  1.3867  0.1644  1.8019
14957TIP3    H266363   3.610   3.932   0.340 -2.2039 -3.0886 -1.4540
14958TIP3   OH266364   2.969   6.648  12.574  0.4756  0.1331 -0.4782
14958TIP3    H166365   3.003   6.560  12.557  0.5942  0.3057 -1.1622
14958TIP3    H266366   3.002   6.669  12.661 -0.5781 -0.9822  0.2273
14959TIP3   OH266367   6.247   6.050   3.796 -0.1488 -0.0778  0.5218
14959TIP3    H166368   6.330   6.057   3.843  0.5464 -0.4426 -0.5994
14959TIP3    H266369   6.230   6.139   3.764  0.0616 -0.0954  0.3553
14960TIP3   OH266370   3.627   5.502  13.313 -0.2325  0.9213  0.5246
14960TIP3    H166371   3.658   5.451  13.238 -2.4461  0.0653  0.1094
14960TIP3    H266372   3.665   5.589  13.302 -1.5308  1.2167 -2.3516
14961TIP3   OH266373   4.074   2.222   3.179  0.4102 -0.7551  0.5620
14961TIP3    H166374   4.164   2.248   3.164  0.0971  0.8088  1.1059
14961TIP3    H266375   4.043   2.281   3.248 -1.3600 -0.4655 -0.3992
14962TIP3   OH266376   1.429   3.463  13.715  0.1431  0.0651 -0.2366
14962TIP3    H166377   1.403   3.462  13.623  0.0500 -1.9957 -0.2177
14962TIP3    H266378   1.365   3.521  13.757 -2.7108 -2.4556 -0.7315
14963TIP3   OH266379   3.710   2.355  10.658  0.2698 -0.3343  0.1655
14963TIP3    H166380   3.642   2.359  10.725 -0.4004 -0.2351 -0.5038
14963TIP3    H266381   3.700   2.437  10.609  0.7244 -0.4196 -0.0727
14964TIP3   OH266382   3.701   1.703  13.974  0.1501  0.0873 -0.0454
14964TIP3    H166383   3.612   1.731  13.954  0.9817  3.2554  0.1728
14964TIP3    H266384   3.691   1.614  14.008 -3.1170  0.8309  1.3404
14965TIP3   OH266385   3.353   2.525   1.045 -0.6277 -0.2135 -0.0063
14965TIP3    H166386   3.326   2.437   1.072  0.7387 -0.1396  1.7691
14965TIP3    H266387   3.448   2.520   1.039 -0.5542  1.0686 -0.1965
14966TIP3   OH266388   1.847   5.787  13.561 -0.1143 -0.3531 -0.2055
14966TIP3    H166389   1.829   5.693  13.557 -1.5793 -0.0822 -0.4200
14966TIP3    H266390   1.897   5.798  13.641 -0.8111 -1.1927  0.3638
14967TIP3   OH266391   3.756   3.487  15.928 -0.4699 -0.0263 -0.5620
14967TIP3    H166392   3.840   3.463  15.965 -0.6270  0.1924 -0.0609
14967TIP3    H266393   3.777   3.524  15.842 -0.1000 -0.4455 -0.6515
14968TIP3   OH266394   4.449   2.112  13.149 -0.0007 -0.6940  0.2467
14968TIP3    H166395   4.372   2.055  13.159 -0.1464 -0.4416  0.5744
14968TIP3    H266396   4.422   2.179  13.087 -0.2175 -0.3120  0.7478
14969TIP3   OH266397   2.929   2.505  11.685  0.2430 -0.4576 -0.3978
14969TIP3    H166398   2.922   2.508  11.589  1.3622  0.3729 -0.4711
14969TIP3    H266399   3.013   2.546  11.704 -1.9810  4.0082  1.2430
14970TIP3   OH266400   4.974   2.229  12.142  0.2665 -0.0171 -0.3050
14970TIP3    H166401   5.032   2.239  12.067  0.9498  1.3315  0.3633
14970TIP3    H266402   5.027   2.258  12.217 -0.4920 -1.0361  0.6582
14971TIP3   OH266403   5.093   4.935   0.759  0.0336 -0.3297 -0.3841
14971TIP3    H166404   5.089   4.854   0.708  1.7569 -0.8638  0.2838
14971TIP3    H266405   5.164   4.922   0.821 -1.5989  0.5283  1.8316
14972TIP3   OH266406   0.654   6.228   3.441 -0.5348 -0.2638 -0.3367
14972TIP3    H166407   0.583   6.281   3.477 -0.3724  0.0112 -0.4142
14972TIP3    H266408   0.732   6.256   3.490 -0.3339  0.0291 -0.8092
14973TIP3   OH266409   5.030   6.827   6.981  0.2064  0.3237  0.3408
14973TIP3    H166410   5.014   6.900   6.922  1.1748  0.1491 -0.1663
14973TIP3    H266411   5.126   6.823   6.988  0.1510 -0.6713  0.6433
14974TIP3   OH266412   0.764   4.398  12.533  0.3933  0.1896  0.0981
14974TIP3    H166413   0.790   4.465  12.469  0.6516  0.1316  0.1451
14974TIP3    H266414   0.671   4.417  12.550  0.1243 -0.2240 -0.8240
14975TIP3   OH266415   6.524   3.986   5.333  0.0709  0.3378 -0.1727
14975TIP3    H166416   6.489   4.065   5.375 -1.6102  0.2311 -1.2779
14975TIP3    H266417   6.585   4.020   5.267  1.5626  0.5614  1.2731
14976TIP3   OH266418   3.469   1.401  15.100  0.3774  0.1333  0.4809
14976TIP3    H166419   3.549   1.358  15.132  0.9103  1.1476  0.5589
14976TIP3    H266420   3.489   1.426  15.010 -0.3812 -0.8735  0.0130
14977TIP3   OH266421   6.073   1.160  11.317  0.0280  0.2805 -0.3330
14977TIP3    H166422   6.073   1.243  11.365 -0.2098 -1.4255  2.8821
14977TIP3    H266423   5.983   1.128  11.324  0.8503 -1.8380  1.6503
14978TIP3   OH266424   0.186   5.243   3.152  0.2095 -0.4944 -0.2026
14978TIP3    H166425   0.241   5.229   3.075 -1.9334 -0.4918 -1.8341
14978TIP3    H266426   0.242   5.288   3.214  1.8535  0.0510 -1.9923
14979TIP3   OH266427   5.005   1.511  16.295 -0.2230  0.4437 -0.0198
14979TIP3    H166428   4.923   1.496  16.248 -0.7852  2.8056  0.0714
14979TIP3    H266429   5.068   1.454  16.252 -1.6641 -0.6399 -0.7888
14980TIP3   OH266430   3.592   3.067  13.886  0.4259 -0.2584  0.2379
14980TIP3    H166431   3.504   3.045  13.917  0.3241  0.3502  0.4050
14980TIP3    H266432   3.588   3.059  13.791  0.1579 -0.1378  0.2396
14981TIP3   OH266433   4.531   3.192  11.215  0.1782 -0.6762  0.1882
14981TIP3    H166434   4.570   3.277  11.194 -0.7472  0.0279  1.2246
14981TIP3    H266435   4.583   3.159  11.288  0.3136 -0.8606  0.0140
14982TIP3   OH266436   6.546   2.938   5.959 -0.4566  0.5488 -0.5756
14982TIP3    H166437   6.461   2.894   5.956  0.0461 -0.4575 -0.4147
14982TIP3    H266438   6.570   2.938   6.052  0.2326 -0.1840 -0.7462
14983TIP3   OH266439   2.774   0.680  14.504 -0.1967  0.1133  0.7850
14983TIP3    H166440   2.787   0.750  14.568  0.6722 -0.2625  1.0343
14983TIP3    H266441   2.729   0.611  14.552  0.7982 -0.3253  1.1205
14984TIP3   OH266442   6.355   3.472   2.758 -0.1802  0.2806  0.0123
14984TIP3    H166443   6.413   3.420   2.813  0.9329  2.5007  1.0832
14984TIP3    H266444   6.281   3.494   2.815  0.0419  0.9765  0.0529
14985TIP3   OH266445   2.260   0.289   6.772  0.4304  0.4346 -0.2555
14985TIP3    H166446   2.340   0.289   6.824 -0.6521 -0.2655  1.5274
14985TIP3    H266447   2.254   0.377   6.736  1.1757  0.9888  0.9359
14986TIP3   OH266448   2.014   2.160  12.282  0.1536  0.0124 -0.1571
14986TIP3    H166449   2.102   2.197  12.286 -0.1072  0.7832 -1.0393
14986TIP3    H266450   1.956   2.235  12.289 -0.3984 -0.2835 -1.3074
14987TIP3   OH266451   5.670   5.787  15.536 -0.2130  0.5185 -0.0400
14987TIP3    H166452   5.723   5.867  15.545 -1.3113  1.5050 -1.8460
14987TIP3    H266453   5.659   5.756  15.626  1.0715  1.8328  0.6157
14988TIP3   OH266454   5.746   6.701  15.289 -0.5102  0.3951 -0.1276
14988TIP3    H166455   5.714   6.649  15.216  0.7402 -0.0680 -0.3662
14988TIP3    H266456   5.679   6.768  15.303 -2.3101 -1.4579  0.3954
14989TIP3   OH266457   4.323   0.888   3.822 -0.9429  0.1493 -0.6331
14989TIP3    H166458   4.369   0.953   3.875 -2.1081 -0.0589  0.6976
14989TIP3    H266459   4.345   0.911   3.732  1.5327  0.1947 -0.0869
14990TIP3   OH266460   5.665   1.540   0.007  0.4298  0.0665  0.2507
14990TIP3    H166461   5.645   1.577   0.093 -0.3912  1.8706 -0.6638
14990TIP3    H266462   5.680   1.447   0.024 -0.7415  0.1748  2.1866
14991TIP3   OH266463   2.210   0.840  15.569  0.7783  0.3367 -0.0043
14991TIP3    H166464   2.217   0.745  15.573 -1.0818  0.2144  1.1350
14991TIP3    H266465   2.133   0.857  15.514  2.3370  1.2857 -2.0666
14992TIP3   OH266466   6.734   2.803   4.172  0.0947  0.8036  0.0989
14992TIP3    H166467   6.640   2.805   4.187  0.2222 -0.8339  1.3928
14992TIP3    H266468   6.748   2.727   4.114  0.8198 -0.5968  2.0101
14993TIP3   OH266469   6.165   1.261  14.900  0.1969  0.3566 -0.4268
14993TIP3    H166470   6.074   1.281  14.877 -1.0786 -0.4485  3.2999
14993TIP3    H266471   6.207   1.346  14.910 -1.4348  0.9624  2.0508
14994TIP3   OH266472   5.502   6.425  14.746  0.1615 -0.1795  0.0950
14994TIP3    H166473   5.454   6.377  14.678 -0.7690  0.0444  0.5883
14994TIP3    H266474   5.478   6.381  14.827  1.0203 -0.2375  0.3282
14995TIP3   OH266475   1.165   6.212   1.375 -0.6524 -0.3009  0.0870
14995TIP3    H166476   1.075   6.241   1.358 -0.4562  0.5210  0.4204
14995TIP3    H266477   1.190   6.257   1.455  0.5164  0.5260 -0.6946
14996TIP3   OH266478   0.209   4.807  14.958  0.2746 -0.2011 -0.3794
14996TIP3    H166479   0.220   4.712  14.963  1.5615 -0.2199 -2.3682
14996TIP3    H266480   0.250   4.831  14.875 -0.7229  2.0062 -0.2949
14997TIP3   OH266481   5.670   1.512   2.728 -0.1581 -0.3705  0.0846
14997TIP3    H166482   5.629   1.599   2.729  1.3787  0.4002  0.8254
14997TIP3    H266483   5.744   1.521   2.669  1.0482 -0.6295  1.4949
14998TIP3   OH266484   2.181   4.868  11.149  0.1461 -0.7274 -0.5571
14998TIP3    H166485   2.193   4.774  11.134  1.2567 -0.9173  1.2756
14998TIP3    H266486   2.264   4.897  11.185 -1.1905  0.2709  1.9813
14999TIP3   OH266487   3.700   5.249  11.269  0.2598 -0.3153 -0.0191
14999TIP3    H166488   3.768   5.317  11.268 -1.4929  1.5359 -1.0879
14999TIP3    H266489   3.748   5.167  11.258  2.2741  0.9579 -1.4071
15000TIP3   OH266490   2.351   0.587  13.240 -0.1338  0.3205 -0.1382
15000TIP3    H166491   2.347   0.545  13.154 -0.3763 -0.7281  0.3606
15000TIP3    H266492   2.432   0.555  13.279 -0.1396  0.6058  0.1107
15001TIP3   OH266493   4.255   1.848  11.105  0.1410 -0.8734 -0.8782
15001TIP3    H166494   4.343   1.821  11.131  0.5793  0.9328 -0.3595
15001TIP3    H266495   4.203   1.767  11.108  1.0135 -1.4525  2.0794
15002TIP3   OH266496   6.404   0.819  12.456  0.0991  0.1632 -0.3922
15002TIP3    H166497   6.454   0.780  12.528 -1.5749  1.0987  1.3666
15002TIP3    H266498   6.345   0.750  12.427 -0.2159  0.2100  0.1259
15003TIP3   OH266499   3.582   6.350  13.399 -0.0012 -0.4407  0.3797
15003TIP3    H166500   3.623   6.434  13.419 -0.5900  0.9180 -3.2385
15003TIP3    H266501   3.488   6.370  13.395 -0.3294 -1.7251  1.1952
15004TIP3   OH266502   0.594   3.517   1.629 -0.0700  0.7427 -0.8134
15004TIP3    H166503   0.599   3.490   1.538  1.6339  0.8709 -0.8000
15004TIP3    H266504   0.654   3.591   1.636 -0.6344  1.1257  0.2838
15005TIP3   OH266505   0.982   4.435   1.969  0.3579 -0.1414 -0.3265
15005TIP3    H166506   1.027   4.514   1.937  0.2322  0.5277  1.0374
15005TIP3    H266507   1.033   4.409   2.046 -0.9799  0.0643  0.6785
15006TIP3   OH266508   5.658   3.322  16.847 -0.2506  0.9824 -0.7327
15006TIP3    H166509   5.747   3.321  16.882  0.2588  0.6793 -1.9822
15006TIP3    H266510   5.618   3.242  16.881 -0.4114  1.6365  0.6813
15007TIP3   OH266511   5.298   3.120   0.957 -0.4775  0.2053 -0.7096
15007TIP3    H166512   5.347   3.162   0.886  0.3574  0.5757  0.0666
15007TIP3    H266513   5.353   3.046   0.984 -0.6398  0.2464 -0.2558
15008TIP3   OH266514   1.480   3.512   3.143  0.1280  0.1788 -0.2977
15008TIP3    H166515   1.456   3.600   3.114 -1.2594 -0.1652 -0.2256
15008TIP3    H266516   1.515   3.470   3.064  2.3949  1.2762  0.0121
15009TIP3   OH266517   3.746   2.616  11.168 -0.1925  0.3922 -0.0294
15009TIP3    H166518   3.810   2.545  11.162  0.6180  1.2225 -3.6447
15009TIP3    H266519   3.784   2.678  11.231  0.8639 -0.6848  0.4222
15010TIP3   OH266520   2.259   2.703   0.669 -0.6424 -0.3778 -0.3445
15010TIP3    H166521   2.327   2.709   0.602 -2.2211 -1.4696 -2.1330
15010TIP3    H266522   2.242   2.609   0.677 -0.5660 -0.2620  1.5539
15011TIP3   OH266523   6.460   4.512   5.053  0.4397  0.1342  0.0879
15011TIP3    H166524   6.388   4.562   5.091  0.7120 -0.8820  2.1238
15011TIP3    H266525   6.535   4.535   5.108  1.6195  0.8751 -1.7453
15012TIP3   OH266526   4.403   2.278   0.277 -0.8714  0.6309  0.1219
15012TIP3    H166527   4.407   2.341   0.205  1.0742  1.3912  0.8567
15012TIP3    H266528   4.420   2.194   0.235  0.0367  1.0405 -0.3595
15013TIP3   OH266529   4.680   1.873   4.360  0.4152 -0.1603 -0.5553
15013TIP3    H166530   4.734   1.861   4.438 -1.8626  1.1399  1.3149
15013TIP3    H266531   4.703   1.960   4.328  0.3277 -0.1202 -0.5085
15014TIP3   OH266532   4.174   0.555  15.144  0.0467 -0.8212 -0.0839
15014TIP3    H166533   4.224   0.585  15.220  0.0514 -2.1383  0.4586
15014TIP3    H266534   4.134   0.634  15.108  0.7218 -0.0694  0.8002
15015TIP3   OH266535   6.764   4.031  12.630 -0.6010  0.2069  0.2202
15015TIP3    H166536   6.839   4.004  12.681 -0.5792  0.0681  0.1158
15015TIP3    H266537   6.798   4.095  12.568 -0.6098  0.3048  0.3173
15016TIP3   OH266538   1.715   1.981  15.048  0.2246 -0.0370  0.1749
15016TIP3    H166539   1.674   1.991  15.134 -0.5286 -0.6092 -0.1122
15016TIP3    H266540   1.655   1.925  14.999  0.6011  0.3608 -0.7596
15017TIP3   OH266541   1.095   0.762  13.570  0.4415  0.2733  0.1357
15017TIP3    H166542   1.123   0.840  13.522 -0.1468  0.6518  0.3975
15017TIP3    H266543   1.164   0.698  13.553  0.6247  0.6449 -0.5888
15018TIP3   OH266544   4.350   6.368   1.455  0.5591 -0.5374 -0.0876
15018TIP3    H166545   4.431   6.402   1.418  1.5360 -1.1845  1.3541
15018TIP3    H266546   4.375   6.337   1.542 -1.0991 -1.3778  0.1248
15019TIP3   OH266547   4.542   0.405  13.274 -0.3506 -0.4813  0.0930
15019TIP3    H166548   4.495   0.333  13.232 -1.8019  2.0195 -3.0018
15019TIP3    H266549   4.634   0.378  13.273 -0.7226 -1.9284 -1.8409
15020TIP3   OH266550   1.034   5.090  14.522  0.5123  0.2393  0.9730
15020TIP3    H166551   1.057   5.144  14.597  2.6136  0.2894  0.3659
15020TIP3    H266552   1.096   5.017  14.525  0.5593  0.1759 -0.5944
15021TIP3   OH266553   2.630   4.815   1.756  0.4974  0.4555 -0.4732
15021TIP3    H166554   2.684   4.826   1.834  1.4714 -1.5526 -0.8180
15021TIP3    H266555   2.691   4.817   1.683  0.2941 -2.4765 -0.8308
15022TIP3   OH266556   2.151   1.028  13.153  0.2497  0.3199  0.1130
15022TIP3    H166557   2.162   0.992  13.065  2.5586  0.8025  0.1212
15022TIP3    H266558   2.216   1.098  13.158 -0.6529  1.0882  1.8067
15023TIP3   OH266559   2.347   3.783   1.226 -0.1812 -0.5476  0.0252
15023TIP3    H166560   2.286   3.836   1.277 -0.8624  0.8347 -2.0958
15023TIP3    H266561   2.433   3.818   1.249 -0.3845 -0.5548  0.8603
15024TIP3   OH266562   0.894   6.143  12.433 -0.0988  0.7038 -0.2331
15024TIP3    H166563   0.805   6.172  12.453 -1.2310 -0.7954 -2.6856
15024TIP3    H266564   0.919   6.192  12.355  0.7665  0.2478 -0.2616
15025TIP3   OH266565   2.897   6.521   4.037  0.0112  0.3228 -0.0784
15025TIP3    H166566   2.811   6.480   4.042 -1.3110  2.8787 -0.1839
15025TIP3    H266567   2.913   6.555   4.125  0.4471  0.7353 -0.3149
15026TIP3   OH266568   0.821   4.243  12.247  0.5360  0.0374  0.1506
15026TIP3    H166569   0.889   4.179  12.266  1.0102 -0.2052 -2.0598
15026TIP3    H266570   0.744   4.212  12.294  0.9026 -1.8700 -0.4228
15027TIP3   OH266571   3.785   2.356   5.790 -0.0032 -0.3072 -0.1385
15027TIP3    H166572   3.802   2.448   5.768 -1.1405 -0.2714 -0.9968
15027TIP3    H266573   3.748   2.359   5.878  0.7720 -0.0324  0.1840
15028TIP3   OH266574   4.658   6.690   5.228 -0.4601  0.3206 -0.4747
15028TIP3    H166575   4.600   6.625   5.269 -1.5011  0.2364 -1.9626
15028TIP3    H266576   4.624   6.774   5.257  0.6381  0.2553  1.1310
15029TIP3   OH266577   0.091   0.094  13.937  0.4140  0.0158  0.7790
15029TIP3    H166578   0.147   0.034  13.986  0.6874 -1.7642 -1.5183
15029TIP3    H266579   0.004   0.054  13.939  0.7355 -0.9222 -1.3285
15030TIP3   OH266580   5.369   5.437  16.898 -0.2957  0.3908  0.7627
15030TIP3    H166581   5.335   5.487  16.824 -0.2218 -1.0257 -0.2748
15030TIP3    H266582   5.293   5.420  16.953 -0.7889 -0.4448 -0.1513
15031TIP3   OH266583   4.208   2.548   5.464 -0.3242 -0.0048  0.0286
15031TIP3    H166584   4.291   2.597   5.463  0.5386 -1.4081 -0.6126
15031TIP3    H266585   4.234   2.458   5.443 -2.3707  0.0424 -3.2292
15032TIP3   OH266586   4.429   0.932   2.317 -0.1603  0.0926 -0.0656
15032TIP3    H166587   4.427   0.887   2.402  0.2312  0.2760  0.0472
15032TIP3    H266588   4.492   0.882   2.265 -0.8680 -0.3950 -0.4740
15033TIP3   OH266589   4.860   3.911  11.599  0.4518  0.6685 -0.6997
15033TIP3    H166590   4.858   3.986  11.658  0.4937  0.3168 -0.2496
15033TIP3    H266591   4.919   3.848  11.641 -1.1151 -0.4389 -0.0530
15034TIP3   OH266592   5.571   3.870   2.056 -0.2358  0.6487  0.1128
15034TIP3    H166593   5.632   3.865   2.130  0.0333  0.7653 -0.0996
15034TIP3    H266594   5.580   3.786   2.011  2.6053  1.9891 -2.1332
15035TIP3   OH266595   3.719   6.650  13.082  0.0916  0.1321 -0.0250
15035TIP3    H166596   3.773   6.627  13.007  0.8047  1.2619  0.1109
15035TIP3    H266597   3.631   6.620  13.059  0.4564 -0.2489 -0.9595
15036TIP3   OH266598   2.153   1.391   2.007 -0.0783  0.2223  0.0235
15036TIP3    H166599   2.197   1.389   1.922  0.4060 -1.9981  0.2485
15036TIP3    H266600   2.066   1.357   1.990 -0.2855  0.6316  0.2655
15037TIP3   OH266601   0.295   0.645   1.225 -0.2013  0.6024 -0.3589
15037TIP3    H166602   0.346   0.717   1.261 -1.0211  0.2545  1.6088
15037TIP3    H266603   0.208   0.655   1.263 -0.2843 -1.5129  0.1179
15038TIP3   OH266604   6.550   6.046   6.755 -0.0977  0.5166 -0.1603
15038TIP3    H166605   6.484   6.068   6.689 -0.8147 -0.3675  0.2481
15038TIP3    H266606   6.580   6.131   6.788 -0.2099  0.9538 -1.1380
15039TIP3   OH266607   0.692   3.954   5.805  0.4565 -0.3632 -0.2167
15039TIP3    H166608   0.597   3.953   5.794  0.2881  3.0841 -0.1278
15039TIP3    H266609   0.705   3.938   5.898  0.0932 -2.0146 -0.4178
15040TIP3   OH266610   6.676   2.099  13.024  0.1233  0.2343 -0.1404
15040TIP3    H166611   6.748   2.162  13.025 -0.4192  0.8685  0.6466
15040TIP3    H266612   6.649   2.095  12.932 -0.1225  1.5066 -0.1439
15041TIP3   OH266613   5.005   6.380   3.036 -0.3635  0.4165  0.2135
15041TIP3    H166614   5.042   6.434   2.966  1.3991 -1.3923 -0.3732
15041TIP3    H266615   4.982   6.298   2.993 -2.6836  0.5180  1.1272
15042TIP3   OH266616   5.255   5.614  12.680  0.0519 -0.0416  0.1199
15042TIP3    H166617   5.182   5.552  12.674  0.5268 -0.4795 -1.9498
15042TIP3    H266618   5.304   5.587  12.758 -1.0968 -0.7174  0.6296
15043TIP3   OH266619   4.458   1.342  13.712  0.1630 -0.0327  0.0785
15043TIP3    H166620   4.548   1.365  13.735  0.2949  0.4337 -0.8876
15043TIP3    H266621   4.460   1.247  13.702  0.9998  0.1525 -1.8045
15044TIP3   OH266622   1.010   1.673   2.075 -0.0739  0.2261  0.2943
15044TIP3    H166623   1.064   1.653   2.151 -1.6264 -0.9960  1.1484
15044TIP3    H266624   1.066   1.654   2.000  0.1107 -3.0202  1.1075
15045TIP3   OH266625   4.542   5.994   5.678  0.4624 -0.3841  0.0318
15045TIP3    H166626   4.636   5.997   5.659  0.5703 -0.0872  0.5968
15045TIP3    H266627   4.523   5.901   5.689  0.8359 -0.3985  0.6033
15046TIP3   OH266628   4.340   2.078  13.559  0.0727  0.3405  0.4237
15046TIP3    H166629   4.319   1.989  13.590  0.2122  0.1491 -0.0196
15046TIP3    H266630   4.269   2.101  13.500  0.1048  0.4710  0.4356
15047TIP3   OH266631   4.350   5.134  14.198 -0.0027  0.2039  0.5586
15047TIP3    H166632   4.368   5.094  14.283  1.2795  0.5136  0.4460
15047TIP3    H266633   4.422   5.107  14.142  0.4450  1.9230  0.2279
15048TIP3   OH266634   3.973   0.976   3.517  0.8697 -0.5267 -0.2552
15048TIP3    H166635   4.031   0.993   3.591  1.7080 -0.5607 -0.8803
15048TIP3    H266636   3.885   0.998   3.548  1.4056  1.0500  0.2193
15049TIP3   OH266637   4.598   6.341  12.643  0.6389  0.0489  0.7419
15049TIP3    H166638   4.642   6.256  12.650  0.7823  0.2809  3.6312
15049TIP3    H266639   4.668   6.405  12.650  0.4625  0.4775 -0.8996
15050TIP3   OH266640   0.662   1.470   4.638  0.3242  0.2311  0.1361
15050TIP3    H166641   0.594   1.525   4.599 -0.3782  1.9080  3.3762
15050TIP3    H266642   0.743   1.500   4.597 -0.6120 -0.8820 -2.8024
15051TIP3   OH266643   0.928   1.589   5.279 -0.5592  0.0462 -0.6620
15051TIP3    H166644   1.001   1.538   5.243 -0.5313 -1.4991  1.3540
15051TIP3    H266645   0.930   1.672   5.231  2.5256  0.0535 -0.7356
15052TIP3   OH266646   4.449   1.081   4.324  0.5377 -0.1616 -0.2046
15052TIP3    H166647   4.454   1.132   4.405  0.3726  1.4098 -1.1607
15052TIP3    H266648   4.358   1.090   4.296  0.2046 -1.9116  0.1585
15053TIP3   OH266649   2.138   4.173  12.349 -0.0824  0.1400 -0.0252
15053TIP3    H166650   2.211   4.160  12.288  0.1271  1.6346 -0.1169
15053TIP3    H266651   2.140   4.095  12.405  1.1210 -0.1892 -0.4915
15054TIP3   OH266652   5.717   2.818  16.885 -0.2451 -1.0525  0.3535
15054TIP3    H166653   5.675   2.792  16.803  0.7784 -1.8043  0.0645
15054TIP3    H266654   5.747   2.737  16.924 -0.7263 -0.7071  1.5030
15055TIP3   OH266655   0.936   6.383  13.587 -0.0203  0.3471 -0.3786
15055TIP3    H166656   1.021   6.426  13.578  0.1639  0.4794  1.5639
15055TIP3    H266657   0.874   6.454  13.600 -0.2498  0.1961 -0.6380
15056TIP3   OH266658   6.829   1.819  14.873 -0.4025 -0.5919  0.7266
15056TIP3    H166659   6.908   1.766  14.887 -1.0351 -1.7809 -0.0323
15056TIP3    H266660   6.856   1.885  14.809  0.5164  0.3411  2.0185
15057TIP3   OH266661   2.230   1.674  10.897 -0.0440 -0.0639 -0.1147
15057TIP3    H166662   2.157   1.649  10.953 -0.2327  1.4276  0.3613
15057TIP3    H266663   2.305   1.625  10.931 -0.1201  0.8965  1.5675
15058TIP3   OH266664   1.753   0.002  15.513  0.2876  0.0970 -0.1568
15058TIP3    H166665   1.702   0.083  15.516  0.5197  0.3150 -1.6344
15058TIP3    H266666   1.840   0.028  15.483  0.0758 -0.8094 -1.6694
15059TIP3   OH266667   1.828   4.258  12.506 -0.1325  0.8708 -0.7293
15059TIP3    H166668   1.807   4.261  12.600  0.1782 -0.0359 -0.6144
15059TIP3    H266669   1.923   4.272  12.503  0.0584 -0.2965 -0.7888
15060TIP3   OH266670   5.889   2.562  13.187 -0.5381 -0.4111  0.1740
15060TIP3    H166671   5.905   2.507  13.111  0.5971 -0.9035  0.7438
15060TIP3    H266672   5.908   2.651  13.156 -0.7723 -0.5232 -0.3019
15061TIP3   OH266673   5.039   2.453   2.541 -0.0336  0.1553 -0.3043
15061TIP3    H166674   5.046   2.532   2.595  1.6792 -0.9688  1.2450
15061TIP3    H266675   4.946   2.432   2.541 -0.1181  0.1724  2.3435
15062TIP3   OH266676   5.607   6.463   0.993 -0.8368 -0.1409 -0.3161
15062TIP3    H166677   5.531   6.422   0.952 -1.5919  1.0725 -0.1991
15062TIP3    H266678   5.652   6.507   0.921  0.3350 -1.6707 -0.5536
15063TIP3   OH266679   4.451   4.777  15.205  0.1839 -0.3897 -0.6254
15063TIP3    H166680   4.508   4.701  15.218  1.1056  0.2980 -0.4872
15063TIP3    H266681   4.363   4.745  15.225  0.6285 -1.2670  0.0147
15064TIP3   OH266682   1.800   6.053  15.551  0.1270 -0.8270  0.1212
15064TIP3    H166683   1.865   6.005  15.603  1.6185  0.1503 -0.7748
15064TIP3    H266684   1.784   5.996  15.476 -0.6263 -1.3857  0.6778
15065TIP3   OH266685   0.128   4.502  14.980 -0.6407  0.7889 -0.6697
15065TIP3    H166686   0.197   4.505  15.046 -1.1601  0.8904 -0.1178
15065TIP3    H266687   0.138   4.417  14.937  0.8124  1.4396 -1.6944
15066TIP3   OH266688   2.455   2.837   4.808 -0.3137  0.1429 -0.3533
15066TIP3    H166689   2.498   2.797   4.732 -0.3631 -0.3052 -0.1443
15066TIP3    H266690   2.377   2.784   4.822  0.1859 -0.3648  0.5999
15067TIP3   OH266691   2.955   1.357  12.652  0.0893  0.1793 -0.4064
15067TIP3    H166692   2.970   1.264  12.668 -1.3439  0.1860  1.3520
15067TIP3    H266693   3.012   1.401  12.715 -0.2859  0.4449 -0.2535
15068TIP3   OH266694   1.065   2.832   4.697  0.1897  0.0499 -0.2122
15068TIP3    H166695   1.119   2.875   4.763 -0.5049  1.0624 -0.2709
15068TIP3    H266696   0.975   2.846   4.727 -0.0686 -1.1302 -0.3974
15069TIP3   OH266697   6.281   4.680   0.440  0.2187 -0.2018 -0.0355
15069TIP3    H166698   6.238   4.624   0.505 -1.5134  2.0525  0.9059
15069TIP3    H266699   6.313   4.755   0.491  2.6737 -0.3579 -1.2036
15070TIP3   OH266700   1.910   6.675   0.522  0.0878 -0.3881  0.2020
15070TIP3    H166701   1.829   6.723   0.540  0.2388 -0.6200  1.6360
15070TIP3    H266702   1.912   6.667   0.426 -0.9043  0.7659  0.0547
15071TIP3   OH266703   1.262   5.063  16.909 -0.1076 -0.0687 -0.1021
15071TIP3    H166704   1.227   5.105  16.987 -0.4394 -1.8568  0.7809
15071TIP3    H266705   1.347   5.104  16.896 -1.6266  3.0420 -1.1856
15072TIP3   OH266706   3.366   3.704   2.706  0.1487 -0.8552 -0.0018
15072TIP3    H166707   3.323   3.777   2.751 -2.4763 -1.0322 -1.9543
15072TIP3    H266708   3.338   3.626   2.755  0.6739 -0.7776  0.4353
15073TIP3   OH266709   5.108   5.948   2.352  0.4582 -0.1171 -0.3099
15073TIP3    H166710   5.134   6.040   2.355 -0.8912  0.2698  1.1348
15073TIP3    H266711   5.090   5.931   2.259  2.0697  0.6491 -0.7837
15074TIP3   OH266712   5.750   5.788   2.888  0.1914  0.5542  0.0044
15074TIP3    H166713   5.681   5.841   2.927  0.1051  1.3388 -1.1815
15074TIP3    H266714   5.722   5.774   2.798  1.5389  0.8322 -0.4884
15075TIP3   OH266715   0.636   2.754   3.482  0.2627 -0.1613 -0.3952
15075TIP3    H166716   0.664   2.748   3.390  1.3118 -0.7996 -0.0466
15075TIP3    H266717   0.716   2.777   3.529  0.0876 -1.4506  0.5678
15076TIP3   OH266718   2.976   0.197  13.216 -0.3434  0.5434  0.7868
15076TIP3    H166719   2.887   0.193  13.253 -1.1808 -0.6891 -1.1692
15076TIP3    H266720   3.012   0.279  13.249 -2.1935  1.0483  1.7133
15077TIP3   OH266721   3.006   5.886  11.972  0.2287 -0.2378 -0.1644
15077TIP3    H166722   3.014   5.816  12.037  0.5774  0.2294  0.2977
15077TIP3    H266723   3.002   5.966  12.023  4.7163  0.5975 -0.6904
15078TIP3   OH266724   6.633   1.719   2.206  0.5588 -0.1353 -0.3614
15078TIP3    H166725   6.611   1.811   2.195  1.2777  0.2018  0.8165
15078TIP3    H266726   6.579   1.691   2.280 -0.1360 -0.8448 -1.1223
15079TIP3   OH266727   2.144   5.883  12.638  0.4916  0.2503  0.0784
15079TIP3    H166728   2.139   5.950  12.706  0.4616  0.4046 -0.0739
15079TIP3    H266729   2.098   5.922  12.563  1.3605  0.4847 -0.3518
15080TIP3   OH266730   2.695   5.375  13.577  0.3937  0.2035  0.0632
15080TIP3    H166731   2.617   5.395  13.629 -0.2497  0.9483 -1.1364
15080TIP3    H266732   2.766   5.423  13.619 -0.2328  1.2681 -0.0633
15081TIP3   OH266733   1.725   5.213  15.591  0.3994 -0.0084 -0.0749
15081TIP3    H166734   1.803   5.172  15.552  0.2353 -1.6199  1.1950
15081TIP3    H266735   1.657   5.200  15.525  0.7169 -0.4365 -0.3289
15082TIP3   OH266736   5.127   1.062  10.743  0.2047 -0.3313  0.0348
15082TIP3    H166737   5.201   1.119  10.725  0.4298 -1.3208 -2.6592
15082TIP3    H266738   5.162   0.996  10.803  1.2890 -0.3452 -0.5913
15083TIP3   OH266739   2.551   1.027   1.151 -0.1808  0.4018 -0.0720
15083TIP3    H166740   2.525   1.106   1.197  2.9368  2.3745 -1.3453
15083TIP3    H266741   2.542   1.048   1.058  0.0108 -1.0166 -0.4478
15084TIP3   OH266742   5.735   2.273   5.875  0.5892 -0.0937 -0.0078
15084TIP3    H166743   5.766   2.278   5.784 -0.1598  2.2817 -0.1880
15084TIP3    H266744   5.815   2.278   5.927  0.8792  1.7298 -0.5379
15085TIP3   OH266745   3.650   4.646   0.265 -0.2054  0.3109 -0.2708
15085TIP3    H166746   3.569   4.674   0.308  0.1721  1.2672 -0.1648
15085TIP3    H266747   3.719   4.665   0.329  0.1002 -0.6655 -0.2858
15086TIP3   OH266748   4.799   1.135  13.073  0.2464  0.5142  0.3246
15086TIP3    H166749   4.868   1.106  13.014  0.6102  0.2389  0.8727
15086TIP3    H266750   4.803   1.230  13.071 -0.7862  0.5524 -1.2947
15087TIP3   OH266751   0.725   4.612  16.642  0.2322 -0.2159  0.4600
15087TIP3    H166752   0.775   4.666  16.703  0.2896  1.0636 -0.6916
15087TIP3    H266753   0.656   4.670  16.609 -0.1827 -1.0733 -0.2212
15088TIP3   OH266754   2.450   1.596   5.523  0.0718  0.0439  0.2705
15088TIP3    H166755   2.360   1.595   5.555 -0.3509  3.2205 -0.4812
15088TIP3    H266756   2.442   1.575   5.430  0.0739  0.3545  0.1973
15089TIP3   OH266757   6.640   1.838   4.604  0.0207  0.2763  0.4000
15089TIP3    H166758   6.673   1.815   4.517 -0.7172  0.8278 -0.0330
15089TIP3    H266759   6.618   1.931   4.597  1.9360  0.8940  1.7916
15090TIP3   OH266760   6.139   6.472  15.762  0.2971  0.1181 -0.0144
15090TIP3    H166761   6.190   6.494  15.684  1.1044  0.5483  0.6236
15090TIP3    H266762   6.114   6.556  15.800  1.0941 -0.0566  0.9453
15091TIP3   OH266763   2.224   3.245   4.149 -1.0374 -0.1019 -0.0724
15091TIP3    H166764   2.252   3.167   4.101  1.3057 -0.1543  1.1993
15091TIP3    H266765   2.253   3.319   4.095  0.0497 -0.1547  0.4181
15092TIP3   OH266766   5.469   6.778  15.606  0.9185 -0.6781  0.8240
15092TIP3    H166767   5.382   6.816  15.622  0.0893 -1.9373 -0.4674
15092TIP3    H266768   5.510   6.836  15.542 -1.2458 -2.9044 -2.9770
15093TIP3   OH266769   1.450   1.835  11.196  0.3253 -0.0367 -0.1358
15093TIP3    H166770   1.421   1.906  11.138  0.4863  0.5030  0.4354
15093TIP3    H266771   1.417   1.860  11.282  1.5470  0.0323  0.3193
15094TIP3   OH266772   5.879   4.121   5.737  0.2471  0.1058 -0.1860
15094TIP3    H166773   5.845   4.131   5.826  1.0497 -1.7311  0.3859
15094TIP3    H266774   5.832   4.186   5.686 -1.5884 -0.0302  1.2189
15095TIP3   OH266775   2.322   6.390   1.084 -0.3605  0.5541  0.0388
15095TIP3    H166776   2.311   6.346   1.000 -1.1736  2.6684 -1.0575
15095TIP3    H266777   2.233   6.415   1.109 -0.0042  0.9268  0.9523
15096TIP3   OH266778   5.087   5.654   4.672  0.2771  0.1492 -0.3850
15096TIP3    H166779   5.171   5.646   4.628  0.5559  0.3291  0.1085
15096TIP3    H266780   5.069   5.748   4.673 -0.6879  0.0049 -1.8875
15097TIP3   OH266781   1.574   1.107  10.543  0.1285 -0.1478  0.0813
15097TIP3    H166782   1.608   1.189  10.579 -0.6795 -0.4280  1.5792
15097TIP3    H266783   1.479   1.119  10.543 -0.0194 -1.1810  0.6140
15098TIP3   OH266784   6.386   5.511  14.275 -0.4160  0.0083  0.3662
15098TIP3    H166785   6.298   5.529  14.308 -0.2271 -0.6400  1.2757
15098TIP3    H266786   6.381   5.421  14.243 -0.7393  0.7983 -1.9585
15099TIP3   OH266787   4.616   4.072   5.073  0.1392  0.0652  0.0238
15099TIP3    H166788   4.627   4.005   5.005  1.3819  0.7415 -0.4753
15099TIP3    H266789   4.640   4.028   5.154  0.5447 -0.2080 -0.2393
15100TIP3   OH266790   2.711   5.930   0.297 -0.2243 -0.4584 -0.0934
15100TIP3    H166791   2.784   5.970   0.345 -1.6544  2.2625 -0.0164
15100TIP3    H266792   2.684   5.857   0.351  1.7688 -0.9198  0.3744
15101TIP3   OH266793   4.662   4.272  13.983 -0.0610 -0.0866  0.0356
15101TIP3    H166794   4.702   4.196  13.939 -0.1552  0.7910 -1.6663
15101TIP3    H266795   4.577   4.281  13.940 -0.0291  0.9930  0.1872
15102TIP3   OH266796   2.986   1.250   1.578 -0.1388 -0.4732  0.1586
15102TIP3    H166797   3.059   1.252   1.516  0.8594 -1.0662  1.2674
15102TIP3    H266798   2.911   1.283   1.529  1.1955  1.6569 -0.5942
15103TIP3   OH266799   6.492   2.385  11.059  0.1346  0.0310 -0.4018
15103TIP3    H166800   6.557   2.413  10.994  0.3470  0.5735  0.0354
15103TIP3    H266801   6.538   2.321  11.113  0.3174  0.4303 -0.0797
15104TIP3   OH266802   4.173   2.869  11.357 -0.4793  0.2780 -0.0623
15104TIP3    H166803   4.222   2.937  11.402 -1.7651 -0.2433  2.2634
15104TIP3    H266804   4.210   2.787  11.389 -2.2582 -0.1139  1.1584
15105TIP3   OH266805   3.337   5.481  13.309 -0.1638 -0.3524 -0.1178
15105TIP3    H166806   3.318   5.388  13.309  2.4195 -0.9996  1.8782
15105TIP3    H266807   3.428   5.487  13.338  0.3423  2.7235 -1.9018
15106TIP3   OH266808   4.285   2.377  14.606  0.4401 -0.6051  0.2210
15106TIP3    H166809   4.299   2.466  14.575 -2.1277 -0.8186 -1.8192
15106TIP3    H266810   4.260   2.388  14.698 -0.0879  0.8004 -0.0659
15107TIP3   OH266811   1.089   5.489  10.970  0.3681 -0.0576 -0.4537
15107TIP3    H166812   1.107   5.558  10.906  0.1298  1.1482  0.7318
15107TIP3    H266813   1.109   5.408  10.923 -0.4478  0.7255 -2.2735
15108TIP3   OH266814   5.386   1.633   4.086 -0.1086  0.1797  0.7181
15108TIP3    H166815   5.414   1.698   4.021 -0.9618  0.4497  0.6079
15108TIP3    H266816   5.436   1.554   4.064 -1.5081 -0.2136 -1.2600
15109TIP3   OH266817   4.764   3.339   5.661 -0.3223 -0.0979 -0.3846
15109TIP3    H166818   4.782   3.430   5.638 -1.1751  0.1053 -0.2635
15109TIP3    H266819   4.681   3.319   5.619 -0.6014 -0.5269  0.3530
15110TIP3   OH266820   0.415   2.325   1.563 -0.2715  0.5474  0.1217
15110TIP3    H166821   0.437   2.233   1.571  1.3859  0.8799 -0.2159
15110TIP3    H266822   0.499   2.368   1.543 -1.0045  2.1158  0.2781
15111TIP3   OH266823   6.223   5.601   2.109 -0.4496  0.5869 -0.6132
15111TIP3    H166824   6.129   5.598   2.095 -0.7659  0.3885  1.2644
15111TIP3    H266825   6.248   5.511   2.130 -0.2797  1.0128  1.1874
15112TIP3   OH266826   6.743   3.797   3.351 -0.2092  0.1633 -0.4201
15112TIP3    H166827   6.695   3.762   3.427  1.7385 -0.0111  0.7921
15112TIP3    H266828   6.789   3.721   3.315  0.1799  0.5584 -0.7598
15113TIP3   OH266829   2.146   5.642  16.559  0.7102 -0.4720  0.7403
15113TIP3    H166830   2.192   5.560  16.541  0.6186 -0.3168 -0.2360
15113TIP3    H266831   2.110   5.670  16.475  1.9258  1.2942  0.7379
15114TIP3   OH266832   4.321   3.389   0.212  0.1205 -0.2552  0.1393
15114TIP3    H166833   4.282   3.473   0.189 -0.8351 -0.6031  0.4509
15114TIP3    H266834   4.364   3.405   0.296 -2.3584 -0.7073  1.5817
15115TIP3   OH266835   0.058   3.735   6.747  0.0683 -0.4263  0.0429
15115TIP3    H166836   0.006   3.721   6.826  0.5761  1.0092  0.6757
15115TIP3    H266837   0.050   3.654   6.698 -2.4943 -0.3885  0.2606
15116TIP3   OH266838   2.227   0.720  16.683  0.1393  0.0136 -0.3295
15116TIP3    H166839   2.274   0.657  16.738 -1.0592 -1.4043 -0.8714
15116TIP3    H266840   2.184   0.779  16.745  1.1233  0.2123  0.1875
15117TIP3   OH266841   4.441   5.362   4.236  0.3932  0.4555  0.6557
15117TIP3    H166842   4.472   5.315   4.159  0.1838  0.6555  0.4470
15117TIP3    H266843   4.350   5.383   4.216  0.4128  0.7284  0.8542
15118TIP3   OH266844   1.002   1.478  13.002  0.7013 -0.0263  0.0615
15118TIP3    H166845   1.052   1.549  12.963  0.6250  1.5430  2.5972
15118TIP3    H266846   0.911   1.498  12.982  0.7623 -0.0651 -0.2490
15119TIP3   OH266847   4.089   4.549   5.141  0.4506 -0.0372 -0.0991
15119TIP3    H166848   4.147   4.609   5.093  0.6163 -0.5190 -0.5075
15119TIP3    H266849   4.048   4.496   5.073 -0.6048  0.4095  0.1758
15120TIP3   OH266850   5.335   3.268  11.791 -0.1865  0.1515 -0.5711
15120TIP3    H166851   5.257   3.254  11.736 -0.2073  0.3861 -0.6012
15120TIP3    H266852   5.373   3.180  11.800 -1.4378 -0.2794  0.9270
15121TIP3   OH266853   6.796   2.708  14.501  1.0745 -0.0903  0.6755
15121TIP3    H166854   6.756   2.623  14.483 -0.5123  0.4657  1.3394
15121TIP3    H266855   6.887   2.688  14.520  1.0464 -1.4858 -0.4417
15122TIP3   OH266856   5.953   2.260  15.400 -0.2701 -0.3436  0.3285
15122TIP3    H166857   5.986   2.319  15.332 -0.3747 -0.9915 -0.2963
15122TIP3    H266858   5.863   2.289  15.415 -0.4609 -0.6054 -0.2847
15123TIP3   OH266859   6.293   3.984   4.177  0.1761  0.1829  0.0658
15123TIP3    H166860   6.299   3.934   4.096  1.2548 -0.0410  0.2664
15123TIP3    H266861   6.345   4.063   4.161  1.2079 -0.3127  0.8405
15124TIP3   OH266862   5.884   4.981  11.326 -0.5121 -0.3755  0.2402
15124TIP3    H166863   5.935   5.062  11.319 -0.3099 -0.2974  2.1604
15124TIP3    H266864   5.925   4.921  11.264  0.2012  0.5432 -0.1963
15125TIP3   OH266865   4.283   6.109  15.722 -0.2370  0.4527 -0.4642
15125TIP3    H166866   4.318   6.061  15.646  1.5612 -1.3038  1.3654
15125TIP3    H266867   4.356   6.113  15.784 -1.9478  0.8536  1.6402
15126TIP3   OH266868   0.328   2.401   0.636 -0.8246 -0.1657  0.2406
15126TIP3    H166869   0.336   2.310   0.607 -0.7876  0.6959 -2.8445
15126TIP3    H266870   0.405   2.444   0.598 -0.2770  1.0097  2.5386
15127TIP3   OH266871   2.528   3.263   0.130  0.4656 -0.1250 -0.0314
15127TIP3    H166872   2.576   3.319   0.069  0.2469 -0.1322 -0.2125
15127TIP3    H266873   2.441   3.302   0.136  0.3955 -0.2912  0.0516
15128TIP3   OH266874   5.542   4.667  12.439  0.5341  0.6403 -0.2280
15128TIP3    H166875   5.453   4.689  12.411  0.6720  0.3353 -0.9218
15128TIP3    H266876   5.562   4.731  12.507 -0.0833  0.9373 -0.3184
15129TIP3   OH266877   0.754   5.461   5.230 -0.0654  0.3291 -0.3654
15129TIP3    H166878   0.803   5.544   5.224  2.5923 -1.0789  0.0973
15129TIP3    H266879   0.689   5.477   5.298  0.5913  1.9491 -0.0574
15130TIP3   OH266880   6.061   6.734  15.852 -0.0534  0.1262  0.5561
15130TIP3    H166881   6.041   6.766  15.940  0.7857 -0.2141  0.8818
15130TIP3    H266882   5.982   6.752  15.802  0.2799  2.4769  0.7563
15131TIP3   OH266883   1.063   4.882  17.090  0.1481  0.3044 -0.0456
15131TIP3    H166884   1.055   4.975  17.069 -0.1244 -0.0785 -1.7043
15131TIP3    H266885   1.032   4.836  17.013 -1.0876 -1.1965  1.2668
15132TIP3   OH266886   5.934   0.856   1.685 -0.0762  0.2705  0.1588
15132TIP3    H166887   5.839   0.864   1.681  0.0771  2.0354 -0.8761
15132TIP3    H266888   5.965   0.896   1.604  1.5472 -0.5843  0.3177
15133TIP3   OH266889   1.968   4.440  16.623 -0.2239 -0.1760 -0.1356
15133TIP3    H166890   1.984   4.470  16.534 -0.0994  1.2069  0.3370
15133TIP3    H266891   1.898   4.496  16.656  0.4267  0.0113  0.9805
15134TIP3   OH266892   4.935   5.205  14.303  0.3305  0.0960 -0.4863
15134TIP3    H166893   4.960   5.245  14.220  0.2876  1.0829 -0.0302
15134TIP3    H266894   4.897   5.120  14.278  2.0027 -0.4431 -1.3513
15135TIP3   OH266895   5.655   0.214  15.005  0.0833  0.2611  0.3178
15135TIP3    H166896   5.637   0.307  14.991  1.1133  0.7564  1.9239
15135TIP3    H266897   5.569   0.172  14.997 -0.4593  1.3874 -0.1050
15136TIP3   OH266898   4.246   5.195   2.423  0.2375 -0.3378  0.8068
15136TIP3    H166899   4.235   5.284   2.457  1.3460  0.5945 -1.0865
15136TIP3    H266900   4.190   5.192   2.345  0.3217 -1.2514  0.7751
15137TIP3   OH266901   4.144   3.549  17.061 -0.8554  0.0685 -0.1914
15137TIP3    H166902   4.073   3.508  17.012 -0.8668 -0.0337 -0.0893
15137TIP3    H266903   4.125   3.530  17.152 -0.8541  0.2924 -0.1446
15138TIP3   OH266904   0.170   0.665  12.323 -0.1799  0.0450  0.0116
15138TIP3    H166905   0.197   0.619  12.244  0.9611 -1.0053  0.9698
15138TIP3    H266906   0.117   0.739  12.292 -0.8987 -1.1183 -1.6402
15139TIP3   OH266907   6.408   4.605  12.572 -0.0295  0.3216  0.3072
15139TIP3    H166908   6.373   4.644  12.652 -3.6318 -1.7384 -0.0585
15139TIP3    H266909   6.405   4.675  12.508 -1.1182  0.9241  0.9890
15140TIP3   OH266910   3.361   3.027  14.094  0.4962 -0.1211  0.1048
15140TIP3    H166911   3.268   3.049  14.095  0.6787  0.6607  0.5378
15140TIP3    H266912   3.406   3.112  14.090  1.1823 -0.5114 -0.9088
15141TIP3   OH266913   6.235   2.645   2.810  0.1471 -0.3436 -0.0516
15141TIP3    H166914   6.281   2.721   2.776 -0.1465  0.0065  0.3172
15141TIP3    H266915   6.304   2.584   2.835  0.5210  0.8247  2.0224
15142TIP3   OH266916   6.432   1.645   3.545  0.0221 -0.2179  0.3156
15142TIP3    H166917   6.357   1.658   3.602  0.9856 -0.4919  1.6929
15142TIP3    H266918   6.434   1.550   3.529  0.4181 -0.3008  0.8066
15143TIP3   OH266919   0.110   4.246   2.203 -0.3100 -0.1213 -1.1501
15143TIP3    H166920   0.185   4.263   2.260 -1.1678  1.6540 -0.4679
15143TIP3    H266921   0.102   4.324   2.149 -1.9930 -0.0021 -0.8002
15144TIP3   OH266922   3.468   2.786  10.442 -0.1707 -0.4196  0.0725
15144TIP3    H166923   3.422   2.766  10.361  0.3103  0.1673 -0.3592
15144TIP3    H266924   3.510   2.870  10.425  0.8786 -0.8343  0.5232
15145TIP3   OH266925   2.814   1.534   4.009  0.6158 -0.1348 -0.2359
15145TIP3    H166926   2.848   1.482   4.082 -0.6330  1.6986  1.7785
15145TIP3    H266927   2.719   1.524   4.015  0.4244  1.3117 -0.6170
15146TIP3   OH266928   0.158   1.923   4.927  0.3237  0.2925 -0.1482
15146TIP3    H166929   0.129   1.942   4.838  0.1358  2.5823  0.3507
15146TIP3    H266930   0.251   1.948   4.928  0.1916  0.7829  0.4281
15147TIP3   OH266931   2.247   3.423  12.128 -0.1489  0.1625  0.3738
15147TIP3    H166932   2.269   3.457  12.041 -1.5875 -1.2377 -0.5832
15147TIP3    H266933   2.266   3.496  12.187  1.0460  1.0874 -1.0670
15148TIP3   OH266934   3.348   6.093  15.175  0.7426 -0.3148  0.5354
15148TIP3    H166935   3.421   6.069  15.118  0.1446 -0.3810 -0.2167
15148TIP3    H266936   3.270   6.059  15.131  0.0404  1.4585  0.3276
15149TIP3   OH266937   6.109   3.803   5.785 -0.7024  0.2217 -0.2041
15149TIP3    H166938   6.153   3.719   5.782 -0.3694  0.2991  1.6400
15149TIP3    H266939   6.016   3.782   5.778 -0.7101 -0.4387  1.4470
15150TIP3   OH266940   2.216   5.678   5.902  1.1760 -0.3408  0.9015
15150TIP3    H166941   2.137   5.681   5.847  2.9476 -1.4020 -1.9494
15150TIP3    H266942   2.189   5.630   5.980 -0.5537 -2.6314 -0.9512
15151TIP3   OH266943   5.911   2.938  16.452 -0.0063  0.2590  0.4417
15151TIP3    H166944   5.949   3.020  16.422 -1.3260  0.7901  0.1732
15151TIP3    H266945   5.982   2.874  16.442  0.5962  1.0672 -0.6938
15152TIP3   OH266946   4.403   4.094   5.367 -0.3668  0.5055  0.0290
15152TIP3    H166947   4.309   4.090   5.382 -0.3041  0.0176  0.3387
15152TIP3    H266948   4.421   4.019   5.310  0.2551 -1.3493  2.4604
15153TIP3   OH266949   3.843   3.274  12.559  0.6339 -0.0023  0.9029
15153TIP3    H166950   3.764   3.232  12.592 -0.2571  1.4169  0.6343
15153TIP3    H266951   3.812   3.351  12.512  2.1050 -0.0469 -0.2177
15154TIP3   OH266952   6.454   3.906   4.922  0.2317 -0.4720 -0.9402
15154TIP3    H166953   6.445   3.887   4.829 -0.9704  1.5956 -1.2996
15154TIP3    H266954   6.375   3.955   4.945  1.4015  0.7731  0.7043
15155TIP3   OH266955   3.481   4.508  12.055 -0.8379  0.0808 -0.1349
15155TIP3    H166956   3.412   4.454  12.015 -3.2809  0.8086  2.7084
15155TIP3    H266957   3.518   4.452  12.123 -2.4746  1.3917  1.9466
15156TIP3   OH266958   4.885   6.709   4.404 -0.2753 -0.0154 -0.5262
15156TIP3    H166959   4.893   6.801   4.379  0.1674  0.2297  0.4555
15156TIP3    H266960   4.806   6.705   4.458  0.0839 -0.0636  0.0102
15157TIP3   OH266961   0.158   0.112   4.614 -0.2229  0.5133 -0.3222
15157TIP3    H166962   0.207   0.049   4.667 -1.6287 -1.1542 -0.8895
15157TIP3    H266963   0.220   0.142   4.548  0.1262 -1.4330 -0.9359
15158TIP3   OH266964   4.744   6.361   4.642  0.1390  0.3718  0.5244
15158TIP3    H166965   4.689   6.438   4.627  0.4641  0.8898  1.8104
15158TIP3    H266966   4.801   6.355   4.566 -1.0094  0.4211 -0.3572
15159TIP3   OH266967   5.373   4.700  13.945 -0.0750  0.2638  0.2836
15159TIP3    H166968   5.415   4.622  13.910 -1.7974 -1.3971  1.6801
15159TIP3    H266969   5.291   4.708  13.895 -0.0452  1.0385  0.3384
15160TIP3   OH266970   6.349   2.419   1.198  0.1053 -0.3133  0.2756
15160TIP3    H166971   6.312   2.351   1.141  0.0575 -1.4748  1.6211
15160TIP3    H266972   6.403   2.371   1.260  1.6052  1.0895  0.1272
15161TIP3   OH266973   3.114   1.927  12.100 -0.3787 -0.1690  0.0560
15161TIP3    H166974   3.146   2.006  12.143 -2.5064  0.0247  1.4020
15161TIP3    H266975   3.140   1.856  12.158 -0.9577 -0.1668  0.3214
15162TIP3   OH266976   6.390   1.681   5.482  0.1521 -0.5847  0.2108
15162TIP3    H166977   6.395   1.649   5.573  0.3411 -1.6447 -0.1515
15162TIP3    H266978   6.348   1.766   5.489 -0.3143 -0.8777  1.2502
15163TIP3   OH266979   3.173   0.672  15.726 -0.7528  0.5795  0.2079
15163TIP3    H166980   3.242   0.646  15.665 -0.3460  0.7711  0.5843
15163TIP3    H266981   3.200   0.758  15.759 -1.2379  0.7184  0.2571
15164TIP3   OH266982   2.554   1.983   1.094 -0.1641  0.3642  0.2025
15164TIP3    H166983   2.570   2.078   1.092  2.2403  0.0631  1.2579
15164TIP3    H266984   2.623   1.949   1.151 -1.7866 -1.8961  0.9415
15165TIP3   OH266985   5.110   0.984   3.215 -0.2082 -0.2400  0.1348
15165TIP3    H166986   5.063   1.045   3.273 -1.7040 -0.8668 -0.3814
15165TIP3    H266987   5.202   0.994   3.241 -0.9245 -2.0379  4.1436
15166TIP3   OH266988   3.602   2.266  15.021  0.0823  0.1438  0.0931
15166TIP3    H166989   3.671   2.219  14.973 -0.5238 -0.3913 -0.2714
15166TIP3    H266990   3.637   2.276  15.109  0.3154 -0.8076  0.1243
15167TIP3   OH266991   0.960   1.294  12.184 -0.0693  0.6582 -0.2026
15167TIP3    H166992   0.908   1.250  12.116 -0.4339 -0.9864  1.0567
15167TIP3    H266993   0.905   1.289  12.262  1.2864  0.3843  0.7675
15168TIP3   OH266994   3.525   5.147   5.495 -0.1543 -0.4537 -0.1911
15168TIP3    H166995   3.564   5.064   5.524  0.7991 -1.1984 -3.2261
15168TIP3    H266996   3.599   5.198   5.460 -1.0400  0.7242 -0.4106
15169TIP3   OH266997   0.770   6.597   1.280  0.1254 -0.5849 -0.5588
15169TIP3    H166998   0.750   6.557   1.196  1.8611 -1.7233 -0.4834
15169TIP3    H266999   0.835   6.665   1.259 -1.4904  1.0859 -0.4514
15170TIP3   OH267000   4.682   4.124  15.966  0.2184  0.2859 -0.2528
15170TIP3    H167001   4.714   4.198  16.018  2.0895 -1.1516  0.7722
15170TIP3    H267002   4.755   4.101  15.909 -0.5632 -0.3676 -1.0049
15171TIP3   OH267003   5.975   6.781  16.776  0.0657  0.1704  0.2101
15171TIP3    H167004   5.916   6.708  16.762 -2.4239  1.9387  0.6448
15171TIP3    H267005   6.021   6.760  16.858 -0.6649 -0.8480  0.3682
15172TIP3   OH267006   5.215   2.272   6.117 -0.2471  0.1299 -0.3636
15172TIP3    H167007   5.213   2.242   6.026  1.6120 -0.8921 -0.1285
15172TIP3    H267008   5.124   2.293   6.137 -0.7566  0.0630 -2.3451
15173TIP3   OH267009   2.272   0.254  13.169 -0.1437  0.1722  0.0892
15173TIP3    H167010   2.255   0.322  13.233 -1.1597 -0.6964  0.7662
15173TIP3    H267011   2.194   0.198  13.171  1.6100 -2.4430  1.3756
15174TIP3   OH267012   6.542   1.778   4.841  0.1910  0.3974 -0.5464
15174TIP3    H167013   6.608   1.729   4.891 -1.4464 -1.4720 -0.1420
15174TIP3    H267014   6.583   1.792   4.755  1.0372 -0.9086 -0.3834
15175TIP3   OH267015   3.316   1.350   2.763  0.0878 -0.0444  0.4582
15175TIP3    H167016   3.259   1.331   2.838 -1.2484 -1.8195 -0.9073
15175TIP3    H267017   3.302   1.443   2.745 -0.5975  0.0908  1.5709
15176TIP3   OH267018   6.199   5.348  10.804 -0.0617 -0.1273 -1.2441
15176TIP3    H167019   6.193   5.260  10.768 -0.5107 -0.8556  0.4885
15176TIP3    H267020   6.293   5.361  10.820 -0.1366 -0.9830  0.0347
15177TIP3   OH267021   0.971   5.063  15.990 -0.1195  0.0520 -0.7101
15177TIP3    H167022   1.030   5.136  16.013 -1.7943  0.9329  1.1139
15177TIP3    H267023   0.929   5.040  16.073 -1.8375 -1.0137 -1.8195
15178TIP3   OH267024   1.020   4.448  14.914  0.3479  0.3938 -0.1198
15178TIP3    H167025   0.959   4.383  14.878 -1.9069  1.6563  1.1659
15178TIP3    H267026   1.032   4.512  14.844 -3.0267  2.1780  0.7006
15179TIP3   OH267027   3.535   5.901   2.681 -0.4441  0.3739 -0.0221
15179TIP3    H167028   3.531   5.810   2.710 -1.3088  0.1311 -0.8625
15179TIP3    H267029   3.445   5.923   2.658 -0.6293  2.0618  1.9501
15180TIP3   OH267030   0.547   0.166   0.115 -0.1562  0.2965 -0.1205
15180TIP3    H167031   0.505   0.233   0.168 -0.9469 -0.6918  0.5549
15180TIP3    H267032   0.475   0.113   0.081  0.4153  0.1199 -1.1099
15181TIP3   OH267033   5.060   4.169   6.006 -0.0092 -0.1952 -0.3427
15181TIP3    H167034   5.118   4.169   6.082  1.7149  0.7799 -1.6187
15181TIP3    H267035   5.057   4.077   5.979 -0.5295 -0.5323  0.7816
15182TIP3   OH267036   3.102   6.628  17.029  0.0705  0.0985  0.1743
15182TIP3    H167037   3.101   6.724  17.024 -0.6876  0.0461 -1.0884
15182TIP3    H267038   3.193   6.604  17.011  0.4049  0.5873  1.1174
15183TIP3   OH267039   4.673   3.385  16.629  0.2071  0.4944  0.0274
15183TIP3    H167040   4.624   3.378  16.547  0.8630 -0.8487 -0.2757
15183TIP3    H267041   4.606   3.377  16.697 -0.3204  1.4311 -0.3611
15184TIP3   OH267042   5.023   5.013   3.458 -0.0612  0.1552  0.6791
15184TIP3    H167043   5.004   5.106   3.461 -1.7633 -0.1422 -0.0590
15184TIP3    H267044   5.090   5.004   3.390  0.2625  0.8477  0.9006
15185TIP3   OH267045   2.298   0.013  16.773  0.1129  0.7571 -0.1191
15185TIP3    H167046   2.336  -0.071  16.748  0.9079  0.3377  2.2251
15185TIP3    H267047   2.357   0.079  16.737 -0.5817  0.3648 -2.0741
15186TIP3   OH267048   2.927   4.576  16.595 -0.2210  0.1266  0.0923
15186TIP3    H167049   2.954   4.497  16.641  0.1101  0.4928  0.5461
15186TIP3    H267050   2.896   4.635  16.665 -0.9992  0.1890 -0.2911
15187TIP3   OH267051   1.250   1.958   3.745  0.6012 -0.0627 -0.8168
15187TIP3    H167052   1.324   2.000   3.790  0.2339 -0.8917  0.6218
15187TIP3    H267053   1.274   1.960   3.652  2.0839  0.3588 -0.4487
15188TIP3   OH267054   5.184   1.069   0.864  0.0791 -0.1463  0.6652
15188TIP3    H167055   5.119   1.138   0.874 -0.8137 -0.5532 -1.6312
15188TIP3    H267056   5.265   1.106   0.901 -0.4411  2.0296 -0.1890
15189TIP3   OH267057   0.828   0.937   4.892  0.0337 -0.1717 -0.1729
15189TIP3    H167058   0.893   0.885   4.938 -0.4056 -1.3293 -0.8193
15189TIP3    H267059   0.799   1.002   4.956  0.1657 -1.1038  0.8490
15190TIP3   OH267060   1.282   3.716   0.280  0.2344 -0.3218  0.7687
15190TIP3    H167061   1.190   3.690   0.284  0.5157 -2.0155 -1.5478
15190TIP3    H267062   1.327   3.649   0.332  0.4332 -1.6301 -0.9766
15191TIP3   OH267063   2.777   3.150   2.777 -0.3506  0.3078 -0.1889
15191TIP3    H167064   2.871   3.164   2.787 -0.1444 -0.8273 -0.4096
15191TIP3    H267065   2.770   3.083   2.709 -1.2897 -0.2324  0.4252
15192TIP3   OH267066   5.335   3.435  13.335  0.1071 -0.2004 -0.1964
15192TIP3    H167067   5.325   3.483  13.254 -1.0390  0.7961  0.5047
15192TIP3    H267068   5.417   3.467  13.373  0.7338 -0.7986 -1.0210
15193TIP3   OH267069   6.189   3.947  14.148 -0.3192  0.4223  0.1982
15193TIP3    H167070   6.165   3.971  14.059  0.9694 -0.9662 -0.5591
15193TIP3    H267071   6.284   3.945  14.148 -0.3047 -0.1751  1.4670
15194TIP3   OH267072   0.167   2.025  15.706  0.0436 -0.0223 -0.0836
15194TIP3    H167073   0.087   1.980  15.681  0.4383 -0.3117 -0.8808
15194TIP3    H267074   0.174   2.011  15.801  0.7642 -2.7231 -0.4456
15195TIP3   OH267075   6.289   4.794   1.683  0.2856 -0.0145 -0.3532
15195TIP3    H167076   6.197   4.812   1.667 -0.6145 -2.8830  1.0172
15195TIP3    H267077   6.322   4.761   1.599  0.0405  0.7816 -0.7759
15196TIP3   OH267078   5.285   4.461   6.002 -0.4931  0.6742 -0.5391
15196TIP3    H167079   5.218   4.436   5.939 -1.0798  2.3408 -0.6134
15196TIP3    H267080   5.335   4.530   5.958  0.8812 -0.0781 -0.2379
15197TIP3   OH267081   5.452   1.757  16.642  0.5112 -0.4249 -0.1608
15197TIP3    H167082   5.486   1.763  16.553  1.6146  0.6569  0.2995
15197TIP3    H267083   5.420   1.845  16.662  0.5508 -0.5725  0.6049
15198TIP3   OH267084   4.037   5.386  12.197  0.7347  0.1629  0.1559
15198TIP3    H167085   4.113   5.402  12.253  1.6798  0.9689 -1.3113
15198TIP3    H267086   4.008   5.473  12.170  2.3889 -0.2195 -3.2865
15199TIP3   OH267087   1.225   2.890   2.261 -0.1716  0.3084  0.1642
15199TIP3    H167088   1.148   2.944   2.280  0.5777  1.2721  0.5865
15199TIP3    H267089   1.299   2.944   2.289  0.6408 -0.7609  0.1503
15200TIP3   OH267090   3.024   0.108   1.188 -0.1843 -0.0183 -0.1190
15200TIP3    H167091   2.949   0.074   1.236  0.6884 -0.2857  1.1085
15200TIP3    H267092   3.030   0.200   1.215  1.1096 -0.5086  1.3978
15201TIP3   OH267093   5.834   1.933  12.420  0.2182 -0.2329  0.1716
15201TIP3    H167094   5.909   1.992  12.424  0.5289 -0.6265  0.1338
15201TIP3    H267095   5.870   1.846  12.438  0.2897 -0.8898 -2.6509
15202TIP3   OH267096   6.350   1.719   4.562 -0.0927 -0.3972 -0.1445
15202TIP3    H167097   6.438   1.750   4.586 -0.1019 -0.7446  0.3510
15202TIP3    H267098   6.362   1.678   4.477  0.4861 -1.5620  0.4769
15203TIP3   OH267099   1.706   4.210  13.664 -0.0209 -0.3619 -0.6862
15203TIP3    H167100   1.736   4.132  13.618  2.3414  0.5858 -0.8819
15203TIP3    H267101   1.783   4.266  13.671 -0.7437  0.4426  2.6824
15204TIP3   OH267102   3.406   2.192  11.189 -0.3009 -0.2039  0.2928
15204TIP3    H167103   3.393   2.283  11.217  1.2643 -0.1111  0.8140
15204TIP3    H267104   3.326   2.147  11.216 -0.4188  0.6844  1.5140
15205TIP3   OH267105   0.146   6.083   3.876  0.5268  0.0891  0.0140
15205TIP3    H167106   0.159   6.005   3.823 -0.0079  0.6306 -0.9390
15205TIP3    H267107   0.209   6.074   3.948  1.4784 -0.5095 -0.8667
15206TIP3   OH267108   2.203   2.374   0.114  0.2992  0.4426 -0.2654
15206TIP3    H167109   2.135   2.433   0.082  1.1868 -0.5386 -4.5495
15206TIP3    H267110   2.186   2.291   0.069  2.1740 -0.9995  1.4598
15207TIP3   OH267111   5.658   4.767  12.824  0.2781  0.2401 -0.0922
15207TIP3    H167112   5.668   4.678  12.789 -0.9682  0.6914 -1.7133
15207TIP3    H267113   5.570   4.768  12.861  1.0003  0.2533  1.7023
15208TIP3   OH267114   0.189   4.316   3.330 -0.6029 -0.4719 -0.2130
15208TIP3    H167115   0.283   4.305   3.341 -0.5103  1.6253  1.9807
15208TIP3    H267116   0.150   4.244   3.379 -0.1775 -1.3894 -1.1893
15209TIP3   OH267117   4.612   2.264   2.246  0.5588  0.0726 -0.6049
15209TIP3    H167118   4.639   2.193   2.304  2.1802  0.3982 -0.9328
15209TIP3    H267119   4.693   2.310   2.225 -0.2198  0.8992 -1.8874
15210TIP3   OH267120   4.327   1.647  12.274 -0.1408  0.1093  0.4176
15210TIP3    H167121   4.337   1.631  12.368 -0.1605 -0.0615  0.3906
15210TIP3    H267122   4.390   1.716  12.254  1.7544 -1.6493  0.0460
15211TIP3   OH267123   6.234   1.486  12.769 -0.3113 -1.2897  0.2522
15211TIP3    H167124   6.232   1.557  12.705  1.2116  0.1951  1.7239
15211TIP3    H267125   6.148   1.446  12.764 -1.2010  0.6088 -0.7363
15212TIP3   OH267126   6.462   2.785   1.902 -0.5197  0.5536 -0.0182
15212TIP3    H167127   6.410   2.705   1.900 -2.8771  1.9992 -0.8766
15212TIP3    H267128   6.496   2.793   1.812 -2.0097  1.5159 -0.5281
15213TIP3   OH267129   0.850   3.556  12.411 -0.8491 -0.1115 -0.2345
15213TIP3    H167130   0.843   3.464  12.436 -1.9865 -0.0039 -0.0983
15213TIP3    H267131   0.904   3.556  12.333 -1.9656 -1.0529 -1.0342
15214TIP3   OH267132   3.090   5.449  17.079  0.6370 -0.1058  0.2255
15214TIP3    H167133   3.003   5.461  17.117 -0.6707 -2.2447 -1.8262
15214TIP3    H267134   3.115   5.537  17.051 -0.6139  0.6508  1.3565
15215TIP3   OH267135   4.813   5.983  14.004 -0.0279  0.3213  0.1803
15215TIP3    H167136   4.787   5.990  13.912  0.2405  0.6706  0.1313
15215TIP3    H267137   4.752   6.040  14.051 -0.9059 -0.7370  0.3675
15216TIP3   OH267138   0.177   5.162   1.273  0.4196  0.4130  0.1359
15216TIP3    H167139   0.242   5.094   1.257  0.6635  0.5861  0.3993
15216TIP3    H267140   0.141   5.142   1.359  0.5293  0.6492  0.2362
15217TIP3   OH267141   3.998   4.684   1.361  0.0481 -0.5000 -0.2172
15217TIP3    H167142   3.934   4.613   1.361 -0.1513 -0.3436 -1.3243
15217TIP3    H267143   4.079   4.642   1.332  0.1163 -0.4335 -0.1213
15218TIP3   OH267144   4.635   2.055  11.046 -0.1743 -0.0912 -0.8644
15218TIP3    H167145   4.587   1.980  11.010  1.1546 -0.2221 -2.5111
15218TIP3    H267146   4.700   2.016  11.104 -0.9143 -0.0334  0.0206
15219TIP3   OH267147   2.228   5.055  13.989  0.0873 -0.0456  0.3242
15219TIP3    H167148   2.225   5.014  13.903  0.7090 -0.1282  0.3347
15219TIP3    H267149   2.304   5.114  13.986 -1.4454  2.0275 -0.0757
15220TIP3   OH267150   3.563   5.491   3.383 -0.1136  0.0368 -0.6027
15220TIP3    H167151   3.533   5.513   3.471  0.3484 -1.5454 -0.0129
15220TIP3    H267152   3.652   5.525   3.378 -0.2684  0.4483 -0.5987
15221TIP3   OH267153   2.698   5.433   2.751 -0.1071  0.1518  0.0307
15221TIP3    H167154   2.667   5.367   2.812  0.2006  1.3086  1.4920
15221TIP3    H267155   2.780   5.398   2.717 -0.1655 -0.4090  0.4608
15222TIP3   OH267156   0.743   4.594  13.024  0.3458 -0.6642  0.5479
15222TIP3    H167157   0.836   4.611  13.009  0.0361  1.8135  0.9155
15222TIP3    H267158   0.718   4.656  13.093 -1.6603 -0.9612  0.1642
15223TIP3   OH267159   4.881   5.334   2.299  0.2976 -0.0633  0.0936
15223TIP3    H167160   4.924   5.316   2.216  0.0799  1.7605 -0.4525
15223TIP3    H267161   4.842   5.420   2.288 -0.6165 -0.2203  1.7452
15224TIP3   OH267162   5.929   3.080   0.731  0.2558  0.0253  0.1854
15224TIP3    H167163   5.990   3.133   0.679  0.1244  0.6661  0.6686
15224TIP3    H267164   5.982   3.010   0.767  0.6352  0.3734  0.3082
15225TIP3   OH267165   4.594   5.589  12.803  0.8688 -0.0478 -0.0124
15225TIP3    H167166   4.598   5.681  12.778  1.3384  0.8787  3.0321
15225TIP3    H267167   4.669   5.549  12.759  1.0982  1.1672 -0.7772
15226TIP3   OH267168   1.335   6.797  11.506  0.0998  0.1067 -0.5943
15226TIP3    H167169   1.376   6.798  11.592 -1.5804 -1.2965  0.2806
15226TIP3    H267170   1.382   6.729  11.457  0.0041 -0.2296 -0.2219
15227TIP3   OH267171   0.484   2.772   5.222  0.0507  0.1007  0.3155
15227TIP3    H167172   0.509   2.691   5.266 -0.3402  0.1207  0.5812
15227TIP3    H267173   0.421   2.746   5.155  0.5081  0.0930 -0.1132
15228TIP3   OH267174   4.326   6.021   1.507 -0.2767 -0.2133  0.8244
15228TIP3    H167175   4.244   6.045   1.550 -0.1567 -0.0991  0.9918
15228TIP3    H267176   4.380   5.984   1.576  0.0044  0.1870  0.8272
15229TIP3   OH267177   5.020   4.785   5.383  0.3740 -0.0033 -0.0691
15229TIP3    H167178   4.976   4.827   5.457 -2.4255  0.8913 -2.0793
15229TIP3    H267179   5.029   4.693   5.409  2.9376  0.9141  2.7935
15230TIP3   OH267180   3.944   1.356   1.115  0.0526  0.5450 -0.3528
15230TIP3    H167181   3.926   1.280   1.170  0.6191  1.6358  1.4070
15230TIP3    H267182   3.862   1.404   1.112  0.8577  2.4045  2.7330
15231TIP3   OH267183   3.514   0.233   4.583  0.0125  0.1120 -0.1552
15231TIP3    H167184   3.544   0.174   4.513 -1.6240 -1.3921  0.3187
15231TIP3    H267185   3.420   0.242   4.567 -0.1648  0.7776  1.1371
15232TIP3   OH267186   3.457   1.992   0.181  0.2374  0.2085 -0.6267
15232TIP3    H167187   3.385   2.027   0.233  2.4367  1.3282  1.9251
15232TIP3    H267188   3.464   1.901   0.209  2.2775  1.1332  2.4231
15233TIP3   OH267189   6.111   1.177   5.367  0.0250 -0.3589 -0.5929
15233TIP3    H167190   6.061   1.259   5.364  2.4248  1.2159 -0.5924
15233TIP3    H267191   6.045   1.109   5.376 -2.0319  1.7293  2.1882
15234TIP3   OH267192   2.393   0.163   2.778  0.2760  0.3900  0.2526
15234TIP3    H167193   2.464   0.152   2.715  1.2156 -0.0982  1.3561
15234TIP3    H267194   2.411   0.246   2.822 -1.8961  2.1667 -1.9297
15235TIP3   OH267195   4.560   6.107   3.985  0.5839  0.2736 -0.4507
15235TIP3    H167196   4.529   6.109   3.894  0.4128 -0.0714 -0.4039
15235TIP3    H267197   4.613   6.186   3.994  1.4643 -0.2177 -1.1597
15236TIP3   OH267198   1.494   5.806   0.128 -0.0280 -0.1076 -0.0078
15236TIP3    H167199   1.414   5.791   0.179 -0.4149  0.1554 -0.5175
15236TIP3    H267200   1.564   5.765   0.179 -0.8869 -2.9809 -0.9271
15237TIP3   OH267201   0.821   4.642   2.917 -0.2916  0.0180 -0.4635
15237TIP3    H167202   0.864   4.709   2.864 -0.2330  0.4690  0.1372
15237TIP3    H267203   0.881   4.627   2.990 -1.5761  1.4306  0.9672
15238TIP3   OH267204   0.866   4.325  14.505  0.3658 -0.3671 -0.1024
15238TIP3    H167205   0.821   4.242  14.522  2.7425 -1.6564  0.2323
15238TIP3    H267206   0.897   4.353  14.592 -2.1108  2.0191  0.1590
15239TIP3   OH267207   4.806   3.651   2.026  0.2476  0.4521 -0.0709
15239TIP3    H167208   4.816   3.681   1.935 -1.2158  1.7639  0.1473
15239TIP3    H267209   4.809   3.556   2.021 -0.3479  0.4884 -1.5830
15240TIP3   OH267210   3.393   3.402  16.625 -0.2004 -0.0200 -0.2137
15240TIP3    H167211   3.410   3.340  16.554 -0.0890  0.1921 -0.3753
15240TIP3    H267212   3.416   3.487  16.587 -1.0837  0.2101 -0.2484
15241TIP3   OH267213   2.065   4.062   0.429  0.3622 -0.1140  0.0125
15241TIP3    H167214   2.004   4.101   0.492  0.4490  0.9917 -0.5696
15241TIP3    H267215   2.146   4.049   0.480  0.3845  0.6279  0.1864
15242TIP3   OH267216   5.971   4.294  12.052  0.1792 -0.1462 -0.0866
15242TIP3    H167217   5.925   4.339  11.981 -0.2845 -0.0542  0.2698
15242TIP3    H267218   6.000   4.364  12.110 -0.8563 -0.3124  0.6587
15243TIP3   OH267219   5.581   5.430   6.457 -0.0972  0.0840 -0.0350
15243TIP3    H167220   5.626   5.368   6.515 -0.5893 -0.8771 -0.6550
15243TIP3    H267221   5.525   5.481   6.516 -1.2089 -1.4295  0.2935
15244TIP3   OH267222   3.535   3.310   3.050  0.1814  0.0082 -0.4231
15244TIP3    H167223   3.557   3.247   2.981 -0.1122 -1.5249  0.8336
15244TIP3    H267224   3.574   3.274   3.129  1.0311  2.0497  0.1521
15245TIP3   OH267225   0.773   5.009  12.393 -0.2659 -0.0596 -0.4106
15245TIP3    H167226   0.707   4.950  12.356 -0.7963  0.0309  0.3755
15245TIP3    H267227   0.828   5.033  12.318 -1.1743 -0.0682 -1.0938
15246TIP3   OH267228   0.526   0.774  12.750 -0.1679 -0.2503 -0.4466
15246TIP3    H167229   0.483   0.768  12.665  1.6500 -0.2943 -1.4126
15246TIP3    H267230   0.535   0.868  12.766 -2.5046 -0.1609  0.8260
15247TIP3   OH267231   6.578   1.872  16.251 -0.0327  0.1698 -0.3556
15247TIP3    H167232   6.637   1.798  16.263  0.9066  0.7200 -1.3697
15247TIP3    H267233   6.502   1.836  16.205 -1.0027 -0.7407  1.7950
15248TIP3   OH267234   2.721   5.467  12.991  0.6452  0.4783 -0.1285
15248TIP3    H167235   2.756   5.520  13.062 -1.8037  1.4611  0.4162
15248TIP3    H267236   2.762   5.502  12.912  1.2742  1.2156  0.5140
15249TIP3   OH267237   6.142   3.909  15.029  0.2455  0.8138  0.0357
15249TIP3    H167238   6.163   3.998  15.056  1.4979  1.3328 -2.4062
15249TIP3    H267239   6.132   3.914  14.934 -1.6223 -1.3105  0.0344
15250TIP3   OH267240   0.950   6.803   4.919 -0.2698 -0.3564  0.0367
15250TIP3    H167241   0.886   6.860   4.876 -1.6010 -0.8266  1.3283
15250TIP3    H267242   0.916   6.791   5.007  1.8703 -0.2223  0.9525
15251TIP3   OH267243   4.721   1.834  14.118  0.3074 -0.0397  0.4494
15251TIP3    H167244   4.781   1.895  14.076  0.8207  0.5672  1.9852
15251TIP3    H267245   4.652   1.890  14.154 -0.4428 -0.6046 -0.0809
15252TIP3   OH267246   3.551   1.259   4.489 -0.4466  0.3503 -0.0999
15252TIP3    H167247   3.593   1.327   4.542 -1.5355 -0.7305  2.2831
15252TIP3    H267248   3.476   1.303   4.449  0.1151  1.0601 -0.4178
15253TIP3   OH267249   5.668   4.706  13.782  0.1839 -0.4253  0.0735
15253TIP3    H167250   5.740   4.650  13.752  1.3723  1.5248 -0.9225
15253TIP3    H267251   5.677   4.709  13.877  0.3439 -1.5765  0.1020
15254TIP3   OH267252   4.695   5.161   3.491  0.4940 -0.6308  0.0706
15254TIP3    H167253   4.716   5.195   3.404  1.1015 -1.7717 -0.2538
15254TIP3    H267254   4.751   5.211   3.550  1.4913 -1.1303 -0.4128
15255TIP3   OH267255   4.341   1.884  13.935  0.4401 -0.0171 -0.2866
15255TIP3    H167256   4.382   1.845  13.858  2.6867  0.4512  0.5829
15255TIP3    H267257   4.371   1.829  14.008  2.0539  2.0511  0.7348
15256TIP3   OH267258   3.772   1.927  17.150  0.4469  0.4364 -0.9419
15256TIP3    H167259   3.710   1.890  17.212 -0.6587  0.4354 -2.0105
15256TIP3    H267260   3.794   2.013  17.185 -0.7808  0.7647 -0.9350
15257TIP3   OH267261   6.270   6.465   1.409 -0.5388 -0.3073 -0.0122
15257TIP3    H167262   6.200   6.469   1.344  0.5807  0.1142 -1.2413
15257TIP3    H267263   6.335   6.406   1.371  0.6115  0.7589  0.2172
15258TIP3   OH267264   2.533   5.380  11.151 -0.5750  0.6038 -0.4976
15258TIP3    H167265   2.525   5.412  11.062  0.5943  0.7990 -0.5476
15258TIP3    H267266   2.489   5.445  11.205  0.5368  1.5840 -0.7372
15259TIP3   OH267267   0.030   5.783   5.416 -0.4103 -0.2628 -0.1878
15259TIP3    H167268   0.023   5.877   5.431 -0.9935 -0.3529  0.1519
15259TIP3    H267269   0.122   5.768   5.396 -0.8004  0.8255 -3.3381
15260TIP3   OH267270   4.011   1.246   0.350 -0.3375 -0.2864  0.6665
15260TIP3    H167271   4.087   1.283   0.305 -0.2767 -1.7471 -0.4943
15260TIP3    H267272   4.034   1.249   0.443  1.6846 -1.8506  0.2602
15261TIP3   OH267273   0.524   4.819  14.972  0.3079 -0.4577  0.2137
15261TIP3    H167274   0.549   4.810  14.880  1.0157  0.8130  0.2673
15261TIP3    H267275   0.562   4.742  15.015 -1.1418 -1.7703 -0.7445
15262TIP3   OH267276   4.344   0.594   0.035 -1.0244 -0.0402  0.1263
15262TIP3    H167277   4.429   0.636   0.022 -0.1229 -2.2825 -2.3029
15262TIP3    H267278   4.280   0.661   0.013  0.3068  0.4198 -2.8451
15263TIP3   OH267279   3.672   5.734  10.928 -1.0152 -0.6709 -0.1239
15263TIP3    H167280   3.701   5.825  10.934 -0.7281 -0.8384  1.4453
15263TIP3    H267281   3.723   5.697  10.856  1.6514 -0.5558  1.5890
15264TIP3   OH267282   2.880   6.157  12.853  0.7004 -0.0445  0.0040
15264TIP3    H167283   2.962   6.181  12.896  0.5069 -1.6666  1.3566
15264TIP3    H267284   2.844   6.087  12.907 -0.3268 -1.1227 -1.9673
15265TIP3   OH267285   3.441   2.468   2.551 -0.0974  0.0644  0.4978
15265TIP3    H167286   3.497   2.391   2.549  1.0685  0.7560  2.6480
15265TIP3    H267287   3.386   2.456   2.628 -1.3273  0.4642 -0.2903
15266TIP3   OH267288   0.988   2.305  14.370 -0.1265  0.5743  0.5145
15266TIP3    H167289   1.018   2.231  14.422 -0.1454  0.2261  0.0280
15266TIP3    H267290   1.025   2.382  14.415  0.6509  0.2170  0.5030
15267TIP3   OH267291   2.480   0.941   2.071 -0.5281  0.0868  0.2401
15267TIP3    H167292   2.411   0.876   2.081 -0.5394  0.2611  1.5969
15267TIP3    H267293   2.499   0.969   2.161  1.0547  0.3039 -0.1331
15268TIP3   OH267294   1.927   0.505  10.327 -0.3038 -0.1502 -0.6367
15268TIP3    H167295   1.929   0.409  10.317  2.2608 -0.4014  1.3327
15268TIP3    H267296   1.835   0.528  10.314 -1.4781 -3.1917  1.2273
15269TIP3   OH267297   6.344   2.602  13.584  0.3604  0.1246  0.5503
15269TIP3    H167298   6.400   2.671  13.619 -0.7463  1.4118 -0.1533
15269TIP3    H267299   6.277   2.588  13.651  1.5126 -1.4816  1.4347
15270TIP3   OH267300   1.570   0.594  16.493  0.7321 -0.0659  0.2536
15270TIP3    H167301   1.638   0.657  16.468  1.4237  0.0294  2.1867
15270TIP3    H267302   1.615   0.531  16.549 -0.7620  0.0278  1.6350
15271TIP3   OH267303   1.037   4.135   4.298 -0.5430 -0.6245 -0.1367
15271TIP3    H167304   1.029   4.229   4.317  0.2621 -0.3498 -1.0949
15271TIP3    H267305   0.972   4.119   4.230 -1.7079 -1.0902  1.0517
15272TIP3   OH267306   0.137   2.885  13.659 -0.9723 -0.5249 -1.0228
15272TIP3    H167307   0.175   2.904  13.745 -0.8995  0.0728 -1.1817
15272TIP3    H267308   0.191   2.935  13.598 -1.6394 -0.1511 -1.3118
15273TIP3   OH267309   0.495   6.334   1.539 -0.4135 -0.2138 -0.7343
15273TIP3    H167310   0.461   6.297   1.620 -0.6922 -0.2396 -0.8614
15273TIP3    H267311   0.480   6.428   1.546  1.8654  0.1451  0.3499
15274TIP3   OH267312   3.275   4.107   5.379  0.0375  0.1549  0.3468
15274TIP3    H167313   3.289   4.178   5.441  1.3344  0.7645 -0.5856
15274TIP3    H267314   3.307   4.141   5.296 -0.1116 -1.2200 -0.3067
15275TIP3   OH267315   5.539   2.139  11.429  0.0554  0.4197 -0.1798
15275TIP3    H167316   5.546   2.050  11.463  2.0411  0.8385  0.6557
15275TIP3    H267317   5.448   2.164  11.446 -0.0700 -0.8151  1.2048
15276TIP3   OH267318   2.045   0.613   0.059  0.1510  0.0229 -0.3291
15276TIP3    H167319   2.023   0.595  -0.033  2.8184  2.6433 -1.6557
15276TIP3    H267320   2.110   0.547   0.082  0.1119 -0.1162 -0.6129
15277TIP3   OH267321   6.072   1.309   3.696  0.3334  1.0695  0.2246
15277TIP3    H167322   6.130   1.346   3.629  0.5949  0.7399  0.2683
15277TIP3    H267323   6.115   1.333   3.779  2.1710 -1.8686  0.2750
15278TIP3   OH267324   4.029   2.374  16.474  0.1092 -0.1252 -0.4199
15278TIP3    H167325   3.966   2.318  16.520 -0.6658 -1.2379 -2.7091
15278TIP3    H267326   3.991   2.461  16.479 -1.6689 -0.7720 -1.7168
15279TIP3   OH267327   3.994   0.843   3.032  0.3948  0.0935 -0.3253
15279TIP3    H167328   3.968   0.881   3.115 -0.7177  1.1418 -1.1088
15279TIP3    H267329   4.064   0.900   3.000  0.2888  0.1430 -0.4684
15280TIP3   OH267330   6.299   6.053  11.891 -0.1609  0.2171 -0.0557
15280TIP3    H167331   6.380   6.025  11.933 -0.7128 -0.0284  0.8592
15280TIP3    H267332   6.321   6.137  11.850  0.2729  0.6680  1.0770
15281TIP3   OH267333   3.378   2.325  11.911  0.0136  0.1452  0.2346
15281TIP3    H167334   3.408   2.235  11.926 -1.7384 -1.1045 -2.9184
15281TIP3    H267335   3.283   2.320  11.923 -0.2461  1.2573 -1.2376
15282TIP3   OH267336   2.691   5.790   2.998 -0.6320  0.9298  0.0375
15282TIP3    H167337   2.777   5.827   3.017  0.4556 -0.0169 -2.5949
15282TIP3    H267338   2.635   5.865   2.980  0.4355  1.4667 -1.1241
15283TIP3   OH267339   3.348   6.357  13.772 -0.5482  0.2958  0.4645
15283TIP3    H167340   3.346   6.294  13.700  0.7926 -0.4073  1.0050
15283TIP3    H267341   3.257   6.364  13.801 -0.7615 -1.2111  0.2254
15284TIP3   OH267342   5.073   5.977   5.795 -0.0538 -0.7846 -0.2939
15284TIP3    H167343   5.153   5.992   5.744  0.6081  3.4097  1.5493
15284TIP3    H267344   5.101   5.921   5.868  1.0580 -0.0107 -0.1028
15285TIP3   OH267345   4.398   6.735  15.814  0.4014  0.4169 -0.1942
15285TIP3    H167346   4.417   6.724  15.907  0.5199  0.8076 -0.1704
15285TIP3    H267347   4.304   6.752  15.810  0.0329 -1.3748 -0.3002
15286TIP3   OH267348   5.523   4.869   2.138 -0.1539 -0.9235  0.1328
15286TIP3    H167349   5.430   4.879   2.157 -0.2839  1.1461 -1.2101
15286TIP3    H267350   5.528   4.800   2.073 -0.9753  0.1064 -1.0574
15287TIP3   OH267351   0.127   6.161  16.871  0.4586 -0.4641 -0.4689
15287TIP3    H167352   0.202   6.192  16.820  0.4767 -1.9173 -1.3686
15287TIP3    H267353   0.082   6.100  16.813 -0.6978 -0.5965  0.5294
15288TIP3   OH267354   3.709   1.424  17.002 -0.4360 -0.0600  0.2931
15288TIP3    H167355   3.729   1.336  16.969 -0.3722  0.2021 -0.3962
15288TIP3    H267356   3.617   1.419  17.028 -0.6087 -0.1753 -0.3090
15289TIP3   OH267357   1.066   0.028  16.612 -0.3370 -0.2100 -0.3663
15289TIP3    H167358   1.056  -0.057  16.569  0.1762 -0.3188 -0.2716
15289TIP3    H267359   1.099   0.007  16.700 -1.3082  0.0121  0.0700
15290TIP3   OH267360   0.561   5.771  15.619 -0.2595  0.3268 -0.2726
15290TIP3    H167361   0.548   5.749  15.711  0.3067  0.3997 -0.1694
15290TIP3    H267362   0.654   5.752  15.603 -0.2724  0.6422 -0.7348
15291TIP3   OH267363   2.495   6.059  13.722  0.2755  0.0171 -0.4383
15291TIP3    H167364   2.418   6.114  13.736 -0.0923 -0.9485  1.6939
15291TIP3    H267365   2.500   6.048  13.627  1.3388  5.0491 -1.3101
15292TIP3   OH267366   6.823   4.667  11.193  0.1330  0.0734  0.1995
15292TIP3    H167367   6.795   4.642  11.281  1.5384 -3.2090 -0.1469
15292TIP3    H267368   6.909   4.709  11.206 -0.1853  0.6556  0.4555
15293TIP3   OH267369   4.772   6.651   3.388  0.5544 -0.1321 -0.5756
15293TIP3    H167370   4.742   6.631   3.299  2.0202  1.1169 -1.3950
15293TIP3    H267371   4.855   6.697   3.376  0.5094  0.5795  1.4308
15294TIP3   OH267372   6.803   5.225   0.644  0.1376  0.0263 -0.3014
15294TIP3    H167373   6.879   5.170   0.626  0.0690  0.2735 -1.4106
15294TIP3    H267374   6.728   5.167   0.633  0.0979  0.1632 -0.7623
15295TIP3   OH267375   0.324   4.469   3.860  0.0123 -0.5671 -0.0651
15295TIP3    H167376   0.353   4.378   3.854 -0.5939 -0.8660  1.1795
15295TIP3    H267377   0.244   4.465   3.913  1.0698  0.8886  1.7700
15296TIP3   OH267378   6.664   5.720   0.301  0.3357 -0.3185 -0.3207
15296TIP3    H167379   6.687   5.695   0.390  0.5352  0.6756 -0.0847
15296TIP3    H267380   6.638   5.812   0.307  0.5218 -0.1842 -1.3152
15297TIP3   OH267381   5.609   3.378  15.302 -0.0904  0.2453 -0.2646
15297TIP3    H167382   5.550   3.425  15.361  1.0727  0.4607  0.7560
15297TIP3    H267383   5.594   3.419  15.217 -2.7150 -0.9065 -0.4627
15298TIP3   OH267384   6.372   5.332   3.179  0.2435 -0.6136 -0.3404
15298TIP3    H167385   6.380   5.346   3.273 -2.4067  1.7230 -0.3406
15298TIP3    H267386   6.351   5.239   3.170  2.0963 -1.2404  1.1901
15299TIP3   OH267387   6.117   0.237  11.296  0.0078 -0.0430  0.3979
15299TIP3    H167388   6.044   0.239  11.235  0.3941 -2.5082 -0.2286
15299TIP3    H267389   6.157   0.324  11.289 -1.2720  0.4545 -1.1817
15300TIP3   OH267390   1.772   3.780   2.249 -0.3244 -0.0122 -0.6328
15300TIP3    H167391   1.798   3.738   2.167 -0.2689 -0.1016 -0.5698
15300TIP3    H267392   1.753   3.871   2.224 -0.7767 -0.1618 -0.8302
15301TIP3   OH267393   2.982   0.783  11.602  0.5164  0.1897  0.0581
15301TIP3    H167394   3.059   0.753  11.554 -0.1831 -1.2646 -0.1947
15301TIP3    H267395   2.908   0.739  11.560 -0.3808  0.8950  0.8434
15302TIP3   OH267396   5.408   0.163  11.787 -0.1842 -0.4610  0.4007
15302TIP3    H167397   5.332   0.196  11.739 -0.7614 -2.1695  0.0536
15302TIP3    H267398   5.428   0.230  11.852 -0.1226  1.3940 -1.4257
15303TIP3   OH267399   1.569   4.006  11.540 -0.9044 -0.5174 -0.2016
15303TIP3    H167400   1.613   3.952  11.474 -1.3097 -0.7500 -0.2874
15303TIP3    H267401   1.476   3.989  11.526 -1.0038 -0.3542  0.2546
15304TIP3   OH267402   3.398   0.901   5.101  0.2944  0.6124  0.0653
15304TIP3    H167403   3.378   0.916   5.193  2.2334  0.5017  0.5551
15304TIP3    H267404   3.428   0.810   5.097 -2.1886 -0.2664 -1.1830
15305TIP3   OH267405   6.307   5.560  16.982 -0.1742 -0.0423  0.2045
15305TIP3    H167406   6.387   5.529  16.939 -0.3114 -0.5721  0.3238
15305TIP3    H267407   6.323   5.543  17.075 -0.6684 -0.7249  0.1736
15306TIP3   OH267408   1.927   2.590   2.912  0.1407  0.3296  0.3020
15306TIP3    H167409   1.923   2.496   2.930  0.0064  0.3820  0.5502
15306TIP3    H267410   1.897   2.631   2.993  0.4089  0.5925  0.2679
15307TIP3   OH267411   1.706   0.367  16.987  0.0720 -0.0561  0.6037
15307TIP3    H167412   1.622   0.364  17.033 -1.0875 -0.2665 -1.4087
15307TIP3    H267413   1.744   0.281  17.002 -1.0482 -0.7040 -0.1459
15308TIP3   OH267414   2.538   2.040   3.836 -0.3610  0.3272  0.1658
15308TIP3    H167415   2.522   2.122   3.884 -1.0062 -0.3427  1.1232
15308TIP3    H267416   2.453   1.996   3.837 -0.4598  0.4072 -1.8422
15309TIP3   OH267417   4.979   0.473  14.212 -0.0564  0.2631 -0.0847
15309TIP3    H167418   4.959   0.396  14.161  0.3555  0.2638 -0.2567
15309TIP3    H267419   5.075   0.473  14.219 -0.1197  0.1070  0.9266
15310TIP3   OH267420   3.167   2.903   3.873 -0.0299 -0.4766  0.1275
15310TIP3    H167421   3.229   2.876   3.806  1.6021 -1.3932  1.9010
15310TIP3    H267422   3.135   2.988   3.844  0.6689 -0.7954 -1.7262
15311TIP3   OH267423   0.718   6.044  14.830  0.3172 -0.6710 -0.0327
15311TIP3    H167424   0.809   6.029  14.854 -0.1556 -0.8845  1.8497
15311TIP3    H267425   0.670   5.975  14.876 -0.7984 -0.6249 -1.0662
15312TIP3   OH267426   1.833   5.555   6.166  0.1610 -0.0340 -0.4797
15312TIP3    H167427   1.899   5.604   6.116  0.6620  1.2348  1.3078
15312TIP3    H267428   1.756   5.611   6.165 -0.5004 -0.9276 -1.4769
15313TIP3   OH267429   4.902   1.034  12.556  0.2335  0.0106 -0.0164
15313TIP3    H167430   4.826   0.991  12.518 -1.2674 -0.3617  3.1066
15313TIP3    H267431   4.868   1.115  12.595  1.7718  0.7064 -0.0041
15314TIP3   OH267432   4.192   4.697   3.694  0.4223 -0.3372  0.9110
15314TIP3    H167433   4.120   4.680   3.633  0.7272 -0.7922  0.6669
15314TIP3    H267434   4.270   4.666   3.647  0.7010 -0.3865  1.4057
15315TIP3   OH267435   0.065   0.621  14.353 -0.1765 -0.2045  0.8100
15315TIP3    H167436   0.135   0.642  14.414 -0.2053 -3.3534  2.1074
15315TIP3    H267437   0.107   0.569  14.284 -0.6640  0.8522 -0.3274
15316TIP3   OH267438   2.516   2.153  14.956 -0.3939  0.3845 -0.2833
15316TIP3    H167439   2.513   2.146  14.860 -1.2659  2.0898 -0.4225
15316TIP3    H267440   2.583   2.219  14.973 -0.8744  0.7579  0.2169
15317TIP3   OH267441   4.701   6.168  11.485  0.2713 -0.6062  0.4370
15317TIP3    H167442   4.727   6.171  11.393  1.5310  0.1558  0.8039
15317TIP3    H267443   4.712   6.076  11.510  0.8128 -0.6386  0.0760
15318TIP3   OH267444   3.520   4.393   3.911  0.2218 -0.6850 -0.6047
15318TIP3    H167445   3.516   4.477   3.864 -0.2396  0.6733  1.6997
15318TIP3    H267446   3.428   4.374   3.932  0.5054 -0.5143  0.8980
15319TIP3   OH267447   4.476   4.787  15.817 -0.0704 -0.2721 -0.7814
15319TIP3    H167448   4.463   4.877  15.847 -1.1705 -0.1810 -1.4599
15319TIP3    H267449   4.508   4.740  15.894  0.4800  0.6847 -0.4094
15320TIP3   OH267450   1.418   3.944  10.259  0.3155 -0.1082 -0.2626
15320TIP3    H167451   1.471   3.913  10.333  0.6947 -1.3497 -1.0206
15320TIP3    H267452   1.366   3.868  10.234 -2.3393  1.2131  0.8125
15321TIP3   OH267453   3.692   5.928  12.105 -0.3006  0.0413 -0.4434
15321TIP3    H167454   3.655   5.861  12.163 -1.9400  0.2353 -1.1970
15321TIP3    H267455   3.680   6.010  12.152  1.5739 -0.1277  0.4154
15322TIP3   OH267456   5.520   6.829  13.597  0.0877  0.7699  0.2752
15322TIP3    H167457   5.490   6.768  13.665 -0.0422 -0.1769 -0.5976
15322TIP3    H267458   5.439   6.865  13.561  0.0923  0.1428 -0.3706
15323TIP3   OH267459   5.943   1.741  14.990 -0.1602 -0.3913 -0.2741
15323TIP3    H167460   5.964   1.833  14.975 -0.8797 -0.3992 -1.4189
15323TIP3    H267461   5.936   1.733  15.085  1.3293  0.4102 -0.0730
15324TIP3   OH267462   4.569   1.187   1.731  0.0458  0.0191  0.3476
15324TIP3    H167463   4.654   1.150   1.707  0.0458  0.8693 -1.0631
15324TIP3    H267464   4.508   1.153   1.665 -0.2968  1.0762  0.1054
15325TIP3   OH267465   4.706   1.151   4.243 -0.3089  0.2162 -0.1085
15325TIP3    H167466   4.610   1.145   4.249 -0.2060 -0.3950  1.4853
15325TIP3    H267467   4.734   1.168   4.333  1.1675 -1.2230 -0.2513
15326TIP3   OH267468   3.385   1.529  15.323 -0.0227 -0.0263 -0.4286
15326TIP3    H167469   3.427   1.468  15.262 -2.1929 -2.9402  0.7721
15326TIP3    H267470   3.294   1.533  15.294 -1.1921 -1.7091  2.5934
15327TIP3   OH267471   5.226   4.115  15.085 -0.3307  0.0419 -0.2167
15327TIP3    H167472   5.190   4.162  15.010 -0.4343  0.8299  0.3134
15327TIP3    H267473   5.204   4.023  15.069 -0.5237  0.2282 -1.0480
15328TIP3   OH267474   0.465   3.802   0.719 -0.4196  0.2376 -0.2938
15328TIP3    H167475   0.479   3.719   0.766 -1.8841 -0.4633 -1.0357
15328TIP3    H267476   0.553   3.838   0.707  0.1869 -0.8652  0.6430
15329TIP3   OH267477   4.435   5.704  11.913  0.4790  0.1025 -0.0139
15329TIP3    H167478   4.365   5.746  11.962  1.7237 -0.6426  2.5880
15329TIP3    H267479   4.415   5.610  11.918  1.1148 -0.0460 -0.1537
15330TIP3   OH267480   6.322   2.224   5.279 -0.6632 -0.4695 -0.1232
15330TIP3    H167481   6.374   2.146   5.296  0.0718 -0.1378 -0.7450
15330TIP3    H267482   6.297   2.216   5.187 -0.3249  0.1565 -0.2798
15331TIP3   OH267483   5.994   3.586  12.406  0.7061  0.5122 -0.3571
15331TIP3    H167484   5.931   3.589  12.334 -0.1239  1.7157  0.3868
15331TIP3    H267485   6.044   3.505  12.392 -0.4950 -0.0667 -1.3851
15332TIP3   OH267486   1.307   5.578  16.080  0.1003 -0.1160  0.7191
15332TIP3    H167487   1.393   5.538  16.066 -0.4142 -1.2757  0.7108
15332TIP3    H267488   1.255   5.508  16.120 -1.2479  0.0939 -0.5830
15333TIP3   OH267489   1.109   6.345  13.228 -0.9038  0.1679 -0.6111
15333TIP3    H167490   1.170   6.286  13.185 -0.2434 -0.7897  1.5111
15333TIP3    H267491   1.101   6.419  13.168  1.4980 -0.1678 -1.4623
15334TIP3   OH267492   3.805   6.058  13.493 -0.2232 -0.3082  0.4215
15334TIP3    H167493   3.752   6.029  13.419 -2.5243 -1.3716  2.3670
15334TIP3    H267494   3.889   6.013  13.481 -1.4860 -2.6712 -0.1188
15335TIP3   OH267495   3.492   6.298  11.448 -0.3050  0.3945  0.6579
15335TIP3    H167496   3.534   6.354  11.513 -0.0525 -0.2392  1.0506
15335TIP3    H267497   3.401   6.290  11.479  0.0319 -0.6339  1.4492
15336TIP3   OH267498   4.867   4.703  14.589 -0.1048 -0.0355 -0.8555
15336TIP3    H167499   4.888   4.704  14.683 -0.7458 -1.5522 -0.6679
15336TIP3    H267500   4.951   4.689  14.546 -0.0449 -1.2742 -0.3764
15337TIP3   OH267501   6.473   3.236  12.311  0.0217 -0.3408 -0.0577
15337TIP3    H167502   6.545   3.250  12.373  1.1908 -0.5143 -1.3369
15337TIP3    H267503   6.448   3.324  12.282  0.1110 -0.3178 -0.0623
15338TIP3   OH267504   5.426   2.070  16.358 -0.1586  0.2299 -0.2713
15338TIP3    H167505   5.426   2.039  16.268  1.6773 -0.7285  0.0076
15338TIP3    H267506   5.382   2.001  16.408 -1.7062  1.0264 -0.4667
15339TIP3   OH267507   0.860   0.286   2.306 -0.0608  0.7710  0.2077
15339TIP3    H167508   0.899   0.365   2.343  3.1145 -1.3907  1.8335
15339TIP3    H267509   0.803   0.252   2.375 -0.0394  0.7001  0.1906
15340TIP3   OH267510   4.220   5.896   2.487 -0.4236  0.5750  0.2292
15340TIP3    H167511   4.291   5.957   2.470 -1.0440  1.5710  1.0816
15340TIP3    H267512   4.156   5.946   2.538 -1.6991 -0.3068 -0.4162
15341TIP3   OH267513   5.581   4.909  13.620 -0.3126  0.5729  0.2187
15341TIP3    H167514   5.597   4.838  13.683  1.0394  2.3235  1.9882
15341TIP3    H267515   5.546   4.980  13.674 -1.5832  1.3080 -1.5000
15342TIP3   OH267516   1.544   5.960   2.991  0.4281  0.7498  0.1419
15342TIP3    H167517   1.456   5.972   3.027  0.3496 -1.3216  0.8088
15342TIP3    H267518   1.595   6.032   3.028  0.0124 -0.4526  3.4316
15343TIP3   OH267519   0.319   4.711  14.380  0.3564  0.0745  0.3121
15343TIP3    H167520   0.280   4.647  14.440 -0.4882  0.1525 -0.1373
15343TIP3    H267521   0.377   4.660  14.324 -0.2113 -0.2827  0.0442
15344TIP3   OH267522   1.861   2.061   2.335 -0.3700  0.0155  0.0141
15344TIP3    H167523   1.810   2.029   2.261 -1.0887  0.7293  0.1929
15344TIP3    H267524   1.802   2.119   2.383  0.6463  1.0326  0.1058
15345TIP3   OH267525   5.910   2.919  14.848 -0.3098  0.0707  0.3204
15345TIP3    H167526   6.004   2.900  14.861  0.1758 -1.1347 -3.5309
15345TIP3    H267527   5.865   2.847  14.893  0.6975 -0.2561  0.8418
15346TIP3   OH267528   3.240   3.943  13.044  0.0024  0.5483 -0.2855
15346TIP3    H167529   3.327   3.904  13.036 -0.9390 -1.6582 -0.4737
15346TIP3    H267530   3.192   3.884  13.102 -1.4435  1.6105 -0.3446
15347TIP3   OH267531   0.507   1.642  13.969 -0.0550 -0.1594 -0.0314
15347TIP3    H167532   0.588   1.693  13.974 -0.6882  0.7671  1.5869
15347TIP3    H267533   0.507   1.589  14.048 -1.3002  0.3203  0.3188
15348TIP3   OH267534   0.372   2.781  13.062  0.3416 -0.2623  0.4621
15348TIP3    H167535   0.290   2.818  13.030  1.0575  0.4807 -0.5830
15348TIP3    H267536   0.438   2.816  13.003  1.2302 -2.0638  0.3293
15349TIP3   OH267537   0.809   1.111  13.320  0.8257  0.5718 -0.7395
15349TIP3    H167538   0.722   1.076  13.302  0.6437  0.2863  0.5960
15349TIP3    H267539   0.869   1.037  13.305  0.8147  0.6701 -1.3034
15350TIP3   OH267540   4.718   4.067   3.320 -0.2937 -0.0368  0.0632
15350TIP3    H167541   4.659   3.998   3.352 -2.5544 -0.0151 -3.4471
15350TIP3    H267542   4.709   4.138   3.384 -1.3644 -1.3970  1.4846
15351TIP3   OH267543   6.328   1.099  12.474  0.9592 -0.2340 -0.3106
15351TIP3    H167544   6.360   1.008  12.471  1.2659 -0.1174 -0.6362
15351TIP3    H267545   6.372   1.137  12.550  0.4956 -0.4760  0.0913
15352TIP3   OH267546   1.203   1.730  13.521  0.1629 -0.5522 -0.2214
15352TIP3    H167547   1.174   1.692  13.604  0.7834 -1.8471 -0.5689
15352TIP3    H267548   1.123   1.737  13.469  0.2730 -3.9072 -1.0976
15353TIP3   OH267549   2.228   3.579   1.485  0.0289 -0.5821 -0.1818
15353TIP3    H167550   2.161   3.532   1.535  0.6273  0.1987  1.4268
15353TIP3    H267551   2.298   3.514   1.473  0.5066 -0.3965  1.3233
15354TIP3   OH267552   1.814   5.116  12.670 -0.8353 -0.1922 -0.5135
15354TIP3    H167553   1.782   5.201  12.639  1.8974  1.2675  0.2902
15354TIP3    H267554   1.904   5.112  12.638 -0.0987 -1.6549  1.5328
15355TIP3   OH267555   5.344   1.471  16.556 -0.4803 -0.3287  0.1976
15355TIP3    H167556   5.415   1.453  16.494  0.1074 -2.4630  1.3740
15355TIP3    H267557   5.277   1.406  16.534 -0.0404 -1.4823  2.0503
15356TIP3   OH267558   2.122   4.622  15.363 -0.2652 -0.0750  0.1841
15356TIP3    H167559   2.108   4.571  15.283  0.5759 -0.4636  0.2654
15356TIP3    H267560   2.137   4.556  15.431  2.5134  0.2155 -0.0216
15357TIP3   OH267561   2.273   2.580  11.320  0.0822  0.0100  0.0447
15357TIP3    H167562   2.205   2.533  11.272  0.2095 -1.3704  1.1405
15357TIP3    H267563   2.308   2.515  11.381  1.4093  1.0922  0.4893
15358TIP3   OH267564   3.563   2.029  10.545  0.5582 -0.3055 -0.6881
15358TIP3    H167565   3.495   2.090  10.574  1.0388  0.3061 -0.8371
15358TIP3    H267566   3.609   2.076  10.475  1.8347 -0.2789  0.1428
15359TIP3   OH267567   1.316   1.222  10.591  1.0008  0.6655 -0.0403
15359TIP3    H167568   1.321   1.274  10.671 -1.3861 -0.9261  1.2540
15359TIP3    H267569   1.227   1.235  10.559  0.5111 -1.9961 -0.0160
15360TIP3   OH267570   2.230   1.805   2.745  0.1459 -0.4268 -0.4074
15360TIP3    H167571   2.143   1.805   2.785  0.2756 -3.2302  0.1337
15360TIP3    H267572   2.221   1.747   2.669  1.8097 -2.0533  0.5376
15361TIP3   OH267573   1.112   5.659   6.192 -0.0398 -0.6066 -0.3185
15361TIP3    H167574   1.072   5.726   6.249  1.1824 -0.8524  0.8767
15361TIP3    H267575   1.087   5.576   6.232 -3.9950 -1.1762 -3.3653
15362TIP3   OH267576   0.249   3.083  13.152  0.1868  0.1247  0.2690
15362TIP3    H167577   0.179   3.025  13.123  1.8252 -1.3611 -0.9429
15362TIP3    H267578   0.204   3.154  13.197 -2.0304 -1.1603  0.2377
15363TIP3   OH267579   2.879   1.704   3.286 -0.0081  0.2077 -0.1879
15363TIP3    H167580   2.968   1.678   3.310 -0.7031 -0.9895  1.2711
15363TIP3    H267581   2.844   1.744   3.366 -1.2093 -0.5781 -0.2951
15364TIP3   OH267582   1.886   1.077  17.197 -0.8302  0.2095  0.3953
15364TIP3    H167583   1.941   1.155  17.206 -0.1262 -0.0799 -1.1690
15364TIP3    H267584   1.859   1.057  17.287 -0.5649  1.9053  0.8990
15365TIP3   OH267585   2.951   1.281  16.684  0.5962 -0.0725  0.2040
15365TIP3    H167586   2.983   1.282  16.774 -2.1230 -1.5421  1.3057
15365TIP3    H267587   2.986   1.201  16.647  2.0279  0.7202 -0.2257
15366TIP3   OH267588   0.950   1.625  14.980 -0.2007 -0.0848 -0.0994
15366TIP3    H167589   0.938   1.544  15.029  2.1262  0.0111  0.7506
15366TIP3    H267590   0.965   1.597  14.890 -0.5088 -0.5081 -0.0237
15367TIP3   OH267591   3.732   6.681   4.096  0.6464  0.8124 -0.0145
15367TIP3    H167592   3.724   6.641   4.183  0.9162  0.4934 -0.1292
15367TIP3    H267593   3.692   6.617   4.037  1.9834  0.2268 -0.3201
15368TIP3   OH267594   5.214   6.166  13.222  0.1076  0.2539 -0.6919
15368TIP3    H167595   5.261   6.085  13.242 -0.3636  0.1281 -0.0552
15368TIP3    H267596   5.173   6.191  13.305  0.4224  1.2634 -0.8281
15369TIP3   OH267597   0.630   1.188   4.657 -0.0941  0.3826  0.2772
15369TIP3    H167598   0.551   1.172   4.709 -0.0023 -0.7565  0.0877
15369TIP3    H267599   0.641   1.283   4.658 -0.7702  0.4618  1.3401
15370TIP3   OH267600   3.242   4.140   0.217 -0.5610  0.4727  0.2706
15370TIP3    H167601   3.320   4.187   0.245 -0.6329  0.3082  0.7449
15370TIP3    H267602   3.174   4.208   0.211 -0.2689  0.7007 -0.6221
15371TIP3   OH267603   0.577   3.020   5.818 -0.0343  0.9907 -0.0347
15371TIP3    H167604   0.660   3.046   5.859 -0.5276  0.4114  1.3912
15371TIP3    H267605   0.602   2.987   5.732  1.0494  2.1899 -0.2035
15372TIP3   OH267606   4.702   1.819   1.494 -0.4304  0.0277  0.0027
15372TIP3    H167607   4.752   1.768   1.430  1.7939  1.9568  0.0735
15372TIP3    H267608   4.747   1.804   1.577 -1.5490 -0.2036  0.5763
15373TIP3   OH267609   3.072   1.760  16.739 -0.1485 -0.7357 -0.3885
15373TIP3    H167610   3.028   1.842  16.715 -1.6026 -0.4097  2.8362
15373TIP3    H267611   3.024   1.693  16.691 -3.1880 -0.1864  1.5648
15374TIP3   OH267612   6.689   5.531  13.382  0.3407  0.0270  0.0565
15374TIP3    H167613   6.671   5.535  13.288 -0.5345 -0.7514  0.1837
15374TIP3    H267614   6.609   5.563  13.423  2.1737  4.9987  0.5336
15375TIP3   OH267615   0.072   0.434  14.784 -0.3221 -0.3242 -0.0394
15375TIP3    H167616   0.072   0.458  14.691  0.0344 -1.4267 -0.3428
15375TIP3    H267617   0.029   0.348  14.786  0.2879 -0.6166  0.7263
15376TIP3   OH267618   1.133   3.780  14.583  0.0708 -0.0150 -0.0429
15376TIP3    H167619   1.192   3.782  14.657 -0.8430  1.0248  0.6829
15376TIP3    H267620   1.177   3.831  14.515  1.0198 -1.1782 -0.3327
15377TIP3   OH267621   4.960   5.717   0.615 -0.2496  0.6857  0.3109
15377TIP3    H167622   4.936   5.625   0.627 -1.7024  1.0449  0.4341
15377TIP3    H267623   5.055   5.718   0.615 -0.1568 -0.4379  3.1824
15378TIP3   OH267624   1.062   4.617  16.717 -0.1807  0.3325 -0.0313
15378TIP3    H167625   1.144   4.569  16.723 -0.2695  0.2918  1.1555
15378TIP3    H267626   1.068   4.666  16.634  0.4962 -0.6196 -0.5565
15379TIP3   OH267627   5.799   2.785  14.307 -0.3208  0.3295  0.1380
15379TIP3    H167628   5.776   2.731  14.382 -1.1341 -0.4858 -0.6683
15379TIP3    H267629   5.779   2.875  14.334 -3.2461 -0.1762 -0.0084
15380TIP3   OH267630   5.814   1.522  15.966 -0.2720  0.1056  0.3027
15380TIP3    H167631   5.852   1.560  16.045 -0.7146  1.5841 -0.1669
15380TIP3    H267632   5.789   1.433  15.992 -0.6905  0.6573  1.9209
15381TIP3   OH267633   5.661   5.706   0.436  0.0489  0.2311  1.0682
15381TIP3    H167634   5.702   5.792   0.425  1.7984 -0.6838 -0.2193
15381TIP3    H267635   5.735   5.646   0.447 -0.7969 -1.6144 -2.0083
15382TIP3   OH267636   0.863   1.569   3.068  0.2020 -0.1119  0.2424
15382TIP3    H167637   0.815   1.503   3.119  1.4026 -0.1950  1.3105
15382TIP3    H267638   0.818   1.651   3.087 -0.6451 -0.4377 -0.2549
15383TIP3   OH267639   3.525   2.251   2.962 -0.5760 -0.3439 -0.1123
15383TIP3    H167640   3.458   2.302   2.916  0.1757  0.2749 -0.5475
15383TIP3    H267641   3.483   2.225   3.045 -1.7830 -1.0455 -0.8946
15384TIP3   OH267642   3.766   4.105  15.922  0.4384  0.3120 -0.1367
15384TIP3    H167643   3.805   4.190  15.900  0.4289  0.3279 -0.0936
15384TIP3    H267644   3.722   4.121  16.006 -1.3297  0.8240 -1.1062
15385TIP3   OH267645   6.535   0.572   2.542 -0.1517 -0.0983  0.0589
15385TIP3    H167646   6.524   0.486   2.581 -0.0391 -0.7960 -1.3808
15385TIP3    H267647   6.464   0.625   2.579 -0.0793 -0.7371  1.1329
15386TIP3   OH267648   0.565   3.916  11.005  0.1603 -0.0918  0.4134
15386TIP3    H167649   0.500   3.845  11.004  2.4871 -2.3657  0.0751
15386TIP3    H267650   0.545   3.965  11.086 -1.5828 -1.0483  0.6121
15387TIP3   OH267651   6.237   6.570   0.546  0.0642 -0.0436 -0.0374
15387TIP3    H167652   6.245   6.476   0.563  2.5596  0.3315  1.2975
15387TIP3    H267653   6.212   6.608   0.630 -0.2065  0.5771 -0.3895
15388TIP3   OH267654   2.007   3.457   5.028 -0.1421  0.2224  0.6214
15388TIP3    H167655   2.097   3.434   5.004  0.2876  2.2236  0.1378
15388TIP3    H267656   2.016   3.536   5.081 -1.6845  1.2051 -0.5179
15389TIP3   OH267657   6.520   2.880   4.547  0.0276  0.7219  0.0784
15389TIP3    H167658   6.535   2.925   4.631 -0.8624  0.0800  0.5952
15389TIP3    H267659   6.555   2.792   4.561 -0.4281  0.5091 -0.1070
15390TIP3   OH267660   5.142   0.248  13.778 -0.2792 -0.6173  0.2323
15390TIP3    H167661   5.139   0.216  13.688 -1.3150  0.1913 -0.0439
15390TIP3    H267662   5.234   0.244  13.802 -0.2174 -2.5852 -0.2044
15391TIP3   OH267663   2.806   6.114   3.028 -0.3652  0.4245  0.1358
15391TIP3    H167664   2.827   6.200   3.064  0.6622 -0.3199  1.4095
15391TIP3    H267665   2.884   6.088   2.980  0.3797 -0.8667  1.9420
15392TIP3   OH267666   0.751   1.463   1.202 -0.3324 -0.2410 -0.0491
15392TIP3    H167667   0.773   1.529   1.268 -1.3741  0.6029 -0.5107
15392TIP3    H267668   0.678   1.501   1.154  0.1621 -0.9972 -1.4633
15393TIP3   OH267669   4.749   2.654  11.794 -0.6395 -0.2718  0.4891
15393TIP3    H167670   4.689   2.723  11.766 -1.2023 -1.2023 -0.7531
15393TIP3    H267671   4.777   2.679  11.882  0.4355  2.3383 -0.5152
15394TIP3   OH267672   3.972   3.316  13.410  0.4353 -0.7822 -0.2626
15394TIP3    H167673   3.895   3.263  13.388  1.6105 -2.6169 -0.2268
15394TIP3    H267674   4.036   3.252  13.443  2.1541  0.6009 -0.7742
15395TIP3   OH267675   5.904   5.667  11.318 -0.3159  0.5151 -0.0963
15395TIP3    H167676   5.870   5.650  11.406 -2.3925  1.1739 -0.7123
15395TIP3    H267677   5.887   5.760  11.303  1.4440  0.7912 -0.6510
15396TIP3   OH267678   4.703   3.333  15.048 -0.1535 -0.1211 -0.4806
15396TIP3    H167679   4.744   3.266  15.102 -2.2024  0.4796  2.0561
15396TIP3    H267680   4.695   3.293  14.961  1.2468 -2.0337  0.2112
15397TIP3   OH267681   4.360   6.164  12.408 -0.8443  0.2248 -0.2957
15397TIP3    H167682   4.392   6.252  12.428  1.6814 -0.6893  0.0667
15397TIP3    H267683   4.281   6.155  12.461 -0.7472  2.0134  0.2213
15398TIP3   OH267684   6.239   4.780   3.380 -0.3053 -0.2710  0.4770
15398TIP3    H167685   6.285   4.791   3.297 -0.7624 -1.0449  0.1175
15398TIP3    H267686   6.305   4.747   3.441 -0.7636 -3.2704 -0.5283
15399TIP3   OH267687   0.942   5.577   3.027  0.7607 -0.2069  0.0298
15399TIP3    H167688   0.917   5.488   3.049 -0.1312  0.3895  1.5794
15399TIP3    H267689   0.973   5.615   3.109 -0.0387  1.2560 -0.2998
15400TIP3   OH267690   2.627   6.782  15.453  0.2316  0.2318 -0.3253
15400TIP3    H167691   2.669   6.723  15.516 -0.2002 -0.0211 -0.2678
15400TIP3    H267692   2.664   6.758  15.368 -0.5386 -0.6788 -0.4136
15401TIP3   OH267693   3.463   6.767  10.744  0.5597  0.2150 -0.0735
15401TIP3    H167694   3.432   6.849  10.706  3.0077  1.9480  1.3365
15401TIP3    H267695   3.383   6.723  10.774 -1.0808  0.6228 -3.3926
15402TIP3   OH267696   2.853   6.572  11.992 -0.1166 -0.2144 -0.0451
15402TIP3    H167697   2.879   6.618  11.912  2.3477 -0.5128  0.5210
15402TIP3    H267698   2.923   6.510  12.009 -0.8596 -0.5682  2.0503
15403TIP3   OH267699   6.288   4.908  15.779 -0.3041 -0.2174  0.2183
15403TIP3    H167700   6.211   4.964  15.770 -0.7127 -0.8662 -0.3854
15403TIP3    H267701   6.261   4.839  15.840 -0.4794 -0.9050 -0.6218
15404TIP3   OH267702   6.812   1.057   4.218 -0.6122 -0.0914  0.8917
15404TIP3    H167703   6.817   0.961   4.213 -0.5790 -0.0752  0.5733
15404TIP3    H267704   6.868   1.087   4.146 -0.3978  0.1693  1.1675
15405TIP3   OH267705   3.130   1.398   3.147  0.1151  0.1785 -0.0865
15405TIP3    H167706   3.107   1.346   3.070  0.8703 -2.1232  1.1470
15405TIP3    H267707   3.074   1.475   3.141 -2.5039 -1.6569 -1.0447
15406TIP3   OH267708   3.977   6.092  13.794 -0.4483 -0.6585  0.0181
15406TIP3    H167709   3.933   6.161  13.745 -1.4911 -1.6505 -0.4900
15406TIP3    H267710   4.043   6.138  13.847 -0.5382  0.6174 -0.9314
15407TIP3   OH267711   3.005   4.073  13.947  0.0605 -0.1590  0.5248
15407TIP3    H167712   3.004   3.986  13.909 -1.0143 -0.4207  1.0998
15407TIP3    H267713   3.087   4.112  13.917  0.8258 -1.5668  0.7128
15408TIP3   OH267714   6.370   4.810  17.050 -0.3316  0.2133  0.6508
15408TIP3    H167715   6.359   4.871  16.977  1.0166 -1.1201 -0.7335
15408TIP3    H267716   6.398   4.865  17.123 -0.9515  1.4703 -0.0225
15409TIP3   OH267717   5.985   1.696   1.787  0.1033 -0.1332  0.5061
15409TIP3    H167718   5.939   1.613   1.775  0.6012 -0.5246  1.2153
15409TIP3    H267719   6.053   1.677   1.851  2.2185  0.0460 -1.5411
15410TIP3   OH267720   3.215   0.696   1.942  0.5686  0.5836 -0.2726
15410TIP3    H167721   3.149   0.757   1.911  0.4571  0.1438 -0.9141
15410TIP3    H267722   3.298   0.740   1.924  0.4549  1.3199  0.9244
15411TIP3   OH267723   5.206   1.634  11.287 -0.9595 -0.2524 -0.5030
15411TIP3    H167724   5.217   1.554  11.339 -0.7395  1.5196  2.4462
15411TIP3    H267725   5.288   1.643  11.239 -0.6308 -1.3472 -0.1877
15412TIP3   OH267726   3.220   6.618   4.612  0.0968  0.4452 -0.0823
15412TIP3    H167727   3.230   6.552   4.681 -0.3068  0.3983 -0.0673
15412TIP3    H267728   3.127   6.639   4.612  0.2703  1.2540  0.1288
15413TIP3   OH267729   4.725   3.162   5.186 -0.3545 -0.6874 -0.4332
15413TIP3    H167730   4.653   3.220   5.209 -0.1828 -1.3181  1.9837
15413TIP3    H267731   4.699   3.122   5.103 -1.4917  1.1150 -0.9952
15414TIP3   OH267732   3.690   6.081   2.552 -0.6080 -0.2641  0.0480
15414TIP3    H167733   3.671   6.042   2.467 -0.6686 -0.3832  0.1162
15414TIP3    H267734   3.662   6.015   2.615 -0.6726 -0.1270  0.1623
15415TIP3   OH267735   5.686   3.125   2.664 -0.6931 -0.1765 -0.8412
15415TIP3    H167736   5.669   3.099   2.755  2.2494 -0.7293 -0.3252
15415TIP3    H267737   5.605   3.166   2.635 -1.8356 -0.2236  1.9431
15416TIP3   OH267738   5.617   4.624  15.292 -0.4214 -0.3326  0.0834
15416TIP3    H167739   5.642   4.680  15.219 -0.5661  0.5376  0.6959
15416TIP3    H267740   5.650   4.669  15.370  1.8184 -2.3726  0.4464
15417TIP3   OH267741   6.675   1.772  15.323  0.9232 -0.8539 -0.3998
15417TIP3    H167742   6.759   1.815  15.306  0.3014 -0.4237 -2.6393
15417TIP3    H267743   6.683   1.686  15.282  0.8784 -1.5324  0.9589
15418TIP3   OH267744   2.356   2.822   1.155  0.2352 -0.3725 -0.2982
15418TIP3    H167745   2.305   2.757   1.202 -2.0095  2.9548  2.4051
15418TIP3    H267746   2.306   2.904   1.166  3.2418  2.0271 -2.6271
15419TIP3   OH267747   2.314   1.538  15.608 -0.1893  0.2188 -0.0414
15419TIP3    H167748   2.265   1.534  15.690 -1.5152 -1.1467 -0.8590
15419TIP3    H267749   2.346   1.449  15.594  1.5555  0.8236 -0.1372
15420TIP3   OH267750   6.371   4.715   6.740 -0.5846 -0.2111 -0.4714
15420TIP3    H167751   6.437   4.659   6.780 -1.0990 -0.2363  0.3527
15420TIP3    H267752   6.394   4.716   6.647  0.9187  0.2474 -0.1215
15421TIP3   OH267753   4.832   4.696  15.741  0.3793 -0.1236  0.0977
15421TIP3    H167754   4.764   4.713  15.675  1.0151  0.8381 -0.3414
15421TIP3    H267755   4.806   4.614  15.782 -1.3009  0.4339  0.2522
15422TIP3   OH267756   0.259   4.398   0.441 -0.3956  0.1542 -0.5578
15422TIP3    H167757   0.208   4.438   0.511  1.6538  0.6180  0.7830
15422TIP3    H267758   0.239   4.304   0.448 -0.6093  0.2525  0.3650
15423TIP3   OH267759   0.191   2.404  14.141 -0.2016 -0.0240  0.0070
15423TIP3    H167760   0.213   2.321  14.182 -1.8362  0.4097  1.8917
15423TIP3    H267761   0.200   2.469  14.211  1.7933  1.5733 -1.5849
15424TIP3   OH267762   3.469   2.566  14.170 -0.0918 -0.1819 -0.2572
15424TIP3    H167763   3.374   2.575  14.181 -0.5471 -1.6013 -2.3262
15424TIP3    H267764   3.498   2.651  14.138 -0.8026  0.0628 -0.2708
15425TIP3   OH267765   1.827   4.265  15.516 -0.0241 -0.3469 -0.3602
15425TIP3    H167766   1.923   4.268  15.521 -0.0972  0.1272  1.3473
15425TIP3    H267767   1.803   4.183  15.560 -0.4186 -0.6952 -1.1771
15426TIP3   OH267768   6.670   6.338  11.941 -0.1219  0.6234 -0.0628
15426TIP3    H167769   6.672   6.260  11.886 -0.0375  1.4083 -1.2138
15426TIP3    H267770   6.762   6.365  11.948  0.0989 -0.4794  2.0015
15427TIP3   OH267771   0.131   4.301  12.157 -0.6561 -0.3748 -0.4100
15427TIP3    H167772   0.153   4.245  12.082 -0.0749  1.1027 -1.3788
15427TIP3    H267773   0.206   4.359  12.167 -1.7964  1.1504 -0.3235
15428TIP3   OH267774   5.474   2.915   3.316  0.0303  0.0051 -0.3669
15428TIP3    H167775   5.439   3.003   3.331  1.0205  0.3919 -0.2795
15428TIP3    H267776   5.525   2.922   3.236 -1.7013 -1.0462 -1.6573
15429TIP3   OH267777   0.231   2.744  12.755 -0.5475 -0.2552  0.9354
15429TIP3    H167778   0.195   2.664  12.718  0.9752 -0.4975 -0.1382
15429TIP3    H267779   0.325   2.738  12.738 -0.2863  1.3655  1.5887
15430TIP3   OH267780   6.649   5.163  16.209  0.8859 -0.3341 -0.5951
15430TIP3    H167781   6.711   5.200  16.272  1.6414 -0.5253 -1.2126
15430TIP3    H267782   6.630   5.075  16.244 -0.7022  0.4760  0.7276
15431TIP3   OH267783   6.350   0.180   1.257  0.1527  0.4870  0.4459
15431TIP3    H167784   6.426   0.184   1.199  1.8764  2.4238  2.6507
15431TIP3    H267785   6.280   0.224   1.208  1.4717  1.8609 -0.3020
15432TIP3   OH267786   3.966   1.989  10.364 -0.1853  0.1782 -0.0104
15432TIP3    H167787   4.057   1.964  10.382  0.0125 -0.0010 -1.1910
15432TIP3    H267788   3.948   1.954  10.277 -0.1521  3.3412 -1.4266
15433TIP3   OH267789   4.242   2.915  12.684 -0.4077 -0.3016 -0.3432
15433TIP3    H167790   4.305   2.844  12.690  1.0685  1.0517  1.3117
15433TIP3    H267791   4.253   2.950  12.595 -0.6667 -1.6476 -0.9272
15434TIP3   OH267792   2.258   1.190  14.863 -0.1353  0.0412  0.3330
15434TIP3    H167793   2.271   1.220  14.953 -1.0103 -0.7194  0.7241
15434TIP3    H267794   2.190   1.122  14.869 -0.5458  0.2996 -0.9498
15435TIP3   OH267795   2.343   2.934   2.566 -0.0645  0.5627  0.3465
15435TIP3    H167796   2.261   2.927   2.615 -0.0454 -0.0436  0.3041
15435TIP3    H267797   2.399   2.867   2.605  0.4324  1.0098  0.4082
15436TIP3   OH267798   1.684   6.545  15.061 -0.0041  0.0264  0.2381
15436TIP3    H167799   1.694   6.450  15.054 -1.1993 -0.2453  1.6541
15436TIP3    H267800   1.687   6.562  15.155  1.3406  1.5523 -0.0412
15437TIP3   OH267801   5.086   0.258  12.653 -0.2247 -0.0594 -0.2593
15437TIP3    H167802   5.105   0.196  12.582 -0.6579  1.9673 -2.2815
15437TIP3    H267803   5.128   0.339  12.625 -2.8962  1.6459  0.2977
15438TIP3   OH267804   1.353   2.712   1.816 -0.2537 -0.4109 -0.4780
15438TIP3    H167805   1.266   2.695   1.779 -0.4433  0.2021 -0.3321
15438TIP3    H267806   1.385   2.626   1.843 -2.6315 -0.3095  3.4496
15439TIP3   OH267807   4.542   6.496  14.520 -0.1186  0.6521  0.2610
15439TIP3    H167808   4.522   6.450  14.602 -0.4837  0.6810  0.1909
15439TIP3    H267809   4.525   6.588  14.540 -2.0513  0.4793 -0.3751
15440TIP3   OH267810   0.860   0.605   6.378  0.5553  0.2287  0.5010
15440TIP3    H167811   0.862   0.539   6.447 -2.8031 -1.5669 -0.8533
15440TIP3    H267812   0.792   0.667   6.407  1.6408  1.5056  0.4044
15441TIP3   OH267813   4.007   0.436   5.524 -0.2316  0.3616 -0.2129
15441TIP3    H167814   4.074   0.504   5.535 -0.3708  0.6339 -0.9862
15441TIP3    H267815   3.999   0.425   5.429  0.5006 -1.4573 -0.0997
15442TIP3   OH267816   6.215   3.656  14.563  0.1968  0.2643 -0.1312
15442TIP3    H167817   6.172   3.638  14.647 -0.0896  2.8412  0.3824
15442TIP3    H267818   6.143   3.677  14.504  0.5059  0.2978 -0.4943
15443TIP3   OH267819   1.667   3.452   5.337 -0.0678  0.0914  0.0570
15443TIP3    H167820   1.647   3.403   5.416  0.0593 -1.5854 -0.9027
15443TIP3    H267821   1.729   3.519   5.365  0.0071 -0.4919  1.3603
15444TIP3   OH267822   1.470   1.415   5.332 -0.2211 -0.4762 -0.1847
15444TIP3    H167823   1.395   1.369   5.292 -2.0995  1.4328  0.9315
15444TIP3    H267824   1.503   1.353   5.397 -3.3818 -0.0471  2.0622
15445TIP3   OH267825   4.606   0.431   2.506 -0.0783 -0.2070 -0.3873
15445TIP3    H167826   4.683   0.422   2.450  0.2124  1.8754 -0.4010
15445TIP3    H267827   4.641   0.442   2.594 -0.2511  1.5882 -0.4969
15446TIP3   OH267828   0.117   1.200   4.403 -0.1405  0.1288 -0.5662
15446TIP3    H167829   0.088   1.286   4.431 -1.4723 -0.6370  0.4982
15446TIP3    H267830   0.053   1.173   4.337  0.4857  0.0749 -1.1786
15447TIP3   OH267831   0.837   2.721   4.153 -0.6884  0.2616 -0.0913
15447TIP3    H167832   0.870   2.777   4.083  1.2618 -0.7877 -0.0629
15447TIP3    H267833   0.915   2.688   4.197 -1.7203 -2.5285 -0.1491
15448TIP3   OH267834   3.124   2.480   2.394 -0.3142  0.0464  0.2585
15448TIP3    H167835   3.038   2.439   2.399 -0.1979 -0.0662  1.5518
15448TIP3    H267836   3.164   2.464   2.479 -0.1702  2.6371  0.7782
15449TIP3   OH267837   3.215   1.904  12.780 -0.1774  0.4682  0.2641
15449TIP3    H167838   3.305   1.931  12.761  0.8780 -3.2922 -0.9361
15449TIP3    H267839   3.165   1.933  12.704  1.6407 -3.6692 -2.8896
15450TIP3   OH267840   5.360   5.646   5.392  0.3497 -0.8543  0.1029
15450TIP3    H167841   5.380   5.562   5.350  0.0759 -2.0077  2.1696
15450TIP3    H267842   5.421   5.650   5.465 -0.4221  0.2215  0.6959
15451TIP3   OH267843   2.249   0.812   0.515  0.3717 -0.2927 -0.9511
15451TIP3    H167844   2.322   0.756   0.489  0.6868 -1.0055  1.2994
15451TIP3    H267845   2.179   0.789   0.454  0.7897 -2.5168 -0.6740
15452TIP3   OH267846   4.381   6.671  14.267  0.3881 -0.5883  0.2394
15452TIP3    H167847   4.295   6.637  14.241  0.1488 -0.2033  0.5112
15452TIP3    H267848   4.370   6.698  14.358  1.1118 -1.5674  0.6289
15453TIP3   OH267849   6.707   1.105  14.822  0.2016 -0.2671  0.4809
15453TIP3    H167850   6.627   1.154  14.801 -0.2940 -0.7034  1.2796
15453TIP3    H267851   6.769   1.172  14.852 -0.6239 -0.1497  2.0102
15454TIP3   OH267852   5.948   5.591   2.039  0.1988 -0.1795 -0.4578
15454TIP3    H167853   5.968   5.498   2.030  3.4865  0.1264  1.9332
15454TIP3    H267854   5.886   5.596   2.112  1.5768 -0.4509  0.7760
15455TIP3   OH267855   2.797   5.774  11.765 -0.6674  0.4698 -0.0197
15455TIP3    H167856   2.814   5.779  11.859  0.3163 -0.0154 -0.1510
15455TIP3    H267857   2.795   5.680  11.746 -0.0619  0.5616 -0.5967
15456TIP3   OH267858   4.563   0.823   0.034  0.2960 -0.5154  0.3314
15456TIP3    H167859   4.539   0.899  -0.020  1.2660 -0.9784 -0.7790
15456TIP3    H267860   4.626   0.858   0.097  0.6833 -0.3819 -0.1263
15457TIP3   OH267861   1.639   0.830  13.791  0.3864  0.1336 -0.4289
15457TIP3    H167862   1.544   0.829  13.778  0.1551  0.2349  1.0680
15457TIP3    H267863   1.673   0.875  13.714 -0.6354 -1.2526 -1.7430
15458TIP3   OH267864   1.604   2.172   3.721  0.1614 -0.2720 -0.0372
15458TIP3    H167865   1.594   2.267   3.734  1.7009 -0.1935  0.8805
15458TIP3    H267866   1.600   2.161   3.626 -2.7973  0.3118 -0.0612
15459TIP3   OH267867   3.534   0.006   3.036  0.0585  0.3408  0.4825
15459TIP3    H167868   3.615   0.040   3.073 -0.0267  1.0361  0.0453
15459TIP3    H267869   3.562  -0.052   2.966  0.2040 -0.4805  1.2057
15460TIP3   OH267870   0.299   3.077   2.625  0.4022  0.2223 -0.0308
15460TIP3    H167871   0.277   3.037   2.709 -0.3663  0.6701 -0.0064
15460TIP3    H267872   0.335   3.163   2.648 -0.3804  0.5964 -0.1726
15461TIP3   OH267873   1.635   6.399  12.086  0.0343 -0.2462 -0.1418
15461TIP3    H167874   1.671   6.429  12.169  1.8317  1.6510 -1.5290
15461TIP3    H267875   1.584   6.321  12.110  0.2644  0.3513  2.7409
15462TIP3   OH267876   4.189   0.004  12.804  0.3262  0.5876  1.6054
15462TIP3    H167877   4.203  -0.032  12.717 -1.5834 -2.3724  2.3861
15462TIP3    H267878   4.164   0.096  12.788 -1.7035 -0.2992 -1.1414
15463TIP3   OH267879   6.743   1.271   5.866  0.2308 -0.1082  0.7321
15463TIP3    H167880   6.747   1.330   5.790  1.2011  0.2874  1.0707
15463TIP3    H267881   6.736   1.331   5.941 -1.6603 -0.5093  0.9315
15464TIP3   OH267882   5.516   3.105  15.555  0.2223 -0.1913  0.0980
15464TIP3    H167883   5.521   3.111  15.459 -0.0162  0.5620  0.1258
15464TIP3    H267884   5.434   3.058  15.572  0.3924 -0.5500 -0.0740
15465TIP3   OH267885   6.445   1.448  11.941  0.5062 -0.2638 -0.3036
15465TIP3    H167886   6.369   1.477  11.891  0.3925  0.1937  0.1290
15465TIP3    H267887   6.434   1.353  11.947 -0.7140 -0.0897  0.8293
15466TIP3   OH267888   3.259   3.725   1.114 -0.0554  0.0971  0.0017
15466TIP3    H167889   3.198   3.723   1.188  0.7508  1.4210  0.7562
15466TIP3    H267890   3.301   3.638   1.116 -0.4785 -0.1036  0.7359
15467TIP3   OH267891   5.368   0.247  15.411  0.2280 -0.1017 -0.7272
15467TIP3    H167892   5.288   0.204  15.439  0.4979  0.4316  1.0044
15467TIP3    H267893   5.340   0.330  15.374 -0.1236 -0.6899 -1.8066
15468TIP3   OH267894   4.656   5.058   2.694  0.2687  0.0540  0.0537
15468TIP3    H167895   4.626   5.005   2.767 -1.0266  1.4475  0.5831
15468TIP3    H267896   4.578   5.075   2.641  0.7923  0.7672 -0.5261
15469TIP3   OH267897   4.450   1.616   4.726 -0.5130 -0.7579  0.2497
15469TIP3    H167898   4.466   1.639   4.634  0.4060 -0.0362  0.5771
15469TIP3    H267899   4.391   1.684   4.758 -0.1754 -0.5361  0.4090
15470TIP3   OH267900   1.883   0.160  15.284 -0.4732  0.3710  0.2160
15470TIP3    H167901   1.909   0.248  15.257 -0.5376  0.4160  0.2985
15470TIP3    H267902   1.805   0.141  15.231 -0.5719  0.4405  0.3343
15471TIP3   OH267903   4.976   0.713   6.038  0.9899  0.2484 -0.2064
15471TIP3    H167904   4.958   0.798   6.078  1.6408 -0.8074  2.4977
15471TIP3    H267905   5.072   0.711   6.028  1.1750 -0.8093  1.4223
15472TIP3   OH267906   6.681   2.462  12.919  0.2516 -0.1157  0.1007
15472TIP3    H167907   6.671   2.388  12.860 -2.2530  0.1043  0.1328
15472TIP3    H267908   6.687   2.538  12.861  0.5137 -0.1438  0.0916
15473TIP3   OH267909   4.326   3.156  15.806  0.6192  0.2937  0.0481
15473TIP3    H167910   4.322   3.063  15.828 -0.3892  0.5584  1.0395
15473TIP3    H267911   4.354   3.198  15.887 -0.5662  1.0162  0.1036
15474TIP3   OH267912   0.729   1.816   0.967  0.3155  0.6195 -0.7870
15474TIP3    H167913   0.736   1.790   0.875  0.7728  1.9101 -1.1470
15474TIP3    H267914   0.670   1.752   1.006 -1.3704  1.0963 -2.4118
15475TIP3   OH267915   2.287   6.692  11.076 -0.0391 -0.1505 -0.4596
15475TIP3    H167916   2.239   6.774  11.067 -2.8979 -1.8638 -1.9860
15475TIP3    H267917   2.260   6.657  11.161 -0.9517 -0.7610 -0.9912
15476TIP3   OH267918   2.772   2.079  15.911  0.3477 -0.4458 -0.0136
15476TIP3    H167919   2.697   2.105  15.858 -0.2681  0.8173  1.3983
15476TIP3    H267920   2.739   2.008  15.966  0.1518  0.1433  0.6430
15477TIP3   OH267921   5.304   3.722   6.096  0.5230 -0.0491  0.3770
15477TIP3    H167922   5.322   3.645   6.150 -0.5732 -2.1226 -2.0277
15477TIP3    H267923   5.341   3.702   6.011 -1.1445  1.4096 -0.7777
15478TIP3   OH267924   0.547   0.570  12.387  0.3187  0.3590 -1.0127
15478TIP3    H167925   0.635   0.545  12.414  0.2144 -0.6319 -1.5485
15478TIP3    H267926   0.499   0.487  12.381 -1.2117  0.9961  1.1185
15479TIP3   OH267927   6.094   2.638  16.727  0.3838  0.0448  0.5349
15479TIP3    H167928   6.048   2.577  16.784  1.2834  0.3125  1.5737
15479TIP3    H267929   6.045   2.720  16.735 -0.5026 -0.3717 -0.4371
15480TIP3   OH267930   3.735   5.799   3.049  0.2020  0.4461  0.2104
15480TIP3    H167931   3.706   5.868   2.990  0.7072 -0.2472 -0.8697
15480TIP3    H267932   3.756   5.725   2.992 -0.1188 -0.5370  1.3222
15481TIP3   OH267933   0.155   3.368   0.794  0.1247  0.7022  0.4167
15481TIP3    H167934   0.152   3.366   0.890  0.3457  1.4987  0.4521
15481TIP3    H267935   0.069   3.401   0.768 -0.1440 -0.0735  0.3116
15482TIP3   OH267936   4.998   6.039   6.202  0.5052  0.0143 -0.6428
15482TIP3    H167937   4.968   6.011   6.116  0.0778 -0.9291 -0.1995
15482TIP3    H267938   5.001   5.958   6.254 -3.9508  1.0192  1.6945
15483TIP3   OH267939   5.495   1.220   1.874 -0.3728 -0.0937 -0.6793
15483TIP3    H167940   5.412   1.181   1.901 -0.5771 -0.0426 -1.2166
15483TIP3    H267941   5.560   1.182   1.933 -1.0203  1.3532  1.0534
15484TIP3   OH267942   2.639   1.296  15.871 -0.3235  0.6348 -0.0385
15484TIP3    H167943   2.607   1.238  15.802  3.1216 -0.9231 -0.5203
15484TIP3    H267944   2.692   1.361  15.825  1.6611 -0.1582  1.0194
15485TIP3   OH267945   2.405   3.582  13.967  0.1816  0.2809  0.4582
15485TIP3    H167946   2.325   3.566  13.917  0.0270  3.2997 -0.4808
15485TIP3    H267947   2.384   3.658  14.022  1.5419 -0.6203  2.3445
15486TIP3   OH267948   4.979   4.105  13.941 -0.0356 -0.1393  0.3635
15486TIP3    H167949   4.974   4.201  13.938  3.2586  0.1735 -3.2593
15486TIP3    H267950   4.993   4.080  13.849  0.9359 -3.9552  1.4038
15487TIP3   OH267951   2.982   1.015  11.778  0.0335  0.3279 -0.1186
15487TIP3    H167952   2.941   0.935  11.812 -0.9483  0.0815 -1.7390
15487TIP3    H267953   3.043   0.983  11.711  0.1279  0.9019 -0.3060
15488TIP3   OH267954   0.257   5.770   6.195  0.0015  0.3157  0.2101
15488TIP3    H167955   0.295   5.844   6.242  1.0216 -1.1472  1.8133
15488TIP3    H267956   0.163   5.779   6.209  0.1748  0.8444  1.1189
15489TIP3   OH267957   2.476   0.295  15.299 -0.0721 -0.6193 -0.0525
15489TIP3    H167958   2.494   0.266  15.388 -0.3585 -0.3809  0.0871
15489TIP3    H267959   2.413   0.367  15.310 -0.4517 -0.8825 -0.4696
15490TIP3   OH267960   4.417   1.376  14.010 -0.1893  0.5747 -0.0586
15490TIP3    H167961   4.335   1.425  14.009  0.0619  1.0593  0.9957
15490TIP3    H267962   4.403   1.303  13.949 -1.6489  0.2559  0.6034
15491TIP3   OH267963   5.118   1.866  10.245 -0.3251 -0.2467 -0.3497
15491TIP3    H167964   5.153   1.799  10.304  0.3685  0.5776  0.2009
15491TIP3    H267965   5.173   1.943  10.261 -2.1489  0.9964  0.2403
15492TIP3   OH267966   3.244   3.039   2.608 -0.3726  0.3498  0.5397
15492TIP3    H167967   3.212   3.077   2.526  0.9441  0.5182  0.0846
15492TIP3    H267968   3.273   3.115   2.660  0.2937  0.1308  0.4948
15493TIP3   OH267969   1.980   6.007  12.445 -0.2808 -0.3243 -0.0415
15493TIP3    H167970   1.889   5.977  12.442 -0.6389  0.7667 -0.3604
15493TIP3    H267971   1.990   6.061  12.368  0.9296 -1.1855 -0.5218
15494TIP3   OH267972   3.569   2.414  13.301  0.2251 -1.0741  0.3710
15494TIP3    H167973   3.625   2.365  13.361  0.1993 -3.5077 -1.4451
15494TIP3    H267974   3.568   2.362  13.221 -1.9184  0.6379 -0.8299
15495TIP3   OH267975   6.285   3.108   3.601 -0.4489 -1.0027  0.9086
15495TIP3    H167976   6.351   3.161   3.645 -0.5125  1.3950 -1.6368
15495TIP3    H267977   6.322   3.090   3.515 -2.3541 -1.1388  0.0634
15496TIP3   OH267978   5.414   3.192  12.440  0.1286 -0.3033 -0.3989
15496TIP3    H167979   5.386   3.116  12.492 -0.7379 -0.4814 -1.0949
15496TIP3    H267980   5.332   3.233  12.413  0.5937  0.8022 -0.1573
15497TIP3   OH267981   0.476   5.789  12.704  0.5055  0.8151 -0.7169
15497TIP3    H167982   0.428   5.843  12.767  0.0059  0.3341 -0.6771
15497TIP3    H267983   0.408   5.749  12.650  0.8321 -0.1118 -0.4634
15498TIP3   OH267984   6.775   2.045  13.450 -0.5305 -0.5201 -0.1491
15498TIP3    H167985   6.798   2.131  13.412 -0.5737  0.1130  1.2065
15498TIP3    H267986   6.839   1.985  13.411  1.2372  0.6067  0.8876
15499TIP3   OH267987   3.677   3.387  14.874  0.1613 -0.5374 -0.6355
15499TIP3    H167988   3.739   3.318  14.851  1.0866 -0.1159  0.5329
15499TIP3    H267989   3.685   3.397  14.969 -0.6044  0.5656 -0.6604
15500TIP3   OH267990   0.264   2.334  14.640  0.0229  0.1508 -0.2667
15500TIP3    H167991   0.344   2.367  14.681 -1.1049  0.8945  1.4628
15500TIP3    H267992   0.285   2.245  14.613  0.7664 -0.5399  2.3553
15501TIP3   OH267993   1.906   1.931  11.374 -0.2518 -0.1921  0.6244
15501TIP3    H167994   1.980   1.975  11.332 -2.3008  2.3481 -0.6430
15501TIP3    H267995   1.943   1.850  11.409  3.4857  1.7211  1.6544
15502TIP3   OH267996   2.247   0.719   2.872  0.1358  0.3504  0.0115
15502TIP3    H167997   2.258   0.643   2.929 -0.6427  0.4983  0.3686
15502TIP3    H267998   2.337   0.746   2.850  0.4218 -0.3624  0.2816
15503TIP3   OH267999   3.956   2.430   3.696  0.6738  0.0831  0.4260
15503TIP3    H168000   3.961   2.435   3.791 -0.7512 -1.1361  0.6062
15503TIP3    H268001   4.044   2.450   3.665  1.2918 -0.0920  2.0294
15504TIP3   OH268002   6.337   5.065  11.272  0.6174 -0.0745  0.9349
15504TIP3    H168003   6.383   5.118  11.206 -2.2445  0.6577 -0.6400
15504TIP3    H268004   6.364   4.975  11.252  1.5985  0.3428  0.2783
15505TIP3   OH268005   6.554   3.040  11.731 -0.3644  0.0915  0.6815
15505TIP3    H168006   6.459   3.026  11.732 -0.3680 -0.0570 -0.5775
15505TIP3    H268007   6.569   3.103  11.802 -1.4813  0.6253  0.4755
15506TIP3   OH268008   2.996   5.974   5.747  0.2994  0.2425 -0.4481
15506TIP3    H168009   3.030   5.938   5.828 -0.4530 -0.3853 -0.3928
15506TIP3    H268010   3.027   5.914   5.679 -1.4015 -0.9060 -0.3003
15507TIP3   OH268011   6.707   1.689  13.577 -0.0108 -0.1112  0.1257
15507TIP3    H168012   6.735   1.700  13.486 -0.9581  0.2772 -0.1292
15507TIP3    H268013   6.763   1.619  13.611  0.6518  0.0422 -0.6198
15508TIP3   OH268014   4.917   6.557  11.723 -0.8261  0.3266  0.0084
15508TIP3    H168015   4.921   6.554  11.818  0.0209  0.7279 -0.0037
15508TIP3    H268016   4.836   6.605  11.703  0.4193  2.8234  0.5894
15509TIP3   OH268017   4.210   2.027  16.314  0.4105  0.4923  0.1126
15509TIP3    H168018   4.171   2.068  16.391  0.6179 -2.0814  1.6936
15509TIP3    H268019   4.302   2.050  16.318  0.2399  1.2149  0.0282
15510TIP3   OH268020   6.155   1.337   3.967  0.5394  0.3053 -0.0120
15510TIP3    H168021   6.133   1.429   3.978 -0.8278  0.1891 -1.4362
15510TIP3    H268022   6.075   1.290   3.991  1.6319 -0.6389  2.0357
15511TIP3   OH268023   2.706   1.266   3.653  0.9561  0.3102  0.0761
15511TIP3    H168024   2.724   1.320   3.576  2.2751  1.3711  1.0726
15511TIP3    H268025   2.781   1.281   3.711 -0.2358 -0.0257  1.7956
15512TIP3   OH268026   6.643   6.383  16.637  0.0825  0.0081  0.2137
15512TIP3    H168027   6.571   6.322  16.651  1.8779 -2.5459 -0.8921
15512TIP3    H268028   6.695   6.378  16.717  0.9579 -1.0559 -0.3865
15513TIP3   OH268029   4.120   4.656  13.207 -0.5079  0.5100  0.2132
15513TIP3    H168030   4.030   4.689  13.215 -0.6025  0.1928  0.5066
15513TIP3    H268031   4.116   4.568  13.244 -0.6997 -0.6205 -2.3209
15514TIP3   OH268032   3.052   3.660   2.238 -0.6464  0.0895 -0.5341
15514TIP3    H168033   3.052   3.716   2.315 -2.4917  2.2634 -1.9913
15514TIP3    H268034   2.963   3.667   2.203 -0.1124 -1.5090 -2.3987
15515TIP3   OH268035   0.800   3.636   4.910 -0.8600  0.1180  0.1464
15515TIP3    H168036   0.865   3.568   4.889  0.2314  0.9953  0.5983
15515TIP3    H268037   0.807   3.647   5.005 -2.4171 -0.4904  0.3661
15516TIP3   OH268038   2.678   6.594   3.740  0.6539 -0.1658  0.1540
15516TIP3    H168039   2.669   6.503   3.768 -0.5832 -0.1214 -0.0405
15516TIP3    H268040   2.684   6.589   3.644 -1.3787  0.0378 -0.0318
15517TIP3   OH268041   5.912   0.270   3.149 -0.2780 -0.0587 -0.4338
15517TIP3    H168042   5.873   0.299   3.066  1.1008  0.3449 -0.9689
15517TIP3    H268043   5.838   0.266   3.210 -1.1665  0.5639 -1.4309
15518TIP3   OH268044   0.153   0.941  14.725  0.5022 -0.6042  0.0679
15518TIP3    H168045   0.211   0.909  14.793  1.7768 -1.0013 -1.1773
15518TIP3    H268046   0.090   0.870  14.710  1.1122 -1.0998 -0.1695
15519TIP3   OH268047   4.191   2.375   1.144  0.3383  0.2855 -0.2062
15519TIP3    H168048   4.202   2.319   1.220  0.0174 -0.0172 -0.3781
15519TIP3    H268049   4.135   2.446   1.174 -0.1315 -0.0535 -0.2623
15520TIP3   OH268050   2.455   2.075  16.766  0.6984 -0.8210 -0.2843
15520TIP3    H168051   2.395   2.149  16.757 -0.8847 -2.2020 -1.7857
15520TIP3    H268052   2.534   2.103  16.720  0.3645  0.1760 -0.2824
15521TIP3   OH268053   0.617   0.895  13.337  0.0608  0.4320 -0.1769
15521TIP3    H168054   0.672   0.829  13.379 -0.1011  0.7487  0.5418
15521TIP3    H268055   0.529   0.858  13.337 -0.0540  0.6863  0.3422
15522TIP3   OH268056   3.294   1.573   0.368 -0.0789 -0.3976  0.2817
15522TIP3    H168057   3.318   1.586   0.459  0.0406  2.1565 -0.0325
15522TIP3    H268058   3.204   1.604   0.362  0.4768  1.2048 -0.7419
15523TIP3   OH268059   1.176   0.663  12.706  0.0090 -0.2621  0.1275
15523TIP3    H168060   1.113   0.608  12.751 -0.0774  1.4755  2.3066
15523TIP3    H268061   1.135   0.683  12.621 -1.6257 -0.4723  0.8387
15524TIP3   OH268062   4.550   4.456   0.989 -0.1722 -0.2119  0.2548
15524TIP3    H168063   4.526   4.484   1.078 -2.5732 -2.1193  0.2896
15524TIP3    H268064   4.560   4.361   0.995 -1.4410 -0.5189 -1.7235
15525TIP3   OH268065   0.409   5.086  16.494 -0.1217 -0.3014 -0.6627
15525TIP3    H168066   0.469   5.094  16.567 -1.4640  0.5060  0.4068
15525TIP3    H268067   0.349   5.015  16.519 -0.1490 -0.5162 -1.3127
15526TIP3   OH268068   5.625   6.525  13.037 -0.5380  0.0617 -0.4851
15526TIP3    H168069   5.544   6.543  13.086 -1.3696 -0.2661 -1.7029
15526TIP3    H268070   5.596   6.480  12.958  0.9579 -1.2343 -0.3433
15527TIP3   OH268071   0.402   2.597  13.678  0.3221  0.4531 -0.6742
15527TIP3    H168072   0.416   2.522  13.619 -0.8199  0.2064 -0.6663
15527TIP3    H268073   0.410   2.674  13.622 -2.9108  0.1724 -1.7314
15528TIP3   OH268074   6.074   1.272  10.899 -0.1784  0.4968  0.3269
15528TIP3    H168075   5.992   1.296  10.944 -0.6273 -0.5235  0.0659
15528TIP3    H268076   6.075   1.327  10.821 -1.9541 -1.3035 -1.0607
15529TIP3   OH268077   2.502   5.215  10.669  0.2560 -0.3370 -0.2840
15529TIP3    H168078   2.409   5.225  10.648  0.5578  1.0595 -1.0885
15529TIP3    H268079   2.547   5.223  10.585  1.0188 -3.3970 -0.2708
15530TIP3   OH268080   3.067   2.228  11.322  0.2535 -0.3763  0.2130
15530TIP3    H168081   3.070   2.221  11.417  0.0504  0.5898  0.3014
15530TIP3    H268082   3.115   2.151  11.290 -0.2882 -1.0899  1.0752
15531TIP3   OH268083   0.771   5.422   4.077 -0.5242  0.0097  0.0908
15531TIP3    H168084   0.857   5.380   4.074  0.9998  2.9254 -1.4726
15531TIP3    H268085   0.751   5.443   3.986 -1.5496  1.8656  0.6935
15532TIP3   OH268086   3.049   6.809   0.277  0.2233  0.1441 -0.2861
15532TIP3    H168087   3.003   6.892   0.281  0.8073  0.4429  0.3238
15532TIP3    H268088   2.996   6.756   0.216 -1.8433 -0.0957  1.5752
15533TIP3   OH268089   4.200   2.549   3.678  0.5218  0.2764  0.2160
15533TIP3    H168090   4.260   2.623   3.686  0.2899  0.4166  0.7139
15533TIP3    H268091   4.255   2.476   3.650  0.8327  0.5308  0.1686
15534TIP3   OH268092   4.899   0.313  11.812 -0.0254 -0.1798  0.3615
15534TIP3    H168093   4.817   0.313  11.763 -0.1170  0.1497  0.5085
15534TIP3    H268094   4.917   0.221  11.829  0.1239 -0.3067 -0.4759
15535TIP3   OH268095   2.322   4.557  15.811 -0.5234  0.3544  0.5801
15535TIP3    H168096   2.337   4.599  15.896 -2.5095  0.6423  0.8391
15535TIP3    H268097   2.245   4.502  15.825  0.2534 -1.1009 -0.5556
15536TIP3   OH268098   2.424   2.584   2.433  0.0646  0.1885 -0.1472
15536TIP3    H168099   2.340   2.607   2.393  1.0168  1.6966 -1.3840
15536TIP3    H268100   2.443   2.496   2.401 -0.5828  0.2160 -0.6242
15537TIP3   OH268101   0.426   5.880  13.546  0.9348  0.4709  0.6666
15537TIP3    H168102   0.470   5.861  13.463  1.4655  4.2234 -0.0809
15537TIP3    H268103   0.449   5.971  13.565 -1.5912  0.6772  3.4372
15538TIP3   OH268104   0.576   1.557   0.034 -0.2064  0.2006  0.4348
15538TIP3    H168105   0.615   1.607  -0.037 -0.4607  1.1931  0.9854
15538TIP3    H268106   0.636   1.484   0.047 -0.8728 -0.8179 -1.7306
15539TIP3   OH268107   1.985   0.368   6.798  0.0664 -0.0306  0.1771
15539TIP3    H168108   1.987   0.309   6.722  0.0210 -0.7475  0.7255
15539TIP3    H268109   2.075   0.369   6.829 -0.4282 -2.0677  1.8640
15540TIP3   OH268110   2.528   6.221  12.332 -0.0080  0.4458 -0.9275
15540TIP3    H168111   2.489   6.155  12.389 -0.5782  1.9786  0.5417
15540TIP3    H268112   2.455   6.278  12.308  0.7050  1.3244 -1.0389
15541TIP3   OH268113   4.825   0.257   6.636 -0.3430  0.3158 -0.1256
15541TIP3    H168114   4.869   0.321   6.692 -2.1456  0.7125  0.9415
15541TIP3    H268115   4.733   0.281   6.641 -1.0179 -1.9953 -0.1761
15542TIP3   OH268116   0.535   6.232  12.047  0.1841  0.3878  0.8330
15542TIP3    H168117   0.493   6.318  12.060 -0.7345 -0.2497  2.3000
15542TIP3    H268118   0.627   6.253  12.030 -0.1492  1.6833  0.4631
15543TIP3   OH268119   6.813   4.481   2.390  0.5093  0.1513 -0.0907
15543TIP3    H168120   6.741   4.542   2.374  0.4433  0.3239  0.8062
15543TIP3    H268121   6.770   4.403   2.425  0.8076  0.5589  1.2454
15544TIP3   OH268122   2.990   1.232   3.931 -0.4942 -0.6968 -0.1589
15544TIP3    H168123   3.020   1.215   4.020  0.8349 -0.7752 -0.6022
15544TIP3    H268124   3.054   1.188   3.875 -0.2580  0.8644 -1.1910
15545TIP3   OH268125   3.806   0.190  15.014  0.5755 -0.0464 -0.1746
15545TIP3    H168126   3.727   0.136  15.020  1.4962 -1.4016  0.1383
15545TIP3    H268127   3.817   0.206  14.920  1.4361 -2.2250 -0.5101
15546TIP3   OH268128   1.136   3.679   2.250  0.5110 -0.0788 -0.0855
15546TIP3    H168129   1.045   3.689   2.223  0.1782 -0.6125  0.8195
15546TIP3    H268130   1.147   3.586   2.266  0.9815  0.0905  0.6309
15547TIP3   OH268131   2.038   0.261  13.851  0.5678 -0.5349  0.0630
15547TIP3    H168132   2.090   0.328  13.807 -2.7222  1.7545 -0.7547
15547TIP3    H268133   2.102   0.205  13.894  3.6439  1.6561 -1.2919
15548TIP3   OH268134   4.825   1.428   1.993  0.1195  0.0556  0.1094
15548TIP3    H168135   4.885   1.386   2.055 -0.2679 -0.9607 -0.1939
15548TIP3    H268136   4.769   1.483   2.047 -0.1823 -0.7824  0.6598
15549TIP3   OH268137   5.782   0.659   2.406 -0.2447  0.3076  0.2865
15549TIP3    H168138   5.833   0.674   2.326 -0.3749  0.1025  0.1652
15549TIP3    H268139   5.848   0.641   2.473 -0.2125 -2.7819 -0.4492
15550TIP3   OH268140   6.196   5.613  15.280 -0.0430 -0.9269  0.2846
15550TIP3    H168141   6.143   5.689  15.255  0.0967 -1.1525 -0.7103
15550TIP3    H268142   6.138   5.538  15.268  0.5703 -1.2059 -1.0987
15551TIP3   OH268143   3.220   3.786  15.202 -0.5655  0.0190  0.2968
15551TIP3    H168144   3.190   3.744  15.283  1.0936 -1.4842  0.1965
15551TIP3    H268145   3.218   3.880  15.221 -1.7836 -0.2173  1.4896
15552TIP3   OH268146   2.903   2.049   2.720 -0.4672 -0.2737  0.4581
15552TIP3    H168147   2.927   2.039   2.627  1.0774 -0.0232  0.7967
15552TIP3    H268148   2.847   1.974   2.738  0.3973 -1.1468 -0.3247
15553TIP3   OH268149   0.029   1.825   2.859 -0.2898  0.1768 -0.1314
15553TIP3    H168150   0.081   1.898   2.827 -0.5997  0.0256 -0.9950
15553TIP3    H268151   0.074   1.747   2.827  0.6717 -0.0970  1.7131
15554TIP3   OH268152   1.919   1.614  11.614  0.4427 -0.3915  0.4409
15554TIP3    H168153   1.900   1.566  11.695 -0.7051  0.4775  0.7254
15554TIP3    H268154   1.944   1.701  11.644  1.3117 -0.4529 -0.1018
15555TIP3   OH268155   3.013   6.659  12.913 -0.5756 -0.2522  0.0520
15555TIP3    H168156   2.968   6.585  12.953  2.2441 -1.8876  0.4732
15555TIP3    H268157   3.097   6.623  12.882  0.8016  2.6739 -0.0123
15556TIP3   OH268158   5.165   6.811   4.300  0.3575  0.0738 -0.3376
15556TIP3    H168159   5.125   6.884   4.346  1.3423  1.1451 -1.1400
15556TIP3    H268160   5.097   6.743   4.300 -0.4225  0.8135  0.7721
15557TIP3   OH268161   5.100   1.185  12.013 -0.2679  0.6416 -0.1068
15557TIP3    H168162   5.174   1.192  12.074 -1.2501 -1.1725  1.4391
15557TIP3    H268163   5.025   1.215  12.064 -0.9192  0.3184 -0.8617
15558TIP3   OH268164   3.385   6.704  11.945 -0.6821 -0.1972  0.1711
15558TIP3    H168165   3.394   6.783  11.998 -1.4233  0.2926 -0.4137
15558TIP3    H268166   3.474   6.668  11.940 -0.7420 -0.8375  2.6021
15559TIP3   OH268167   5.329   0.742  11.457  0.1847 -0.3413  0.2156
15559TIP3    H168168   5.339   0.818  11.514  0.6502 -1.2188  1.3240
15559TIP3    H268169   5.253   0.695  11.492  1.2805 -1.5957  0.9609
15560TIP3   OH268170   3.399   1.071  10.912 -0.0711 -0.0379 -0.1787
15560TIP3    H168171   3.472   1.093  10.970  0.7500  0.6941 -1.4418
15560TIP3    H268172   3.349   1.152  10.903  0.4866  0.1920 -1.4082
15561TIP3   OH268173   5.961   1.047   0.409 -0.3343 -0.0066  0.2879
15561TIP3    H168174   5.894   1.052   0.477  0.6430 -1.0027  1.3602
15561TIP3    H268175   6.038   1.087   0.448  0.4340 -1.1792  0.0095
15562TIP3   OH268176   5.133   2.957  13.148 -0.0277 -0.0741 -0.3262
15562TIP3    H168177   5.060   2.953  13.210  0.1154  2.5927  0.1536
15562TIP3    H268178   5.157   3.050  13.145  2.9003 -0.7379 -1.0151
15563TIP3   OH268179   3.265   0.606   6.696  0.0012  0.1401  0.1932
15563TIP3    H168180   3.188   0.565   6.735 -1.7843  2.9896 -0.0550
15563TIP3    H268181   3.261   0.582   6.603  0.9905 -1.8792  0.6185
15564TIP3   OH268182   6.434   3.004  13.391 -0.8841 -0.7527 -0.4404
15564TIP3    H168183   6.494   3.078  13.390 -2.3096  0.4894 -2.7873
15564TIP3    H268184   6.476   2.938  13.336 -1.0757 -0.4016 -1.0085
15565TIP3   OH268185   0.881   0.050   4.601  0.0457 -0.0942  0.6949
15565TIP3    H168186   0.836   0.125   4.641 -1.2777 -0.3108 -0.3133
15565TIP3    H268187   0.827  -0.025   4.625  0.5101 -0.5202  0.4158
15566TIP3   OH268188   0.852   3.417  13.748  0.2447  0.7154 -0.4256
15566TIP3    H168189   0.879   3.390  13.836 -0.2355 -0.3429 -0.5928
15566TIP3    H268190   0.809   3.501  13.761 -0.6036  0.1631  0.4891
15567TIP3   OH268191   6.431   5.297  13.374  0.0613  0.4153 -0.2338
15567TIP3    H168192   6.452   5.350  13.450  0.0920  1.1967 -0.7817
15567TIP3    H268193   6.384   5.356  13.315  1.2775  0.2321 -1.4381
15568TIP3   OH268194   6.150   4.425  11.626  0.5256  0.2106  0.1081
15568TIP3    H168195   6.138   4.456  11.536  1.0468 -0.3545 -0.1637
15568TIP3    H268196   6.198   4.343  11.617 -1.2586 -0.9547  0.7886
15569TIP3   OH268197   3.111   4.177  14.660  0.5494  0.4053 -0.0091
15569TIP3    H168198   3.098   4.147  14.750 -0.3720  1.0261  0.0732
15569TIP3    H268199   3.139   4.268  14.668 -0.7442  0.8505 -0.3737
15570TIP3   OH268200   0.956   0.886  16.875  0.2994 -0.3022 -0.1561
15570TIP3    H168201   0.975   0.962  16.821  0.4961 -1.0481 -1.1663
15570TIP3    H268202   1.041   0.861  16.913  0.1892  0.1241  0.3891
15571TIP3   OH268203   4.199   6.697  14.003 -0.3117 -0.0032  0.3200
15571TIP3    H168204   4.176   6.785  14.032 -2.3591 -0.1210 -0.7834
15571TIP3    H268205   4.279   6.709  13.951 -0.0375  1.0427  0.9609
15572TIP3   OH268206   1.724   2.574   0.651  0.0722 -0.6703  0.7015
15572TIP3    H168207   1.772   2.549   0.730  0.7375 -0.8207  0.2615
15572TIP3    H268208   1.768   2.653   0.620  0.0195 -0.7877  0.3154
15573TIP3   OH268209   3.242   2.599   0.803  0.2206  0.2304 -0.1506
15573TIP3    H168210   3.179   2.530   0.779 -1.6189  1.3043  1.3049
15573TIP3    H268211   3.277   2.572   0.888  1.2239  0.0047 -0.6188
15574TIP3   OH268212   1.149   2.854  15.897  0.6204  0.4844  0.7159
15574TIP3    H168213   1.120   2.769  15.864  1.8746  0.7654 -1.3153
15574TIP3    H268214   1.070   2.893  15.935 -0.6163 -0.5210 -0.6937
15575TIP3   OH268215   6.291   4.359   0.116  0.0048  0.2004 -0.5557
15575TIP3    H168216   6.214   4.358   0.059 -0.6924  1.0154  0.3451
15575TIP3    H268217   6.312   4.452   0.126 -0.4044  0.1372  1.1689
15576TIP3   OH268218   3.387   2.248  16.404  0.6340  0.0555  0.2435
15576TIP3    H168219   3.406   2.220  16.493 -0.7875 -2.5076 -0.1685
15576TIP3    H268220   3.293   2.270  16.405  1.1790  2.7725 -0.0392
15577TIP3   OH268221   6.438   4.568  16.672  0.3171  0.8778  0.1897
15577TIP3    H168222   6.456   4.484  16.716  2.1055  0.4794 -1.2019
15577TIP3    H268223   6.343   4.569  16.662  0.1383 -0.3651  1.4073
15578TIP3   OH268224   5.573   1.522  15.705 -0.4841  0.2737  0.1969
15578TIP3    H168225   5.627   1.449  15.676 -0.1073  0.3036  0.8155
15578TIP3    H268226   5.621   1.600  15.677  1.0487  0.3810  2.7744
15579TIP3   OH268227   4.770   2.735   6.005  0.3416  0.2210  0.2637
15579TIP3    H168228   4.849   2.717   5.954 -0.9350 -1.9547 -1.0732
15579TIP3    H268229   4.778   2.680   6.082  1.0439  1.5597  1.1876
15580TIP3   OH268230   3.117   0.010  15.840  0.7578  0.3052  0.1128
15580TIP3    H168231   3.050   0.067  15.803 -1.4400 -0.4021  2.6933
15580TIP3    H268232   3.199   0.057  15.826 -0.4175  1.9443 -1.7854
15581TIP3   OH268233   4.188   0.286  15.092 -0.8310 -0.1011 -0.3060
15581TIP3    H168234   4.231   0.371  15.107  1.6919 -1.5615  1.6392
15581TIP3    H268235   4.163   0.288  15.000  1.4579  1.8146 -1.0046
15582TIP3   OH268236   4.480   1.060  15.191  0.1064 -0.1998 -0.1708
15582TIP3    H168237   4.465   0.969  15.167  1.3333 -0.8254  1.2915
15582TIP3    H268238   4.569   1.061  15.225  0.6204  1.8263 -1.4301
15583TIP3   OH268239   6.433   5.900   3.574 -0.4189 -0.2397  0.0289
15583TIP3    H168240   6.368   5.833   3.596 -0.7826  0.5239  1.3215
15583TIP3    H268241   6.516   5.865   3.608 -0.8421  0.5653  1.9834
15584TIP3   OH268242   4.274   0.851   0.535  0.3902  0.7019 -0.2154
15584TIP3    H168243   4.299   0.832   0.445 -0.0580 -0.8293 -0.0475
15584TIP3    H268244   4.353   0.889   0.574  1.0023  0.1723 -0.9081
15585TIP3   OH268245   2.467   3.041   1.898  0.1721 -0.0772 -0.6549
15585TIP3    H168246   2.519   2.972   1.856 -1.1328 -0.5775 -1.5280
15585TIP3    H268247   2.423   2.997   1.970  0.1182  0.0772 -0.5930
15586TIP3   OH268248   1.437   5.542  12.813  0.2117  0.1531  0.4622
15586TIP3    H168249   1.472   5.592  12.740  0.3478  0.2472  0.5890
15586TIP3    H268250   1.444   5.450  12.786  0.0551  0.1985  0.2713
15587TIP3   OH268251   1.148   2.749   2.032  0.1103 -0.0397 -0.4636
15587TIP3    H168252   1.180   2.797   2.109 -0.3518  1.6908 -1.2940
15587TIP3    H268253   1.226   2.707   1.996  0.2821 -1.1432  1.0957
15588TIP3   OH268254   1.308   5.567  13.755 -0.0471 -0.1842  0.3437
15588TIP3    H168255   1.343   5.502  13.694  0.7490  0.4444  0.1128
15588TIP3    H268256   1.380   5.627  13.771 -0.0121 -0.7023  2.4661
15589TIP3   OH268257   1.859   2.441  17.060  0.2651 -1.0045  0.0860
15589TIP3    H168258   1.814   2.376  17.113 -0.4230 -0.9029 -0.3587
15589TIP3    H268259   1.921   2.483  17.120 -0.1570 -1.2221  0.6844
15590TIP3   OH268260   0.181   0.235   0.943  0.2080 -0.3975 -0.6929
15590TIP3    H168261   0.253   0.292   0.969 -1.9233  1.5258  1.3899
15590TIP3    H268262   0.127   0.288   0.884 -0.8884 -0.8662 -0.1408
15591TIP3   OH268263   0.020   6.833   3.776  0.5326 -0.0916 -0.1862
15591TIP3    H168264   0.050   6.844   3.686  1.1407 -1.1995 -0.1319
15591TIP3    H268265  -0.063   6.785   3.768  0.4718  0.0096 -0.1655
15592TIP3   OH268266   3.283   6.078   0.231  0.3811  0.5025 -0.4029
15592TIP3    H168267   3.228   6.050   0.158 -1.4465  2.0828  0.2905
15592TIP3    H268268   3.318   6.163   0.204  0.0947  0.8634  0.3328
15593TIP3   OH268269   5.590   3.423   1.777  0.2549 -0.6639 -0.6066
15593TIP3    H168270   5.533   3.354   1.811  0.5136 -0.8067 -0.4650
15593TIP3    H268271   5.537   3.503   1.785  0.6385 -0.5379  1.0057
15594TIP3   OH268272   3.800   2.344   2.541 -0.2143 -0.5170 -0.2408
15594TIP3    H168273   3.730   2.296   2.584 -0.0740  0.5003  1.2139
15594TIP3    H268274   3.834   2.402   2.609  2.5146 -1.4540 -0.6818
15595TIP3   OH268275   4.774   4.283  16.375  0.6250  0.1706 -0.1311
15595TIP3    H168276   4.856   4.244  16.405 -0.0292 -0.7871  0.4579
15595TIP3    H268277   4.711   4.264  16.444 -0.1475  0.7333 -0.6550
15596TIP3   OH268278   1.413   5.330   5.586  0.1204  0.9313  0.3939
15596TIP3    H168279   1.444   5.280   5.662  2.2003 -1.0057 -1.5950
15596TIP3    H268280   1.323   5.353   5.608 -0.4603 -2.3864  2.1289
15597TIP3   OH268281   5.239   3.787   5.365  0.0743  0.0879 -0.0584
15597TIP3    H168282   5.275   3.784   5.276 -2.3852 -0.9843 -1.0862
15597TIP3    H268283   5.276   3.711   5.409  1.6065  0.8327  0.0216
15598TIP3   OH268284   3.722   0.342   2.941 -0.3097  0.0014 -0.6732
15598TIP3    H168285   3.756   0.426   2.910  0.7333 -0.0612  0.2635
15598TIP3    H268286   3.795   0.281   2.931 -0.9043 -0.6899 -0.8800
15599TIP3   OH268287   3.764   0.099   3.180  0.0289  0.3240 -0.2203
15599TIP3    H168288   3.802   0.030   3.235 -0.8804  0.4092  0.5445
15599TIP3    H268289   3.740   0.168   3.241 -1.5176  0.1928 -0.6236
15600TIP3   OH268290   3.747   0.166  16.774  0.5445  0.1908  0.4587
15600TIP3    H168291   3.662   0.204  16.798 -0.1438  0.0669 -1.5747
15600TIP3    H268292   3.725   0.083  16.732  1.8390 -0.8941  1.8519
15601TIP3   OH268293   5.094   1.784  14.945  0.0516  0.2341 -0.3954
15601TIP3    H168294   5.163   1.846  14.923 -0.6628  1.9288  1.7905
15601TIP3    H268295   5.018   1.814  14.894  0.5604 -0.9574 -1.9351
15602TIP3   OH268296   5.933   4.599  11.158 -0.1798  0.0192 -0.0300
15602TIP3    H168297   5.924   4.693  11.145 -1.7335 -0.0465  0.3427
15602TIP3    H268298   5.863   4.561  11.106 -0.1682 -0.8595  0.5755
15603TIP3   OH268299   1.114   0.271   0.863  0.3128 -0.2754 -0.1197
15603TIP3    H168300   1.100   0.196   0.805 -1.3769  0.6880 -1.0345
15603TIP3    H268301   1.119   0.347   0.804  0.5408  0.5026  0.8746
15604TIP3   OH268302   3.093   0.704  16.410 -0.3765 -0.1719 -0.1159
15604TIP3    H168303   3.143   0.647  16.352 -1.9347 -1.3462 -0.3596
15604TIP3    H268304   3.018   0.651  16.437 -1.9062  1.7742 -0.3720
15605TIP3   OH268305   0.625   3.537   3.048 -0.5659  0.6578  0.6280
15605TIP3    H168306   0.613   3.546   2.954  0.0812 -0.0456  0.4701
15605TIP3    H268307   0.599   3.623   3.084  1.1338  1.6352 -0.3735
15606TIP3   OH268308   2.676   0.300   1.986  0.3138 -0.0457 -0.3013
15606TIP3    H168309   2.758   0.315   2.033  0.6822 -1.1564 -0.5505
15606TIP3    H268310   2.640   0.221   2.026 -0.3504  0.1152 -0.5717
15607TIP3   OH268311   0.426   0.051  16.361  0.0801  0.2709  0.0001
15607TIP3    H168312   0.418   0.064  16.455 -1.0108  0.1746 -0.0696
15607TIP3    H268313   0.339   0.072  16.326  0.2536 -0.4411 -0.8950
15608TIP3   OH268314   0.139   3.232   4.760  0.4456 -0.7281  0.0845
15608TIP3    H168315   0.093   3.192   4.686  0.4945 -0.4276 -0.1149
15608TIP3    H268316   0.225   3.191   4.760  0.9654  0.2778 -0.9306
15609TIP3   OH268317   1.229   3.936  12.115 -0.3070  0.4458  0.0301
15609TIP3    H168318   1.303   3.983  12.154 -0.5914  0.9283  0.0044
15609TIP3    H268319   1.267   3.855  12.082  0.6787  1.5896 -1.8807
15610TIP3   OH268320   2.050   1.931   6.515  0.1960 -0.1224  0.0858
15610TIP3    H168321   2.086   1.967   6.434  0.7698 -0.3714  0.2279
15610TIP3    H268322   2.120   1.876   6.550 -0.6547 -1.4273 -0.1629
15611TIP3   OH268323   4.114   1.025  11.165  0.1162  0.2869 -0.3222
15611TIP3    H168324   4.098   1.055  11.075  0.0496  2.2661  0.3088
15611TIP3    H268325   4.207   1.002  11.165  0.0809  0.1024 -0.9262
15612TIP3   OH268326   4.889   1.590  10.675 -0.1150  0.9297  0.7792
15612TIP3    H168327   4.899   1.686  10.677  0.3623  0.8872  0.5679
15612TIP3    H268328   4.794   1.577  10.669 -0.2617  1.3631  1.8627
15613TIP3   OH268329   1.796   6.376   3.834  0.8445 -0.4273  0.6535
15613TIP3    H168330   1.834   6.350   3.750 -0.5515 -0.2035 -0.0710
15613TIP3    H268331   1.741   6.302   3.859 -1.0762  0.6681 -0.1240
15614TIP3   OH268332   2.848   5.105  11.372 -0.2630 -0.2722 -0.6748
15614TIP3    H168333   2.804   5.044  11.432 -1.4531  1.4110  0.2345
15614TIP3    H268334   2.778   5.145  11.322  0.0877  2.5779  0.9093
15615TIP3   OH268335   5.702   1.945  17.030  0.5828  0.2673  0.2127
15615TIP3    H168336   5.607   1.951  17.019  0.4755  1.5635  1.4927
15615TIP3    H268337   5.727   1.868  16.980 -1.0538  0.2789 -0.7022
15616TIP3   OH268338   3.552   1.710  11.040  0.0355  0.5452 -0.3741
15616TIP3    H168339   3.485   1.645  11.016  0.8510 -0.9627  1.1923
15616TIP3    H268340   3.608   1.664  11.102  0.7873  2.7199  0.6507
15617TIP3   OH268341   5.014   6.243   5.787  0.0602 -0.8538  0.1221
15617TIP3    H168342   5.049   6.157   5.765  1.3646 -0.7840  1.7843
15617TIP3    H268343   5.015   6.291   5.704  3.2053 -1.1202 -0.0864
15618TIP3   OH268344   2.260   3.856   1.590 -0.1067  0.0974 -0.0319
15618TIP3    H168345   2.199   3.897   1.529  0.8497 -0.5742 -1.4910
15618TIP3    H268346   2.256   3.762   1.570  0.4062 -0.1122  0.7706
15619TIP3   OH268347   5.205   1.028  15.202  0.3979  0.3244  0.5981
15619TIP3    H168348   5.199   0.939  15.169  1.2227  0.5413 -0.1873
15619TIP3    H268349   5.237   1.019  15.292  0.7266 -0.1597  0.4327
15620TIP3   OH268350   6.048   4.420   2.953 -0.0025 -0.0200  0.1578
15620TIP3    H168351   6.024   4.389   2.866  1.8442 -3.5205  0.7243
15620TIP3    H268352   5.993   4.368   3.013  2.1319 -1.3115  1.1306
15621TIP3   OH268353   0.013   4.603   4.468 -0.3524  0.0480  0.1130
15621TIP3    H168354  -0.036   4.602   4.550 -0.9573  0.7982 -0.2251
15621TIP3    H268355  -0.031   4.668   4.414  0.3434 -0.0690 -0.6267
15622TIP3   OH268356   1.535   4.259   6.509 -0.0680 -0.5900  0.5366
15622TIP3    H168357   1.576   4.301   6.585  0.2152 -2.5983  1.5510
15622TIP3    H268358   1.608   4.242   6.449 -0.3117  1.1307 -0.3103
15623TIP3   OH268359   0.254   0.010   1.313  0.0301 -0.0546  0.2341
15623TIP3    H168360   0.197   0.069   1.363 -0.0255  0.2681 -0.2087
15623TIP3    H268361   0.341   0.051   1.318 -0.4660  1.4958 -2.2524
15624TIP3   OH268362   2.123   6.683   6.603 -0.1982 -0.6899  0.2416
15624TIP3    H168363   2.159   6.704   6.517 -1.6589 -3.1781 -1.0774
15624TIP3    H268364   2.177   6.734   6.664  0.7873  1.2948 -2.0967
15625TIP3   OH268365   2.850   6.618  11.394  0.2700 -0.2131 -0.1081
15625TIP3    H168366   2.784   6.684  11.412  1.9200  0.8552  2.6098
15625TIP3    H268367   2.801   6.536  11.384 -1.4779  0.6371  1.1538
15626TIP3   OH268368   6.292   5.855   0.943 -0.0880 -0.0803 -0.6169
15626TIP3    H168369   6.207   5.821   0.971 -0.2399  1.0452  0.3437
15626TIP3    H268370   6.343   5.862   1.023  0.1136  1.4219 -0.8514
15627TIP3   OH268371   2.942   3.330  13.874  0.4429 -0.0260  0.5514
15627TIP3    H168372   2.896   3.341  13.792 -2.2309 -1.8072  1.6785
15627TIP3    H268373   3.027   3.372  13.860  0.1169 -0.2823 -3.0747
15628TIP3   OH268374   0.012   3.956  11.309  0.0709 -0.2799 -0.2664
15628TIP3    H168375  -0.029   4.042  11.319 -0.1476 -0.2916 -1.0007
15628TIP3    H268376  -0.042   3.911  11.245 -0.3477 -1.3201  0.7952
15629TIP3   OH268377   3.703   0.566  16.264 -0.4997  0.6628 -0.6197
15629TIP3    H168378   3.639   0.501  16.234 -0.6406  1.0532 -1.1726
15629TIP3    H268379   3.767   0.571  16.193 -0.9410  1.7391 -0.9511
15630TIP3   OH268380   4.880   6.225  11.961 -0.0484 -0.1561  0.0061
15630TIP3    H168381   4.940   6.248  12.032 -0.7784 -2.0388  1.2924
15630TIP3    H268382   4.825   6.303  11.950  1.7663  1.1415 -0.3686
15631TIP3   OH268383   6.776   5.463  12.463  0.3899 -0.0085 -0.2558
15631TIP3    H168384   6.816   5.461  12.549 -1.0431 -3.1834  0.4855
15631TIP3    H268385   6.844   5.429  12.404  0.3677 -0.8470  0.1888
15632TIP3   OH268386   4.674   2.688  11.061 -0.1663  0.0205  0.0758
15632TIP3    H168387   4.736   2.725  10.998 -2.1101 -1.1249 -2.6799
15632TIP3    H268388   4.730   2.655  11.132  2.5391 -1.6607 -2.5889
15633TIP3   OH268389   2.728   2.262  15.619 -0.0533  0.1016  0.4339
15633TIP3    H168390   2.684   2.277  15.535  0.7459  0.4916  0.0736
15633TIP3    H268391   2.672   2.305  15.683 -0.8717 -0.5226  0.1594
15634TIP3   OH268392   0.658   6.275  16.409  0.2062  0.3991  0.8964
15634TIP3    H168393   0.734   6.226  16.378 -0.7268 -1.3655  1.2688
15634TIP3    H268394   0.608   6.212  16.462 -1.8077  1.3122  0.2069
15635TIP3   OH268395   4.859   3.358   4.422 -0.2446 -0.3533  0.2684
15635TIP3    H168396   4.770   3.325   4.438  0.5347 -2.3987  0.7453
15635TIP3    H268397   4.867   3.360   4.326 -0.4541 -1.2457  0.2223
15636TIP3   OH268398   3.229   3.878  16.862  0.8927  0.1703  0.3133
15636TIP3    H168399   3.302   3.933  16.836  2.6952 -3.1302 -2.4720
15636TIP3    H268400   3.195   3.842  16.779 -2.5853 -0.0613  1.6593
15637TIP3   OH268401   2.356   6.818  13.395  0.2636 -0.5552 -0.6482
15637TIP3    H168402   2.386   6.811  13.304  1.6208  0.3371 -0.2912
15637TIP3    H268403   2.436   6.824  13.447 -0.5042  0.1806  0.5088
15638TIP3   OH268404   3.294   5.304   4.447  0.7789 -0.2994 -0.6382
15638TIP3    H168405   3.215   5.346   4.482  0.3902 -1.1872 -0.4296
15638TIP3    H268406   3.295   5.217   4.488  1.4230 -0.5935 -1.2645
15639TIP3   OH268407   5.087   1.544   3.984  0.5274 -0.3521 -0.6314
15639TIP3    H168408   5.118   1.508   4.067  1.2850 -0.1249 -0.8113
15639TIP3    H268409   5.066   1.635   4.004  0.0469 -0.4833 -0.5295
15640TIP3   OH268410   6.141   4.894   0.052 -0.2045  0.3559 -0.2865
15640TIP3    H168411   6.067   4.833   0.048 -0.7622  0.7171  2.5880
15640TIP3    H268412   6.110   4.967   0.106  2.2441  0.4620  1.1440
15641TIP3   OH268413   3.069   3.765   1.349 -0.8327 -0.0180  0.3924
15641TIP3    H168414   3.049   3.674   1.373 -0.5326 -0.1192  0.2647
15641TIP3    H268415   2.988   3.812   1.367 -0.8457 -0.2233  0.9196
15642TIP3   OH268416   1.260   5.204  15.920 -0.1374  0.1238  0.3143
15642TIP3    H168417   1.263   5.206  15.825 -1.0138  1.2469  0.3020
15642TIP3    H268418   1.342   5.245  15.948  0.5747 -1.0644  0.0811
15643TIP3   OH268419   5.180   5.834  11.426  0.5625  0.8038  0.0535
15643TIP3    H168420   5.178   5.740  11.447 -1.0694  0.5155 -1.1922
15643TIP3    H268421   5.127   5.874  11.494 -1.9558  0.2877 -1.4968
15644TIP3   OH268422   4.733   6.525   0.770 -0.5134 -0.0089 -0.4693
15644TIP3    H168423   4.656   6.486   0.810 -0.0953 -0.9087 -0.5135
15644TIP3    H268424   4.708   6.616   0.752 -1.0899  0.0918  0.7736
15645TIP3   OH268425   6.026   5.336   2.252  0.3082 -0.1983 -0.4358
15645TIP3    H168426   5.968   5.270   2.214 -1.4201 -0.9521  3.0642
15645TIP3    H268427   6.096   5.285   2.293  1.2279  0.4579 -1.1619
15646TIP3   OH268428   2.040   5.229  13.712  0.1323  0.0445 -0.8425
15646TIP3    H168429   2.033   5.301  13.774  3.0118 -0.1261 -0.1705
15646TIP3    H268430   2.051   5.151  13.766 -0.9657 -0.6538 -1.5845
15647TIP3   OH268431   5.963   3.587  16.702  0.1912  0.1324 -0.9674
15647TIP3    H168432   5.893   3.651  16.718  0.7334  0.6935 -0.7951
15647TIP3    H268433   6.041   3.640  16.684  0.4373 -0.4801 -1.8074
15648TIP3   OH268434   2.545   1.228  16.160 -0.1093  0.8004  0.2325
15648TIP3    H168435   2.518   1.317  16.183 -1.6619 -0.0096  1.8223
15648TIP3    H268436   2.582   1.236  16.072 -0.5381  2.9419  0.1823
15649TIP3   OH268437   0.922   2.238   0.375  0.0131  0.1438 -0.0205
15649TIP3    H168438   0.908   2.235   0.280 -2.0734 -0.7469  0.2713
15649TIP3    H268439   0.865   2.309   0.405  0.0931 -0.0698  0.6494
15650TIP3   OH268440   4.298   5.109   4.240  0.1061  0.3648  0.2764
15650TIP3    H168441   4.267   5.110   4.149  1.9709  0.1952 -0.4172
15650TIP3    H268442   4.323   5.200   4.257 -0.7935  0.5138  0.8402
15651TIP3   OH268443   6.281   3.541   0.166  0.3955  0.2586 -0.7075
15651TIP3    H168444   6.225   3.505   0.097 -0.1126 -0.4212  0.0353
15651TIP3    H268445   6.288   3.470   0.230  0.5143  1.0140  0.1355
15652TIP3   OH268446   0.291   5.569  13.465 -0.6708  0.4043 -0.7465
15652TIP3    H168447   0.264   5.524  13.545 -2.3972  1.9612 -0.3855
15652TIP3    H268448   0.383   5.547  13.455 -0.9429 -1.5206  0.4999
15653TIP3   OH268449   4.185   2.634  13.631 -0.0761 -0.8725 -0.0189
15653TIP3    H168450   4.202   2.560  13.574  0.1652 -0.5617 -0.3587
15653TIP3    H268451   4.222   2.609  13.716 -2.8503 -2.4743  0.8330
15654TIP3   OH268452   6.423   3.048  12.935  0.0821 -0.1941 -0.7272
15654TIP3    H168453   6.390   2.960  12.955 -0.1058 -0.3290 -1.5725
15654TIP3    H268454   6.383   3.104  13.001  3.0956 -1.1990  2.2255
15655TIP3   OH268455   1.290   5.964   0.462  0.6209  0.0930 -0.3384
15655TIP3    H168456   1.383   5.967   0.486  0.6107  0.7418 -0.3704
15655TIP3    H268457   1.282   5.885   0.408  1.1112 -0.0788 -0.1643
15656TIP3   OH268458   1.406   4.340   5.443  0.0446 -0.0994 -0.3602
15656TIP3    H168459   1.322   4.380   5.464  0.2097 -0.3342  0.8283
15656TIP3    H268460   1.387   4.247   5.434 -0.0429  0.0081 -1.4382
15657TIP3   OH268461   6.752   2.318  12.667  0.2741 -0.0973 -0.6789
15657TIP3    H168462   6.796   2.236  12.644  1.4010 -0.2780  1.7917
15657TIP3    H268463   6.662   2.306  12.639  0.4092 -2.2188 -0.3584
15658TIP3   OH268464   6.445   3.216   5.624 -0.6238  0.3887 -0.0043
15658TIP3    H168465   6.372   3.201   5.565  0.2059 -0.4230 -0.8581
15658TIP3    H268466   6.467   3.309   5.613 -1.2949  0.5495  0.0042
15659TIP3   OH268467   0.042   1.336  16.379 -0.2517 -0.0592  0.1571
15659TIP3    H168468  -0.001   1.345  16.294 -0.8861  3.3116  0.6695
15659TIP3    H268469   0.115   1.397  16.375 -0.1644  0.0071  1.9402
15660TIP3   OH268470   2.140   6.420  15.928  0.1363 -0.2706 -0.5526
15660TIP3    H168471   2.193   6.340  15.922 -1.6791 -1.8757  2.2656
15660TIP3    H268472   2.052   6.393  15.901 -0.3529  0.9510 -0.2271
15661TIP3   OH268473   0.052   1.841  10.702  0.1452 -0.1938  0.4216
15661TIP3    H168474  -0.022   1.886  10.744 -0.3777 -0.2756 -0.3965
15661TIP3    H268475   0.122   1.906  10.702  0.7703 -0.7344  3.0026
15662TIP3   OH268476   5.529   1.347   5.715 -0.0142  0.0015  0.2834
15662TIP3    H168477   5.592   1.287   5.757  1.4043  0.3167 -1.2708
15662TIP3    H268478   5.514   1.309   5.628 -0.7908  0.7567  0.0726
15663TIP3   OH268479   2.239   5.289  15.940  0.0375  0.4633  0.0449
15663TIP3    H168480   2.191   5.211  15.914  0.1451  0.5180 -0.3286
15663TIP3    H268481   2.190   5.324  16.015  1.1351 -1.1110  1.5845
15664TIP3   OH268482   6.092   4.848  11.583  0.7626 -0.1628 -0.2187
15664TIP3    H168483   6.135   4.838  11.497  1.4337 -0.2872  0.1247
15664TIP3    H268484   6.076   4.941  11.591 -0.3103 -0.2590 -0.9533
15665TIP3   OH268485   5.182   2.965  14.211  0.6532 -0.3478  0.5064
15665TIP3    H168486   5.197   2.986  14.303  1.0653 -2.3205  0.9312
15665TIP3    H268487   5.192   2.870  14.206  0.2056 -0.3313 -1.5023
15666TIP3   OH268488   2.748   6.377  15.223  0.1528 -0.0206  0.0075
15666TIP3    H168489   2.653   6.385  15.213  0.2105  0.2301 -0.3771
15666TIP3    H268490   2.760   6.343  15.312 -0.3765 -2.2144 -0.7059
15667TIP3   OH268491   0.138   4.484   0.665 -0.0308 -0.0478  0.3596
15667TIP3    H168492   0.108   4.568   0.702 -0.9242 -0.3048  0.2328
15667TIP3    H268493   0.233   4.495   0.656 -0.2876  1.4811 -0.9892
15668TIP3   OH268494   3.811   0.755  14.678  0.2289  0.0972  0.6700
15668TIP3    H168495   3.848   0.800  14.602  3.4216 -0.3193  1.8242
15668TIP3    H268496   3.829   0.814  14.751  3.6433 -2.3398  2.0735
15669TIP3   OH268497   2.655   1.853  16.031  0.0790 -0.2956 -0.6626
15669TIP3    H168498   2.667   1.758  16.032  1.8905 -0.1718  2.1459
15669TIP3    H268499   2.563   1.866  16.056 -0.0730 -1.3018 -0.6598
15670TIP3   OH268500   0.231   4.666   0.397 -0.7427 -0.4801  0.0835
15670TIP3    H168501   0.226   4.571   0.382  1.0988 -0.6325  0.1592
15670TIP3    H268502   0.240   4.703   0.309  3.4277 -0.8537  0.1198
15671TIP3   OH268503   4.277   4.012  16.143  0.1277  0.0311  0.0584
15671TIP3    H168504   4.203   3.953  16.155  0.5135 -0.5659 -0.4535
15671TIP3    H268505   4.236   4.096  16.120 -0.4120 -0.0808  0.5660
15672TIP3   OH268506   3.431   3.415  14.459  0.6003 -0.1533  0.6179
15672TIP3    H168507   3.398   3.474  14.526  2.2399 -0.5510  1.8616
15672TIP3    H268508   3.477   3.472  14.398  1.0331  0.0115  1.0848
15673TIP3   OH268509   5.256   2.695  12.479 -0.4773  0.0753 -0.0958
15673TIP3    H168510   5.170   2.653  12.470 -0.0944 -1.3426  2.0530
15673TIP3    H268511   5.236   2.784  12.507 -1.2759 -0.2833  0.5459
15674TIP3   OH268512   2.950   4.824  14.551 -0.1722  0.0386  0.6087
15674TIP3    H168513   3.025   4.793  14.602 -0.3266 -0.9706  0.2580
15674TIP3    H268514   2.979   4.906  14.512  0.3493  0.2368  1.3825
15675TIP3   OH268515   5.180   6.804  14.545 -0.4516 -0.1104  0.5808
15675TIP3    H168516   5.186   6.892  14.507  0.9366 -0.2252  0.4728
15675TIP3    H268517   5.151   6.748  14.474 -2.0461  0.3510  0.8293
15676TIP3   OH268518   2.349   0.219  12.269 -0.3241  0.1385  0.4853
15676TIP3    H168519   2.348   0.140  12.215 -0.7843  0.1208  0.5088
15676TIP3    H268520   2.305   0.193  12.350 -1.1470  0.6131  0.2042
15677TIP3   OH268521   1.763   2.660   4.358  0.3898  0.4584  0.0999
15677TIP3    H168522   1.693   2.676   4.294 -0.1011  0.6989  0.6825
15677TIP3    H268523   1.779   2.745   4.398  0.6590  0.3031  0.3281
15678TIP3   OH268524   1.671   6.020  13.853 -0.5289  0.0528 -0.2380
15678TIP3    H168525   1.696   6.110  13.833 -1.0431  0.0758 -0.8119
15678TIP3    H268526   1.653   6.020  13.947  0.6972  0.2495  0.0160
15679TIP3   OH268527   6.211   5.634   3.448  0.0295  0.2817  0.6343
15679TIP3    H168528   6.181   5.557   3.398  2.8344 -0.7769  0.4222
15679TIP3    H268529   6.168   5.708   3.405  0.0652 -0.8552 -1.5195
15680TIP3   OH268530   2.916   3.876   0.915 -0.0470 -0.2022 -0.0905
15680TIP3    H168531   3.001   3.833   0.924  1.0594  0.8034 -3.7336
15680TIP3    H268532   2.863   3.815   0.865 -1.2284 -0.4330  1.3669
15681TIP3   OH268533   5.612   0.681   5.824  0.2176  0.7826  0.1118
15681TIP3    H168534   5.702   0.685   5.857  0.7023 -0.0811 -1.0310
15681TIP3    H268535   5.570   0.614   5.878  0.3995  0.8619  0.3509
15682TIP3   OH268536   2.684   0.672  15.759 -0.4259  0.2623 -0.0669
15682TIP3    H168537   2.599   0.662  15.801 -0.3162 -0.1756  0.0590
15682TIP3    H268538   2.746   0.680  15.832 -0.2361 -0.4856 -0.1417
15683TIP3   OH268539   6.423   4.317  12.574 -0.0984 -0.1077 -0.3431
15683TIP3    H168540   6.509   4.296  12.609 -0.5421 -1.0981  0.1745
15683TIP3    H268541   6.405   4.406  12.604  0.1988 -0.3713  0.6341
15684TIP3   OH268542   2.901   0.601  10.459  0.6295 -0.0312 -0.0918
15684TIP3    H168543   2.831   0.543  10.487 -0.4733  0.7230 -1.1592
15684TIP3    H268544   2.915   0.579  10.367  0.3154  1.2301 -0.4662
15685TIP3   OH268545   6.280   3.711  11.881  0.1097  0.0754  0.4112
15685TIP3    H168546   6.222   3.754  11.818  0.7231  1.7482  0.9319
15685TIP3    H268547   6.236   3.629  11.901 -1.3110  0.6054 -0.3628
15686TIP3   OH268548   1.578   1.258   3.707  0.5865 -0.3525 -0.5844
15686TIP3    H168549   1.488   1.245   3.677 -0.0017  2.0046 -0.0171
15686TIP3    H268550   1.576   1.232   3.799  0.4046 -0.0252 -0.4952
15687TIP3   OH268551   6.356   4.931  14.101  0.3353  0.2592  0.6508
15687TIP3    H168552   6.347   4.896  14.190  0.2751 -1.8532 -0.1430
15687TIP3    H268553   6.449   4.948  14.091  0.4551 -0.2867  0.8334
15688TIP3   OH268554   2.581   0.241   2.377 -0.3279 -0.2294  0.1882
15688TIP3    H168555   2.526   0.283   2.443 -1.1634 -2.0312  0.6851
15688TIP3    H268556   2.640   0.311   2.348 -0.2925  0.7656  2.4206
15689TIP3   OH268557   3.179   4.174   2.753 -0.0081 -0.1460 -0.2048
15689TIP3    H168558   3.156   4.148   2.664  0.9521 -0.1272 -0.4636
15689TIP3    H268559   3.242   4.245   2.742  0.0087 -0.0448  0.4919
15690TIP3   OH268560   1.326   4.571   2.477  0.0801 -0.3102 -0.0147
15690TIP3    H168561   1.353   4.498   2.421  0.9429 -0.2734  0.3413
15690TIP3    H268562   1.252   4.536   2.528 -0.8424 -0.2837 -1.2785
15691TIP3   OH268563   2.615   0.077   2.634 -0.0638 -0.7279 -0.2098
15691TIP3    H168564   2.621   0.078   2.539  0.7271 -2.3957 -0.2092
15691TIP3    H268565   2.673   0.147   2.663 -0.5442 -0.0129 -0.9544
15692TIP3   OH268566   5.132   5.701   5.509  0.7738  0.1977 -0.8064
15692TIP3    H168567   5.183   5.711   5.590 -0.5565  1.1210 -0.0464
15692TIP3    H268568   5.196   5.712   5.439  1.9338 -0.4578  0.1047
15693TIP3   OH268569   1.751   3.998  12.412 -0.0629 -0.4486  0.3821
15693TIP3    H168570   1.673   4.024  12.364 -1.4275 -3.2114  0.9283
15693TIP3    H268571   1.792   4.081  12.439 -4.6121  1.2546  3.1028
15694TIP3   OH268572   5.110   5.241  11.187 -0.5422 -0.5638  0.3372
15694TIP3    H168573   5.154   5.163  11.154 -1.3317 -0.2458 -1.6409
15694TIP3    H268574   5.039   5.207  11.242  1.1490 -1.1002  2.3343
15695TIP3   OH268575   5.738   4.813  15.147  0.1525  0.1325 -0.1860
15695TIP3    H168576   5.718   4.802  15.054 -0.5906  0.9731 -0.1394
15695TIP3    H268577   5.804   4.746  15.166  0.1017 -0.2300 -1.2479
15696TIP3   OH268578   2.452   1.484   1.936  0.0416 -0.2079 -0.0960
15696TIP3    H168579   2.471   1.545   2.008 -0.2826  1.5191 -1.4191
15696TIP3    H268580   2.490   1.401   1.965 -0.7656  0.2022  2.4325
15697TIP3   OH268581   4.668   2.050   1.334 -0.5882 -0.0837 -0.0692
15697TIP3    H168582   4.751   2.098   1.326  0.4008 -1.9398 -1.5764
15697TIP3    H268583   4.687   1.981   1.398 -0.5190 -1.3014 -1.3543
15698TIP3   OH268584   1.178   3.797  16.133  0.0587  0.5716 -0.4578
15698TIP3    H168585   1.157   3.865  16.069  0.4200 -0.5705 -1.8351
15698TIP3    H268586   1.274   3.790  16.129  0.0738  0.3857  0.1169
15699TIP3   OH268587   4.140   1.349   0.953  0.4365  0.3618 -0.0904
15699TIP3    H168588   4.074   1.352   1.022 -0.6898 -0.4677 -1.0939
15699TIP3    H268589   4.222   1.374   0.997 -0.2969  0.1621  1.4555
15700TIP3   OH268590   2.844   4.932   1.249 -0.1468 -0.4900 -0.4101
15700TIP3    H168591   2.766   4.958   1.297  0.4064 -0.4500  0.4865
15700TIP3    H268592   2.910   4.918   1.316  0.0191 -2.7194 -0.9508
15701TIP3   OH268593   4.079   2.156   0.478  0.5268  0.4990  0.4980
15701TIP3    H168594   4.049   2.084   0.533  2.0458  0.4052  1.2540
15701TIP3    H268595   4.006   2.172   0.418  0.2430 -1.8656  0.0965
15702TIP3   OH268596   4.393   0.416  11.056 -0.5509  0.2953 -0.2338
15702TIP3    H168597   4.351   0.499  11.080  1.2322  1.1546  0.0998
15702TIP3    H268598   4.455   0.399  11.128  1.7974  0.6689 -2.0485
15703TIP3   OH268599   3.547   6.502  12.285  0.3124  0.2957 -0.1089
15703TIP3    H168600   3.597   6.468  12.210  1.6624  1.4444  0.2118
15703TIP3    H268601   3.468   6.449  12.288  0.9505 -0.7855 -1.4168
15704TIP3   OH268602   1.319   2.223   3.423 -0.1311 -0.0052 -0.0737
15704TIP3    H168603   1.407   2.186   3.430 -0.3579 -0.5167  0.1409
15704TIP3    H268604   1.293   2.206   3.332 -0.0601  0.0270 -0.1000
15705TIP3   OH268605   5.186   5.318  12.882 -0.0493  0.4681  0.3118
15705TIP3    H168606   5.106   5.295  12.928  0.3728  2.1272  1.9833
15705TIP3    H268607   5.249   5.250  12.907 -0.5824 -0.1928 -0.0968
15706TIP3   OH268608   2.774   1.169   3.100 -0.4189  0.4032  0.4121
15706TIP3    H168609   2.685   1.150   3.070  0.0017  0.4098 -0.9012
15706TIP3    H268610   2.783   1.264   3.091  0.0558  0.2877 -0.5022
15707TIP3   OH268611   0.820   1.649   4.467  0.0166  0.2248 -0.5116
15707TIP3    H168612   0.783   1.735   4.447  0.7474  0.4023 -1.1619
15707TIP3    H268613   0.862   1.621   4.385 -2.0768 -1.7501 -1.0004
15708TIP3   OH268614   0.735   1.356   0.127 -0.1956  0.0080  0.1780
15708TIP3    H168615   0.830   1.345   0.124 -0.1393 -0.6728  2.6358
15708TIP3    H268616   0.716   1.383   0.216 -2.2904  0.6684 -0.4011
15709TIP3   OH268617   6.529   4.267  16.156 -0.2778 -0.5376 -0.0756
15709TIP3    H168618   6.513   4.352  16.114  0.6956 -0.7078 -0.8201
15709TIP3    H268619   6.536   4.288  16.250 -1.3194  0.0125 -0.1055
15710TIP3   OH268620   3.097   3.589   4.326 -0.0442 -0.0304 -0.1539
15710TIP3    H168621   3.012   3.581   4.371  0.8786 -0.8936  1.5170
15710TIP3    H268622   3.135   3.502   4.332  1.3163  0.5472 -0.1415
15711TIP3   OH268623   1.671   3.164   2.871  0.0966  0.0862 -0.2543
15711TIP3    H168624   1.705   3.093   2.816  1.0330  0.9671 -0.8575
15711TIP3    H268625   1.664   3.126   2.958 -1.5697 -1.4022 -0.9730
15712TIP3   OH268626   5.610   0.279   0.636 -0.4504 -0.1770 -0.0149
15712TIP3    H168627   5.596   0.372   0.651 -2.1575 -0.5209  0.7285
15712TIP3    H268628   5.699   0.273   0.600 -0.7670  1.8322 -1.2328
15713TIP3   OH268629   3.532   5.900  15.875  0.4506  0.7361 -0.2833
15713TIP3    H168630   3.525   5.820  15.823 -0.5770 -0.2215  1.2611
15713TIP3    H268631   3.501   5.970  15.817 -0.7691 -0.3076 -0.9147
15714TIP3   OH268632   1.736   0.445   4.872  0.1079  0.3168 -0.1483
15714TIP3    H168633   1.812   0.387   4.872 -0.7831 -0.9266 -1.5104
15714TIP3    H268634   1.708   0.448   4.781 -0.4362  2.1958  0.0373
15715TIP3   OH268635   0.726   4.777  13.224  0.0735 -0.2364 -0.6087
15715TIP3    H168636   0.788   4.843  13.192  0.7029 -0.8451 -0.6780
15715TIP3    H268637   0.769   4.740  13.302 -1.3274  1.0582  0.8307
15716TIP3   OH268638   3.586   2.668  13.205  0.3258 -0.2065  0.1150
15716TIP3    H168639   3.670   2.701  13.173 -0.2515  0.7240 -0.4784
15716TIP3    H268640   3.609   2.587  13.250  1.7023  0.6608  1.0640
15717TIP3   OH268641   6.080   1.765  16.840  0.0196  0.6986 -0.2084
15717TIP3    H168642   6.161   1.817  16.844  1.1460 -1.0195  0.4411
15717TIP3    H268643   6.105   1.685  16.795 -1.0001 -0.3967  1.0793
15718TIP3   OH268644   2.394   1.052  11.028  0.0678  0.0218  0.1538
15718TIP3    H168645   2.447   1.111  10.975  0.6616 -1.6138 -1.1558
15718TIP3    H268646   2.438   1.050  11.113  0.4431  0.8804 -0.0105
15719TIP3   OH268647   3.052   4.413   1.029  0.1948 -0.1548 -0.2334
15719TIP3    H168648   3.048   4.321   1.003 -0.3106 -0.4154  0.7387
15719TIP3    H268649   2.961   4.440   1.036  0.3403  0.3395 -0.2068
15720TIP3   OH268650   0.031   5.326   6.129 -0.4646  0.4219 -0.0668
15720TIP3    H168651   0.046   5.416   6.102 -0.6640  0.4035 -0.2389
15720TIP3    H268652  -0.004   5.332   6.218  1.8998  0.4227  0.9369
15721TIP3   OH268653   5.453   2.964   0.033  0.0081 -0.4492  0.2044
15721TIP3    H168654   5.433   2.899  -0.035  0.5321  0.3665 -0.7581
15721TIP3    H268655   5.381   3.027   0.026 -0.1405 -0.5620  0.6806
15722TIP3   OH268656   3.894   4.699  16.003 -0.1751  0.0169 -0.6354
15722TIP3    H168657   3.824   4.676  15.942 -0.4940  1.5340 -0.8742
15722TIP3    H268658   3.848   4.719  16.085  0.0813 -0.0465 -0.4769
15723TIP3   OH268659   4.514   4.412   1.631 -0.4171  0.1225  0.7518
15723TIP3    H168660   4.485   4.493   1.674  1.9356  1.4247  0.0673
15723TIP3    H268661   4.512   4.346   1.701 -1.9996  0.8328  1.4326
15724TIP3   OH268662   2.703   0.337  15.083  0.5403 -0.3124  0.2741
15724TIP3    H168663   2.765   0.346  15.155  0.2790  0.1886  0.4424
15724TIP3    H268664   2.619   0.322  15.126  0.6007 -1.3611  0.0363
15725TIP3   OH268665   1.726   0.849  16.190  0.0783 -0.0626 -0.6108
15725TIP3    H168666   1.644   0.897  16.177  0.0540 -0.3088 -1.4458
15725TIP3    H268667   1.744   0.809  16.104  0.8962 -0.2848 -0.3436
15726TIP3   OH268668   3.653   6.180   3.848  0.2140  0.7903  0.1261
15726TIP3    H168669   3.681   6.147   3.934  0.9867 -2.5755 -1.2290
15726TIP3    H268670   3.565   6.144   3.836  1.1130 -1.0848 -1.4533
15727TIP3   OH268671   4.761   4.949   3.027 -0.1178 -0.1901 -0.6433
15727TIP3    H168672   4.788   4.905   2.947  1.1820 -2.1245  0.7841
15727TIP3    H268673   4.668   4.928   3.036 -0.5747  0.9536 -2.1341
15728TIP3   OH268674   0.851   2.560   0.370 -0.1966 -0.0388  0.3755
15728TIP3    H168675   0.818   2.538   0.283 -0.0133  0.3734  0.1972
15728TIP3    H268676   0.788   2.624   0.403 -0.4646 -0.4695  0.6922
15729TIP3   OH268677   5.799   6.263  14.126  0.0735  0.2971 -0.5454
15729TIP3    H168678   5.800   6.298  14.037  1.9483  2.4779  0.2243
15729TIP3    H268679   5.731   6.315  14.171 -0.4922 -0.4253 -0.5404
15730TIP3   OH268680   2.793   0.902  16.457 -0.2312 -0.1631 -0.3543
15730TIP3    H168681   2.727   0.965  16.426  0.5364  0.3909 -0.9026
15730TIP3    H268682   2.808   0.844  16.382  1.8304  1.3471 -1.2056
15731TIP3   OH268683   0.936   0.256  15.107  0.0677 -0.0134 -0.1159
15731TIP3    H168684   0.990   0.334  15.094 -2.1495  1.5987 -0.2399
15731TIP3    H268685   0.940   0.210  15.023 -0.6133  1.3419 -0.9195
15732TIP3   OH268686   5.788   3.782  16.511 -0.6165  0.2147  0.0023
15732TIP3    H168687   5.721   3.753  16.450  0.0976 -0.0429 -0.6765
15732TIP3    H268688   5.750   3.766  16.597 -1.0422 -0.8514 -0.3628
15733TIP3   OH268689   1.820   1.919   3.406 -0.2578 -0.1288  0.3296
15733TIP3    H168690   1.864   1.984   3.351 -1.2781  0.9740  0.7758
15733TIP3    H268691   1.877   1.910   3.483  0.1668 -0.1860  0.0130
15734TIP3   OH268692   5.310   3.162   4.330 -0.2724  0.0151  0.0505
15734TIP3    H168693   5.298   3.115   4.412  0.8507  0.0253  0.2271
15734TIP3    H268694   5.383   3.118   4.287  1.1512  1.8743  0.4378
15735TIP3   OH268695   4.350   6.011   4.440  0.2593  0.7138 -0.0376
15735TIP3    H168696   4.338   5.917   4.428  2.1993  0.2366  1.2177
15735TIP3    H268697   4.336   6.049   4.353  0.1714 -0.8249 -0.7254
15736TIP3   OH268698   6.308   0.477   3.147 -0.0197  0.3460  0.3794
15736TIP3    H168699   6.363   0.555   3.150  0.0354  0.3298 -0.1665
15736TIP3    H268700   6.356   0.411   3.197 -0.8210  1.1259  2.2840
15737TIP3   OH268701   3.900   3.554   0.946  0.2410  0.5186 -0.3462
15737TIP3    H168702   3.983   3.524   0.908  0.0746  1.2721 -1.3464
15737TIP3    H268703   3.846   3.578   0.871 -1.1616 -0.6130  0.2465
15738TIP3   OH268704   3.671   6.366  16.722 -0.2174  0.1306  0.2498
15738TIP3    H168705   3.755   6.400  16.753  0.2000 -0.0899 -0.6044
15738TIP3    H268706   3.635   6.319  16.797  0.1297  0.7571  0.8184
15739TIP3   OH268707   4.537   0.462   0.908 -0.4346  0.0751 -0.2193
15739TIP3    H168708   4.463   0.485   0.852  0.1818  0.8691 -0.7253
15739TIP3    H268709   4.497   0.432   0.990 -1.3313  3.0412  0.5351
15740TIP3   OH268710   5.486   1.200  14.119 -0.5187 -0.2159  0.0085
15740TIP3    H168711   5.489   1.218  14.025 -2.2875 -1.2604 -0.2948
15740TIP3    H268712   5.518   1.280  14.160  0.6363  0.1318 -1.4675
15741TIP3   OH268713   4.089   5.046   6.543 -0.1400  0.3463 -0.0419
15741TIP3    H168714   4.068   5.040   6.636  0.6227  0.7730  0.1717
15741TIP3    H268715   4.037   5.120   6.511  1.6203  2.0119  0.6894
15742TIP3   OH268716   6.151   4.327  12.642  0.4397 -0.2531 -0.0513
15742TIP3    H168717   6.112   4.252  12.687  2.0083  0.1448  2.1444
15742TIP3    H268718   6.235   4.294  12.609  0.4361  0.1327 -0.4506
15743TIP3   OH268719   2.965   4.258  13.205  0.3333 -0.1688 -0.3846
15743TIP3    H168720   2.879   4.228  13.176  0.5819 -0.1548 -1.1664
15743TIP3    H268721   2.995   4.316  13.135  0.7353  0.2742  0.1505
15744TIP3   OH268722   5.027   2.160   5.908 -0.5441 -0.1489  0.1147
15744TIP3    H168723   5.070   2.155   5.822 -1.0072  1.1419 -0.2090
15744TIP3    H268724   4.988   2.247   5.910 -2.2023 -0.8704  0.8445
15745TIP3   OH268725   1.030   6.030  16.398  0.4372  0.4655  0.4560
15745TIP3    H168726   1.072   5.947  16.373  0.7905  0.3906  1.2566
15745TIP3    H268727   0.942   6.005  16.424  0.3017  0.4454 -0.0172
15746TIP3   OH268728   1.037   2.930  16.519  0.8456  0.0015 -0.2427
15746TIP3    H168729   1.107   2.960  16.576  0.5813  1.0125 -0.4333
15746TIP3    H268730   0.956   2.958  16.562  0.5570 -0.8913 -0.1728
15747TIP3   OH268731   2.274   3.777   0.282  0.1952  0.6827 -0.6803
15747TIP3    H168732   2.209   3.711   0.256 -2.4881  2.2401  1.5579
15747TIP3    H268733   2.355   3.728   0.291 -1.0517 -1.7654 -1.7751
15748TIP3   OH268734   0.241   4.265   2.855  0.2517 -0.3839  0.5618
15748TIP3    H168735   0.228   4.222   2.940 -0.5107  0.8639  1.1088
15748TIP3    H268736   0.326   4.234   2.825  1.9343  1.3417  3.1657
15749TIP3   OH268737   4.261   6.663  13.182  0.1861 -0.4018 -0.1705
15749TIP3    H168738   4.344   6.620  13.204  0.7714  1.0264  0.5310
15749TIP3    H268739   4.282   6.756  13.182 -0.9014 -0.1181 -2.2994
15750TIP3   OH268740   0.746   3.596  14.083 -0.2157  0.3097  0.3952
15750TIP3    H168741   0.744   3.615  13.989  0.7372  2.0394  0.6788
15750TIP3    H268742   0.663   3.631  14.115  0.5673  2.1496  0.5547
15751TIP3   OH268743   5.657   0.361  11.249 -0.7516 -0.4586  0.4067
15751TIP3    H168744   5.751   0.380  11.259 -1.2700  1.5662  2.0626
15751TIP3    H268745   5.617   0.397  11.328 -2.7923 -2.5987  0.4472
15752TIP3   OH268746   5.378   6.216  14.508 -0.0153 -0.2501  0.6695
15752TIP3    H168747   5.444   6.151  14.486  1.1393  0.6510  1.3385
15752TIP3    H268748   5.326   6.176  14.578 -0.8686 -1.3697 -0.5678
15753TIP3   OH268749   4.720   0.492   3.802  0.5378  0.5646 -0.2764
15753TIP3    H168750   4.677   0.576   3.821  1.9143  1.1589  0.3387
15753TIP3    H268751   4.782   0.480   3.874  1.5183 -0.1803 -1.2162
15754TIP3   OH268752   5.294   4.551  14.827 -0.1607 -0.3644  0.3859
15754TIP3    H168753   5.384   4.580  14.810 -0.6164  0.7851 -0.1497
15754TIP3    H268754   5.298   4.513  14.915  1.0460 -1.2450 -0.0142
15755TIP3   OH268755   4.664   3.080  12.067 -0.0283 -0.1780 -0.0380
15755TIP3    H168756   4.586   3.119  12.105 -0.1952 -1.9986  1.6723
15755TIP3    H268757   4.711   3.153  12.028 -1.8404  1.1864  0.1935
15756TIP3   OH268758   3.196   0.914  11.316 -0.3467 -0.6155  0.0762
15756TIP3    H168759   3.292   0.907  11.316 -0.2622  0.1367  1.9488
15756TIP3    H268760   3.166   0.825  11.331  0.1138 -0.6273  0.9942
15757TIP3   OH268761   2.340   1.161   0.080  0.2928  0.0654  0.2060
15757TIP3    H168762   2.261   1.214   0.095 -0.9889 -1.2070 -1.7048
15757TIP3    H268763   2.309   1.071   0.084  1.8698 -0.4894  0.3484
15758TIP3   OH268764   2.377   4.539   2.827  0.4626  0.2412  0.3460
15758TIP3    H168765   2.339   4.579   2.905 -2.6031  1.0860 -1.4430
15758TIP3    H268766   2.442   4.602   2.797  1.7701 -0.1426  2.1580
15759TIP3   OH268767   6.287   6.117   5.216  0.0696 -0.4404  0.1473
15759TIP3    H168768   6.305   6.076   5.300 -0.0441  0.3166  0.5481
15759TIP3    H268769   6.271   6.044   5.156 -0.0145 -0.9772  0.8198
15760TIP3   OH268770   1.475   3.500   1.693  0.2111  1.0542 -0.6088
15760TIP3    H168771   1.427   3.420   1.676  1.9202  0.3159 -2.3280
15760TIP3    H268772   1.550   3.473   1.747  0.2934  1.6536 -0.4091
15761TIP3   OH268773   5.103   1.396  11.565 -0.1066  0.2236 -0.1928
15761TIP3    H168774   5.069   1.473  11.610 -0.8335 -0.8094  1.1084
15761TIP3    H268775   5.133   1.338  11.635 -0.9829 -1.3052 -1.0161
15762TIP3   OH268776   1.997   0.625  16.560  0.0974 -0.1528 -0.1027
15762TIP3    H168777   1.954   0.559  16.614  0.2229  0.8786  1.3306
15762TIP3    H268778   2.075   0.650  16.610  1.0834 -0.2419 -1.5094
15763TIP3   OH268779   2.014   6.599   5.936  0.3902  0.1276 -0.2735
15763TIP3    H168780   2.086   6.614   5.998  1.0413  0.9967 -1.2081
15763TIP3    H268781   2.008   6.504   5.928  0.1380 -0.0176  1.2844
15764TIP3   OH268782   4.790   4.572   1.343 -0.1837 -0.3617 -0.2947
15764TIP3    H168783   4.852   4.557   1.273 -0.3069  3.1710 -1.3020
15764TIP3    H268784   4.710   4.527   1.315  0.8523 -2.1071 -0.5594
15765TIP3   OH268785   5.090   2.189   5.648 -0.2126 -0.4762  0.4186
15765TIP3    H168786   5.142   2.119   5.610  0.0109 -0.0225 -0.1247
15765TIP3    H268787   5.003   2.177   5.611  0.1502  0.3300 -0.7468
15766TIP3   OH268788   2.239   1.141  13.634  0.1624 -0.4424  0.1481
15766TIP3    H168789   2.328   1.169  13.616  0.2864  0.0429  1.4300
15766TIP3    H268790   2.237   1.049  13.607  0.2858  0.2146 -2.3187
15767TIP3   OH268791   5.647   4.857  14.284  0.7500 -0.5272 -0.1936
15767TIP3    H168792   5.684   4.828  14.367 -0.1430 -2.5181 -0.4459
15767TIP3    H268793   5.697   4.810  14.217 -0.4837 -1.2516 -0.6340
15768TIP3   OH268794   3.401   5.569  12.261  0.3956  0.7316  0.3242
15768TIP3    H168795   3.317   5.529  12.283  0.7086  0.2045  0.5762
15768TIP3    H268796   3.431   5.521  12.183  0.3707  1.0553  0.1112
15769TIP3   OH268797   1.308   3.157  16.630 -0.2919 -0.4177  0.0510
15769TIP3    H168798   1.323   3.244  16.667 -0.6889 -0.0295 -0.6509
15769TIP3    H268799   1.256   3.111  16.696  0.0574 -0.1800  0.4964
15770TIP3   OH268800   6.827   1.916   1.828  0.3634 -0.3442  0.0920
15770TIP3    H168801   6.853   1.943   1.739  2.6093 -0.8035  0.5530
15770TIP3    H268802   6.891   1.956   1.885  2.0379 -3.9863  1.0741
15771TIP3   OH268803   4.892   4.290   0.696  0.1957 -0.7536  0.0567
15771TIP3    H168804   4.911   4.235   0.620  2.3655 -0.1111  0.0773
15771TIP3    H268805   4.805   4.262   0.725 -0.4998 -1.3182 -2.3724
15772TIP3   OH268806   3.890   3.880  13.031  0.9359  0.4803  1.0255
15772TIP3    H168807   3.860   3.832  13.108  1.0739  0.0887  0.8434
15772TIP3    H268808   3.918   3.811  12.970 -0.4922  0.6947  0.0643
15773TIP3   OH268809   2.981   1.296  16.968  0.4310 -0.0104 -0.7525
15773TIP3    H168810   3.032   1.284  17.048  0.3239 -0.0025 -0.6830
15773TIP3    H268811   2.963   1.390  16.965 -1.3629 -0.2801  0.3288
15774TIP3   OH268812   2.339   2.459  14.234  0.8698  0.1619  0.1216
15774TIP3    H168813   2.308   2.536  14.187 -0.3483  0.4443  1.3298
15774TIP3    H268814   2.269   2.394  14.224  1.3375 -0.3565  0.1444
15775TIP3   OH268815   0.830   5.569  11.261  0.6502 -0.0814 -0.2851
15775TIP3    H168816   0.833   5.662  11.282  1.4520  0.3050 -1.8954
15775TIP3    H268817   0.920   5.546  11.237  0.1561 -0.8091 -1.6076
15776TIP3   OH268818   5.242   3.867   6.346  0.2997  0.0276  0.0546
15776TIP3    H168819   5.259   3.838   6.257 -1.4887 -0.0127 -0.3181
15776TIP3    H268820   5.260   3.791   6.401 -1.8939 -1.1018 -0.6565
15777TIP3   OH268821   1.595   6.456  15.511  0.5682 -0.2695  0.1612
15777TIP3    H168822   1.591   6.505  15.594 -0.8585 -1.4797  0.8602
15777TIP3    H268823   1.686   6.431  15.503  1.1854  1.7512  0.2061
15778TIP3   OH268824   3.720   0.877  11.588  0.1287 -0.5845  0.5780
15778TIP3    H168825   3.686   0.853  11.674  1.3306 -0.4426  1.1095
15778TIP3    H268826   3.793   0.817  11.573 -0.1912 -0.7421 -0.4394
15779TIP3   OH268827   1.895   5.370   3.127 -0.7635 -0.5530 -0.0264
15779TIP3    H168828   1.840   5.388   3.051  0.2394 -0.6967 -0.7977
15779TIP3    H268829   1.846   5.305   3.177  0.3869 -3.7403 -2.7056
15780TIP3   OH268830   3.327   5.591  12.557 -0.0890 -0.6173  0.0629
15780TIP3    H168831   3.412   5.557  12.530 -0.2741 -1.2181  0.2138
15780TIP3    H268832   3.281   5.608  12.475  1.7536  4.0618 -0.2705
15781TIP3   OH268833   6.785   0.443   3.858  0.0602  0.1713 -0.6220
15781TIP3    H168834   6.794   0.507   3.929  0.5144 -0.5518  0.0063
15781TIP3    H268835   6.734   0.372   3.897 -0.3943  0.1301 -1.2898
15782TIP3   OH268836   3.173   0.336   3.891  0.2594  0.8437  0.0209
15782TIP3    H168837   3.124   0.269   3.844  1.1060  0.9191 -0.9883
15782TIP3    H268838   3.116   0.360   3.964 -1.9497  2.0836 -1.9777
15783TIP3   OH268839   0.927   0.155  13.887  0.0619 -0.0655  0.8085
15783TIP3    H168840   0.942   0.088  13.954 -0.3048  0.0265  0.9852
15783TIP3    H268841   0.994   0.221  13.904 -1.8144  1.4451  3.0096
15784TIP3   OH268842   3.065   5.653   2.337  0.7803 -0.3865  0.3743
15784TIP3    H168843   2.992   5.592   2.339 -0.5836  1.2042  0.4693
15784TIP3    H268844   3.061   5.699   2.421 -0.8397  2.7419 -1.2589
15785TIP3   OH268845   6.763   2.115  16.762  0.7100  0.1942 -0.3498
15785TIP3    H168846   6.769   2.195  16.814  2.3809 -0.7293  0.9682
15785TIP3    H268847   6.786   2.143  16.673  0.0488  1.3892 -0.1627
15786TIP3   OH268848   3.458   4.592  15.804  0.2407 -0.2676 -0.0754
15786TIP3    H168849   3.440   4.659  15.869  0.1907  0.6777 -1.0394
15786TIP3    H268850   3.376   4.544  15.796 -0.3684  0.8562 -0.8345
15787TIP3   OH268851   4.936   3.304  14.586 -0.5199 -0.7398 -0.0391
15787TIP3    H168852   4.919   3.355  14.665  0.8395  0.6472 -0.5890
15787TIP3    H268853   4.853   3.306  14.539 -0.8022  0.0935  0.4557
15788TIP3   OH268854   0.267   0.104  16.031  0.0948 -0.5206  0.2189
15788TIP3    H168855   0.333   0.074  15.969  1.9415  1.0516  1.3158
15788TIP3    H268856   0.199   0.037  16.028  2.1273 -2.6885 -0.3419
15789TIP3   OH268857   0.180   4.811   3.972 -0.0401 -0.4333  0.2281
15789TIP3    H168858   0.087   4.829   3.963 -0.3549 -1.9180  0.3800
15789TIP3    H268859   0.201   4.752   3.899  0.7094 -0.3715  0.3819
15790TIP3   OH268860   0.536   2.583  10.990  0.0863  0.2026  0.0570
15790TIP3    H168861   0.535   2.527  10.913 -0.0161  0.3951 -0.0839
15790TIP3    H268862   0.453   2.565  11.035 -0.5483  1.1877 -0.6814
15791TIP3   OH268863   0.782   5.901   4.466 -0.3591 -0.4011 -0.1946
15791TIP3    H168864   0.788   5.806   4.458 -1.4493 -0.4166 -1.2162
15791TIP3    H268865   0.822   5.935   4.385 -0.8648 -0.0421 -0.3026
15792TIP3   OH268866   0.674   1.833  15.623 -0.0878 -0.1800  0.1206
15792TIP3    H168867   0.591   1.872  15.593  0.7119  2.1355  0.6797
15792TIP3    H268868   0.726   1.823  15.544 -0.3947 -0.3565 -0.0624
15793TIP3   OH268869   5.660   1.539  16.643 -0.7071 -0.3361  0.2737
15793TIP3    H168870   5.726   1.604  16.619  1.7830 -2.7925 -0.2279
15793TIP3    H268871   5.671   1.469  16.579 -2.2175 -1.8838  1.5839
15794TIP3   OH268872   4.981   6.268  13.865  0.0789  0.1978 -0.1653
15794TIP3    H168873   4.936   6.332  13.810 -0.9684 -0.2600  0.1317
15794TIP3    H268874   4.987   6.310  13.951  2.0412  1.0617 -0.6640
15795TIP3   OH268875   2.987   3.857   5.747 -0.3037 -0.1336  0.1519
15795TIP3    H168876   2.988   3.823   5.657 -0.6325  0.5138 -0.1031
15795TIP3    H268877   3.079   3.858   5.772 -0.3305 -2.2427  0.5836
15796TIP3   OH268878   6.764   5.196   5.307  0.6550 -0.2830  0.2924
15796TIP3    H168879   6.780   5.213   5.214  0.1252  2.4923  0.6022
15796TIP3    H268880   6.672   5.171   5.310  0.4098  0.5400  0.1138
15797TIP3   OH268881   6.511   4.503  13.652 -0.3544  0.4570 -0.2928
15797TIP3    H168882   6.524   4.419  13.696 -1.5888 -0.0717 -0.8710
15797TIP3    H268883   6.581   4.508  13.587  0.3945  0.4039  0.4988
15798TIP3   OH268884   1.654   4.384   2.604  0.1438  0.5726 -0.6555
15798TIP3    H168885   1.730   4.402   2.659  0.3636 -0.2722 -0.6583
15798TIP3    H268886   1.584   4.363   2.666 -0.0463  1.1890 -0.6574
15799TIP3   OH268887   2.619   4.383   2.153 -0.6207 -0.3534  0.3992
15799TIP3    H168888   2.708   4.353   2.131 -0.3157 -0.7707  2.1159
15799TIP3    H268889   2.569   4.368   2.072  0.7230 -0.6584 -0.4132
15800TIP3   OH268890   5.568   5.931  13.325  0.0703  0.2067 -0.1310
15800TIP3    H168891   5.614   5.849  13.306  1.7376  0.9766  0.4267
15800TIP3    H268892   5.555   5.972  13.239 -1.0608 -0.7435 -0.4506
15801TIP3   OH268893   2.308   6.097  15.514 -0.2965 -0.6926  0.5952
15801TIP3    H168894   2.307   6.066  15.604 -1.5996 -0.9849  0.4954
15801TIP3    H268895   2.254   6.176  15.514 -1.5923 -1.5458 -0.1970
15802TIP3   OH268896   3.358   3.310  16.880  0.2673  0.3752  0.4904
15802TIP3    H168897   3.355   3.325  16.786  1.0656 -1.4432  0.1349
15802TIP3    H268898   3.284   3.360  16.915 -0.4183  0.5770 -1.1679
15803TIP3   OH268899   1.817   1.378  12.312 -0.1185  0.0684 -0.1583
15803TIP3    H168900   1.818   1.293  12.356 -1.1839  1.0247  1.8179
15803TIP3    H268901   1.909   1.402  12.306  0.1110 -0.5596  0.6326
15804TIP3   OH268902   5.730   3.700  14.553 -0.5049 -0.4217  0.1908
15804TIP3    H168903   5.769   3.765  14.611 -0.4909 -1.8542  1.8401
15804TIP3    H268904   5.636   3.706  14.570 -0.4853 -0.9785  0.5138
15805TIP3   OH268905   1.986   6.392   4.295  0.1099 -0.0828  0.4843
15805TIP3    H168906   1.947   6.328   4.236 -2.1621  1.5954  0.0674
15805TIP3    H268907   2.063   6.424   4.249 -0.3222 -0.4659 -0.5225
15806TIP3   OH268908   4.312   4.813   2.764 -0.6566 -0.2253  0.9038
15806TIP3    H168909   4.307   4.900   2.725  0.5312 -0.6090 -0.1844
15806TIP3    H268910   4.335   4.756   2.691 -0.0554 -1.2428  1.8684
15807TIP3   OH268911   5.792   2.233   6.646 -0.1209  0.7433 -0.4404
15807TIP3    H168912   5.708   2.188   6.648  0.0098  0.4344 -1.2928
15807TIP3    H268913   5.772   2.318   6.607 -0.1529  0.9342 -0.0089
15808TIP3   OH268914   0.012   1.206  12.842 -0.1327  0.2569 -0.7034
15808TIP3    H168915  -0.029   1.204  12.756 -0.2768  1.0156 -0.6612
15808TIP3    H268916  -0.055   1.170  12.901  0.1569 -0.7437 -0.9746
15809TIP3   OH268917   3.661   6.452   2.099  0.9373 -0.1344 -0.3157
15809TIP3    H168918   3.671   6.358   2.113 -1.6325 -0.3962  0.0771
15809TIP3    H268919   3.649   6.488   2.187  1.6601  0.5580 -0.4901
15810TIP3   OH268920   3.974   1.356  16.395 -0.3372  0.5210  0.7749
15810TIP3    H168921   4.001   1.265  16.410  0.1018  0.5438  0.1681
15810TIP3    H268922   3.930   1.355  16.310  0.2765  0.9821  0.4350
15811TIP3   OH268923   3.508   0.328  15.606 -0.0716 -0.5928 -0.4206
15811TIP3    H168924   3.517   0.388  15.532  1.6289  0.0472  0.2525
15811TIP3    H268925   3.556   0.370  15.677 -0.7222 -1.7240  0.7332
15812TIP3   OH268926   4.150   0.541   1.882  0.2193  0.5861  0.1253
15812TIP3    H168927   4.232   0.490   1.877  0.6545  1.3187 -0.3686
15812TIP3    H268928   4.109   0.527   1.797 -0.2956  0.0235  0.4620
15813TIP3   OH268929   1.114   2.067   0.719  0.4190  0.2720 -0.1462
15813TIP3    H168930   1.184   2.111   0.672 -0.2867  0.0702 -1.4462
15813TIP3    H268931   1.153   1.986   0.750  1.0150  0.5956 -0.0344
15814TIP3   OH268932   2.355   1.833   0.089  0.0283  0.6872 -0.0639
15814TIP3    H168933   2.275   1.790   0.118  0.0205  1.2842  0.8564
15814TIP3    H268934   2.425   1.770   0.108  0.4243  2.1159  4.2229
15815TIP3   OH268935   4.626   2.531   0.105  0.1741 -0.5497  0.0710
15815TIP3    H168936   4.619   2.518   0.199  0.0198 -1.1933 -0.0278
15815TIP3    H268937   4.632   2.626   0.095  1.6882 -0.5436  0.8227
15816TIP3   OH268938   5.741   6.657  11.564  0.4957 -0.6265 -0.0250
15816TIP3    H168939   5.662   6.692  11.521  0.4635 -0.2495  0.3276
15816TIP3    H268940   5.809   6.721  11.543  0.3419 -0.1089  0.9750
15817TIP3   OH268941   1.848   0.142   3.372  0.5317 -0.4752 -0.2139
15817TIP3    H168942   1.806   0.070   3.419  0.8198  0.3492  1.3729
15817TIP3    H268943   1.939   0.114   3.361  0.0540 -1.4684 -2.0111
15818TIP3   OH268944   2.102   0.322   3.007 -0.5011  0.5460 -0.5813
15818TIP3    H168945   2.113   0.391   2.942  1.3798  0.3480 -0.5406
15818TIP3    H268946   2.110   0.241   2.957  0.4131  0.3905 -0.1991
15819TIP3   OH268947   3.394   0.787  13.799 -0.1361 -0.2363 -0.6869
15819TIP3    H168948   3.418   0.701  13.832  0.5034  0.0927 -0.2665
15819TIP3    H268949   3.462   0.808  13.735 -0.1148  0.0867 -0.5603
15820TIP3   OH268950   3.819   4.749   4.001 -0.3258  0.0966  0.3292
15820TIP3    H168951   3.905   4.790   3.989 -0.4171  0.4093  0.6976
15820TIP3    H268952   3.839   4.659   4.026 -0.1361 -0.2989 -1.2009
15821TIP3   OH268953   2.624   2.504   3.085 -0.0069 -0.7630 -0.3537
15821TIP3    H168954   2.607   2.425   3.136  0.0979 -1.1762 -0.9531
15821TIP3    H268955   2.716   2.524   3.104 -0.4762  0.1958  1.1222
15822TIP3   OH268956   0.330   1.802   0.454  0.1228  0.0594  0.4586
15822TIP3    H168957   0.390   1.747   0.403 -0.8067 -0.4734 -0.0912
15822TIP3    H268958   0.321   1.882   0.402 -1.1583 -0.6534 -0.4803
15823TIP3   OH268959   4.062   5.297   0.150 -0.4866  0.4471  0.6408
15823TIP3    H168960   3.981   5.335   0.185 -1.4543  1.3528 -2.3085
15823TIP3    H268961   4.131   5.355   0.181 -1.3624  1.5892  0.5284
15824TIP3   OH268962   1.109   3.402   2.704 -0.4549  0.3456  0.4511
15824TIP3    H168963   1.133   3.347   2.629  0.9594  0.5349  0.7287
15824TIP3    H268964   1.054   3.471   2.667  0.5160  0.6349 -0.4898
15825TIP3   OH268965   0.178   6.192   3.558  0.1116  0.3438 -0.4998
15825TIP3    H168966   0.088   6.196   3.591 -0.2381  0.6166 -1.4637
15825TIP3    H268967   0.228   6.248   3.618  0.3351 -2.3278  2.0531
15826TIP3   OH268968   0.266   1.270  13.529  0.1594  0.4070 -0.0359
15826TIP3    H168969   0.248   1.364  13.528 -2.0671  0.0581  0.4048
15826TIP3    H268970   0.272   1.248  13.622  0.8437  0.1212 -0.1426
15827TIP3   OH268971   4.225   5.407  11.501  0.5093  0.0394 -0.1623
15827TIP3    H168972   4.289   5.358  11.450  0.4243  0.2416 -0.4632
15827TIP3    H268973   4.141   5.370  11.476  0.3667  0.9277 -1.0619
15828TIP3   OH268974   0.699   6.282   0.162  0.3792 -0.1871  0.1179
15828TIP3    H168975   0.659   6.266   0.248  0.9540 -0.1466  0.3992
15828TIP3    H268976   0.767   6.347   0.179  1.0090 -0.7465 -0.2248
15829TIP3   OH268977   1.991   0.440   0.455 -0.6018  0.1130 -0.3179
15829TIP3    H168978   1.914   0.438   0.398 -1.8191  1.5469  1.1471
15829TIP3    H268979   1.967   0.385   0.530 -0.7227  1.5071  0.7064
15830TIP3   OH268980   0.454   4.471   1.209 -0.2844  0.1787  0.5179
15830TIP3    H168981   0.464   4.440   1.119  1.5979 -1.6675  1.2933
15830TIP3    H268982   0.479   4.564   1.205 -0.1804  0.1152 -0.8213
15831TIP3   OH268983   5.355   4.723  15.482 -0.3952  0.2849  0.2917
15831TIP3    H168984   5.270   4.712  15.524 -0.5382  0.2390 -0.0086
15831TIP3    H268985   5.335   4.743  15.390 -0.0950  0.9301  0.3604
15832TIP3   OH268986   4.748   5.480  13.335 -0.3991 -0.0391 -0.4635
15832TIP3    H168987   4.781   5.453  13.249  0.9369  2.7950 -0.9558
15832TIP3    H268988   4.666   5.526  13.316 -0.3187  0.2275 -0.1685
15833TIP3   OH268989   1.555   5.607   4.834 -0.5852 -0.2321 -0.2007
15833TIP3    H168990   1.536   5.696   4.804  0.8523 -0.3957 -1.7070
15833TIP3    H268991   1.479   5.584   4.888 -2.0786  1.0489 -1.6249
15834TIP3   OH268992   5.426   1.394   3.369  0.2084 -0.0162 -0.3737
15834TIP3    H168993   5.418   1.316   3.425 -0.2575 -0.1240 -0.5858
15834TIP3    H268994   5.475   1.363   3.292  0.3051 -0.0175 -0.3129
15835TIP3   OH268995   4.056   6.770  15.536  0.4158 -0.3527 -0.1806
15835TIP3    H168996   4.140   6.797  15.500  0.3704  3.1311  1.8726
15835TIP3    H268997   4.076   6.692  15.588  2.5657  0.6787  0.6690
15836TIP3   OH268998   3.308   3.116   1.853 -0.0955  0.5345  0.0695
15836TIP3    H168999   3.387   3.166   1.830 -0.1371  0.2466 -0.7354
15836TIP3    H269000   3.241   3.150   1.794 -0.5103  0.5890  0.5670
15837TIP3   OH269001   2.586   4.980  10.341  0.4097 -0.4549  0.9264
15837TIP3    H169002   2.513   4.955  10.398  0.8694 -2.1396  0.8234
15837TIP3    H269003   2.587   4.914  10.272 -0.3551  1.7156 -1.3265
15838TIP3   OH269004   6.596   4.236   5.975  0.5801  0.2632 -0.6995
15838TIP3    H169005   6.684   4.217   5.942  0.8975  1.0898 -0.3582
15838TIP3    H269006   6.605   4.320   6.020 -0.4911  0.6020 -1.0900
15839TIP3   OH269007   3.412   0.494  16.600 -0.5992 -0.2288 -0.0821
15839TIP3    H169008   3.392   0.514  16.508  0.8993 -1.3904 -0.7146
15839TIP3    H269009   3.493   0.543  16.617 -0.1373 -1.0642  0.1813
15840TIP3   OH269010   5.631   2.741  14.792 -0.5715 -0.8101 -0.0947
15840TIP3    H169011   5.710   2.707  14.833 -0.5472 -2.1649 -1.2009
15840TIP3    H269012   5.562   2.729  14.858  0.0057 -0.1378  0.6574
15841TIP3   OH269013   5.320   3.960  15.849 -0.2100 -0.9173 -0.0072
15841TIP3    H169014   5.370   3.993  15.774  0.0456  2.4513  1.4650
15841TIP3    H269015   5.229   3.985  15.830 -0.1867 -0.3095  0.6382
15842TIP3   OH269016   2.594   4.666   2.136 -0.2557  0.5710  0.5802
15842TIP3    H169017   2.603   4.578   2.174  0.6970  0.3830 -0.0531
15842TIP3    H269018   2.513   4.700   2.174 -0.3366 -0.3585  1.2794
15843TIP3   OH269019   6.353   0.266  11.734  0.1791  0.0851 -0.3140
15843TIP3    H169020   6.413   0.263  11.808  1.2429  1.9630 -1.0126
15843TIP3    H269021   6.411   0.267  11.657 -0.7998  0.4517 -1.0651
15844TIP3   OH269022   5.788   4.349   1.801  0.8327 -0.0384  0.3422
15844TIP3    H169023   5.774   4.310   1.716  2.4775  0.3615 -0.1501
15844TIP3    H269024   5.808   4.441   1.783 -0.2619  0.4164  1.2780
15845TIP3   OH269025   2.704   5.756   3.647  0.2349  0.1567 -0.2747
15845TIP3    H169026   2.675   5.682   3.701 -0.5212  1.6122  1.4216
15845TIP3    H269027   2.625   5.786   3.602  0.5915 -0.2017 -1.1584
15846TIP3   OH269028   5.193   1.534   3.398  0.0462 -0.2401 -0.4934
15846TIP3    H169029   5.138   1.460   3.425 -0.2489  0.1139 -0.1196
15846TIP3    H269030   5.282   1.497   3.397 -0.0597 -0.5240 -0.0066
15847TIP3   OH269031   5.274   4.831   2.211  0.7749  0.4023 -0.1839
15847TIP3    H169032   5.216   4.900   2.181 -0.9513 -0.0889  1.7765
15847TIP3    H269033   5.221   4.751   2.207  2.1332 -0.5009 -0.6905
15848TIP3   OH269034   3.237   6.658  13.376  0.2692  0.3608 -0.8984
15848TIP3    H169035   3.292   6.736  13.389 -1.9865  1.7489  1.1021
15848TIP3    H269036   3.178   6.683  13.305 -1.4185  1.1515  0.7000
15849TIP3   OH269037   4.391   4.624  14.517 -0.4067 -0.0045 -0.3918
15849TIP3    H169038   4.440   4.549  14.483  0.3679  0.0305  0.6232
15849TIP3    H269039   4.341   4.589  14.590 -0.0406  0.4639  0.0900
15850TIP3   OH269040   2.014   5.099  15.938  0.2306 -0.1117 -0.2758
15850TIP3    H169041   2.053   5.036  15.999 -1.1909 -1.5217 -0.7586
15850TIP3    H269042   1.942   5.051  15.897 -2.0339  2.3466  0.5678
15851TIP3   OH269043   3.816   1.483  12.488  0.1559  0.6842 -0.1017
15851TIP3    H169044   3.732   1.443  12.512 -0.5559  1.1657 -1.6616
15851TIP3    H269045   3.799   1.577  12.490  1.3463  0.9010  1.8700
15852TIP3   OH269046   0.262   0.633  15.251  0.5592  0.5112 -0.4438
15852TIP3    H169047   0.174   0.657  15.278 -0.1583 -1.8645 -0.4791
15852TIP3    H269048   0.293   0.708  15.201 -1.6828  1.1437 -0.9806
15853TIP3   OH269049   3.111   3.159   3.818 -0.0373 -0.3804 -0.2261
15853TIP3    H169050   3.147   3.185   3.733  1.3410 -0.3083  0.3401
15853TIP3    H269051   3.022   3.193   3.818  0.7586  1.8897 -0.6401
15854TIP3   OH269052   5.451   3.260   0.773 -0.1082  0.4178 -0.0480
15854TIP3    H169053   5.539   3.224   0.772 -0.6145 -0.9704 -2.0494
15854TIP3    H269054   5.452   3.329   0.707 -0.5714  0.2006 -0.2891
15855TIP3   OH269055   6.487   4.502   0.822  0.0530  0.0659  0.4268
15855TIP3    H169056   6.508   4.522   0.731  1.1207 -0.3147  0.5816
15855TIP3    H269057   6.571   4.491   0.865 -0.4373 -2.0501  0.9529
15856TIP3   OH269058   1.995   5.565   6.386 -0.0539  0.0866  0.3580
15856TIP3    H169059   1.937   5.585   6.459  0.9001 -0.9094  1.4167
15856TIP3    H269060   1.936   5.541   6.314 -0.9890  0.6855  0.9072
15857TIP3   OH269061   4.983   0.342   1.361  0.3411  0.0591 -0.7574
15857TIP3    H169062   4.937   0.303   1.435 -1.1263 -0.0621 -1.7007
15857TIP3    H269063   5.022   0.267   1.316  2.9577  0.2719  0.9193
15858TIP3   OH269064   4.994   3.562   1.272  0.5396 -0.2511  0.4207
15858TIP3    H169065   4.950   3.610   1.202 -1.4072 -1.9178  0.4181
15858TIP3    H269066   4.999   3.472   1.240 -0.9081 -1.1826  2.5808
15859TIP3   OH269067   2.474   6.094  12.893  0.3033  0.3246 -0.1474
15859TIP3    H169068   2.448   6.017  12.842  1.0754  0.2905 -0.5081
15859TIP3    H269069   2.412   6.097  12.965  1.4082 -1.7939  0.9758
15860TIP3   OH269070   3.748   5.278  13.685  0.2470 -0.0583 -0.6381
15860TIP3    H169071   3.726   5.303  13.774 -0.9472  0.9647 -1.1952
15860TIP3    H269072   3.731   5.356  13.632 -1.3629 -1.3144 -2.1113
15861TIP3   OH269073   5.453   3.774  14.685  0.4529  0.0697 -0.0908
15861TIP3    H169074   5.469   3.868  14.686  0.2149  0.1096 -0.0714
15861TIP3    H269075   5.358   3.765  14.675  0.2531 -0.1474  1.6173
15862TIP3   OH269076   0.099   2.360   0.822  0.0340 -0.5338  0.0748
15862TIP3    H169077   0.100   2.430   0.888  1.7476  1.5096 -1.9615
15862TIP3    H269078   0.046   2.395   0.751  0.3266 -1.6251 -0.7021
15863TIP3   OH269079   1.697   3.953  16.196  0.4999 -0.0644 -0.0688
15863TIP3    H169080   1.770   4.008  16.223  0.5295 -0.3515  0.4357
15863TIP3    H269081   1.722   3.864  16.222 -0.2508 -0.0953  0.5962
15864TIP3   OH269082   4.142   6.124  12.595 -0.2713  0.0510 -0.0632
15864TIP3    H169083   4.209   6.162  12.653  1.0244  0.2498 -1.6111
15864TIP3    H269084   4.078   6.085  12.655  1.4942 -0.6177  1.4896
15865TIP3   OH269085   5.174   0.447  11.306 -0.5665 -0.3447  0.1648
15865TIP3    H169086   5.206   0.532  11.335 -0.0972 -0.4905  0.0893
15865TIP3    H269087   5.237   0.384  11.342  0.2311 -0.5043 -1.4653
15866TIP3   OH269088   2.203   3.274  16.112  0.6627 -0.2558  0.3377
15866TIP3    H169089   2.169   3.358  16.141 -0.8097 -1.4470  2.3547
15866TIP3    H269090   2.133   3.237  16.059  1.4518 -0.0853 -0.8530
15867TIP3   OH269091   1.561   1.937  14.000  0.4430  0.0044  0.5524
15867TIP3    H169092   1.538   2.027  14.025  2.7364  0.2391  2.0961
15867TIP3    H269093   1.524   1.883  14.070 -0.0120 -0.1586  0.1897
15868TIP3   OH269094   0.746   0.030   2.062 -0.6340 -0.2062 -0.1507
15868TIP3    H169095   0.724   0.014   2.154 -0.6331  2.0606  0.3055
15868TIP3    H269096   0.664   0.012   2.015 -0.2016 -3.0435 -0.0144
15869TIP3   OH269097   4.136   4.055   2.440 -0.4072  0.2792  0.3930
15869TIP3    H169098   4.178   4.138   2.462 -1.7985  1.2521 -0.4849
15869TIP3    H269099   4.103   4.022   2.524  0.3548  0.4814  0.7840
15870TIP3   OH269100   1.599   4.105  15.632 -0.0066  1.1589  0.6451
15870TIP3    H169101   1.530   4.098  15.698 -0.6979  0.1542 -0.1635
15870TIP3    H269102   1.664   4.041  15.659 -1.2136 -0.7218 -0.6930
15871TIP3   OH269103   4.581   0.962  15.571  0.3415 -0.7253 -0.4908
15871TIP3    H169104   4.596   0.989  15.480 -0.4267  1.9572  0.0871
15871TIP3    H269105   4.659   0.991  15.618 -0.4249  0.4349  0.1242
15872TIP3   OH269106   3.541   3.226   1.777  0.5850  0.0021  0.1913
15872TIP3    H169107   3.627   3.205   1.815  1.0512  1.2020 -0.1427
15872TIP3    H269108   3.558   3.235   1.683  0.0850  0.2051  0.1174
15873TIP3   OH269109   3.168   2.094  13.265 -0.0460 -0.4261  0.1593
15873TIP3    H169110   3.208   2.177  13.291  0.0409  0.1051 -1.5513
15873TIP3    H269111   3.101   2.118  13.201 -2.7241 -1.3646  2.4329
15874TIP3   OH269112   0.795   2.470   0.125  0.3574 -0.2116 -0.1339
15874TIP3    H169113   0.710   2.428   0.115  1.0530 -1.6400 -0.3154
15874TIP3    H269114   0.806   2.522   0.045 -0.9434  1.1842  0.5384
15875TIP3   OH269115   1.147   5.865  14.430  0.4529 -0.0030 -0.6067
15875TIP3    H169116   1.163   5.785  14.481  0.5861  0.7777  0.6250
15875TIP3    H269117   1.196   5.852  14.349  1.7721 -0.5145  0.2363
15876TIP3   OH269118   1.153   1.414   3.948  0.3552 -0.1585  0.2849
15876TIP3    H169119   1.172   1.321   3.939  3.4144  0.4917 -1.2590
15876TIP3    H269120   1.118   1.440   3.862  0.2688  0.2650  0.4451
15877TIP3   OH269121   5.105   1.844   0.207 -0.8910 -0.2137 -0.0796
15877TIP3    H169122   5.076   1.758   0.177  1.2795 -1.1174  0.1642
15877TIP3    H269123   5.062   1.907   0.149 -0.7550 -1.6109 -1.7564
15878TIP3   OH269124   0.285   5.282  17.181 -0.0455 -0.0071  0.1838
15878TIP3    H169125   0.317   5.308  17.094 -1.2290 -0.5785 -0.4427
15878TIP3    H269126   0.304   5.357  17.237  1.6846 -0.0253 -0.3201
15879TIP3   OH269127   3.155   6.401  15.217 -0.3826  0.7339  0.4631
15879TIP3    H169128   3.175   6.384  15.125 -0.8816 -1.1439  0.6692
15879TIP3    H269129   3.167   6.496  15.226 -0.1557  0.9468 -1.4819
15880TIP3   OH269130   0.289   2.622   3.504  1.0147 -0.2365  0.1749
15880TIP3    H169131   0.378   2.597   3.478  1.9368  1.4092  1.5076
15880TIP3    H269132   0.294   2.716   3.518 -0.5191 -0.3558  1.8994
15881TIP3   OH269133   0.485   3.126  16.333 -0.2856  0.3252  0.0429
15881TIP3    H169134   0.515   3.210  16.299  0.4479  0.2401  0.4498
15881TIP3    H269135   0.552   3.064  16.306  1.0559  0.4635  2.6989
15882TIP3   OH269136   2.829   3.166   3.821  0.4657  0.5112 -0.5786
15882TIP3    H169137   2.810   3.173   3.727 -0.2340 -1.3988 -0.6313
15882TIP3    H269138   2.794   3.246   3.859 -3.6476 -0.6578 -1.3532
15883TIP3   OH269139   1.201   1.906   4.654  0.3084 -0.6463 -0.1277
15883TIP3    H169140   1.188   1.929   4.562  1.5455 -0.5975 -0.3095
15883TIP3    H269141   1.184   1.987   4.702  1.8205 -0.0502 -0.5224
15884TIP3   OH269142   2.703   0.054  17.109 -0.5528  0.1530 -0.6246
15884TIP3    H169143   2.610   0.042  17.089 -0.8159  2.1827 -0.8426
15884TIP3    H269144   2.742   0.082  17.026  0.4920 -1.6378 -0.7816
15885TIP3   OH269145   6.555   1.086  16.438  0.2027 -0.0859 -0.0571
15885TIP3    H169146   6.480   1.049  16.391  0.1004  0.1006 -0.0420
15885TIP3    H269147   6.517   1.123  16.518  0.0774  1.3068 -0.7252
15886TIP3   OH269148   6.231   4.645  11.078 -0.5295  0.4002 -0.5015
15886TIP3    H169149   6.143   4.683  11.088  0.0138  2.0681 -1.5670
15886TIP3    H269150   6.266   4.688  10.999  0.6422 -1.4301 -1.0280
15887TIP3   OH269151   2.429   2.729  11.126 -0.0074 -0.2322  0.3251
15887TIP3    H169152   2.414   2.823  11.137  0.3014  0.1920 -2.2467
15887TIP3    H269153   2.389   2.689  11.203  1.1328  2.0694  2.2572
15888TIP3   OH269154   4.993   6.300   2.317 -1.0805  0.3368  0.3596
15888TIP3    H169155   5.074   6.255   2.341 -2.6159 -1.8111  1.9162
15888TIP3    H269156   5.021   6.370   2.258  2.3413  2.2607  3.8137
15889TIP3   OH269157   4.996   2.737   4.545 -0.4501  0.1118  0.3034
15889TIP3    H169158   4.981   2.705   4.455  0.5320 -0.8827  0.4654
15889TIP3    H269159   4.932   2.807   4.557 -1.2481 -0.3958 -0.8393
15890TIP3   OH269160   2.351   0.462   3.665  0.4559  0.0154  0.0851
15890TIP3    H169161   2.404   0.388   3.696  0.9716 -0.0213 -0.8420
15890TIP3    H269162   2.413   0.534   3.658  0.7266 -0.3609 -2.2738
15891TIP3   OH269163   6.125   1.596   2.422  0.1007  0.4747  0.0875
15891TIP3    H169164   6.201   1.624   2.372 -0.1470  2.5327  0.7763
15891TIP3    H269165   6.052   1.601   2.360  0.2996 -0.1491 -0.2009
15892TIP3   OH269166   0.969   4.284   1.253  0.4500  0.4014  0.5729
15892TIP3    H169167   1.061   4.272   1.231  0.6817  1.3680  0.9449
15892TIP3    H269168   0.952   4.376   1.234 -0.4227  0.2517  0.5766
15893TIP3   OH269169   2.832   0.713  16.270 -0.1878 -0.2171 -0.2406
15893TIP3    H169170   2.833   0.674  16.182 -1.1676  1.7863 -1.2162
15893TIP3    H269171   2.778   0.654  16.322 -0.7549 -0.7258 -1.3740
15894TIP3   OH269172   4.244   6.482   5.333  0.1057  0.4994 -0.1054
15894TIP3    H169173   4.243   6.534   5.252  0.3442  0.9855  0.2009
15894TIP3    H269174   4.319   6.516   5.382  0.6165 -0.5344 -0.1517
15895TIP3   OH269175   2.293   2.885   3.761 -0.1467  0.0063  0.1624
15895TIP3    H169176   2.297   2.950   3.691 -0.5079 -1.0052 -0.8136
15895TIP3    H269177   2.354   2.816   3.734 -0.5020 -0.5304  0.7007
15896TIP3   OH269178   5.640   4.061   5.329  0.3548  0.3624 -0.2625
15896TIP3    H169179   5.603   4.138   5.373  0.7336 -0.5289  1.7320
15896TIP3    H269180   5.697   4.021   5.395  1.0064 -1.0339 -1.6188
15897TIP3   OH269181   3.487   6.403  11.004 -0.3433 -0.2680 -0.4290
15897TIP3    H169182   3.547   6.470  10.971 -0.0911  0.4624  1.4039
15897TIP3    H269183   3.414   6.404  10.942 -0.3886  1.8186 -0.4186
15898TIP3   OH269184   2.768   4.466  11.050 -0.3595 -0.3881 -0.1040
15898TIP3    H169185   2.804   4.477  10.962  1.2917  0.0464  0.5898
15898TIP3    H269186   2.782   4.551  11.092 -3.2261  0.1775 -0.0958
15899TIP3   OH269187   4.010   2.605   2.849 -0.2157  0.4012 -0.5898
15899TIP3    H169188   4.041   2.583   2.937 -0.6655  0.0137 -0.5222
15899TIP3    H269189   4.048   2.691   2.831 -1.8677  1.4990  0.8495
15900TIP3   OH269190   1.719   0.074  10.971  0.6797  0.2086 -0.0945
15900TIP3    H169191   1.641   0.033  11.010  0.7080  1.2433  1.1365
15900TIP3    H269192   1.742   0.017  10.897  0.3153 -1.5749  1.0987
15901TIP3   OH269193   6.058   2.545  11.915  0.0344 -0.8273 -0.1333
15901TIP3    H169194   5.963   2.551  11.925 -0.3393 -3.0404 -1.6261
15901TIP3    H269195   6.070   2.510  11.826  2.3179  0.6837 -0.4968
15902TIP3   OH269196   5.415   5.561  11.760 -0.4436 -0.3403  0.7229
15902TIP3    H169197   5.502   5.566  11.798  0.1124  0.8583 -0.6237
15902TIP3    H269198   5.382   5.475  11.787  0.7529 -0.4063  2.0558
15903TIP3   OH269199   5.550   4.534  11.197  0.3400  0.9111 -0.3884
15903TIP3    H169200   5.588   4.563  11.114  0.7363 -1.6457 -1.2106
15903TIP3    H269201   5.502   4.454  11.175  0.1822  0.3207  1.7891
15904TIP3   OH269202   5.062   1.109  13.565 -0.6246 -0.1233 -0.1933
15904TIP3    H169203   5.044   1.202  13.580 -0.6059 -0.3714  1.6452
15904TIP3    H269204   5.027   1.092  13.478 -1.5743  1.3721 -0.1527
15905TIP3   OH269205   2.313   3.288  11.747  0.8301  0.3652  0.1774
15905TIP3    H169206   2.336   3.205  11.788  0.6284  0.2307  0.0246
15905TIP3    H269207   2.395   3.336  11.740  1.0596 -0.0931 -0.3399
15906TIP3   OH269208   4.932   6.652  12.908 -0.4224 -0.5618  0.2082
15906TIP3    H169209   4.973   6.614  12.986  0.2496 -0.4844 -0.0942
15906TIP3    H269210   4.918   6.744  12.930  0.7852 -0.2680 -0.1270
15907TIP3   OH269211   0.242   1.800   3.697 -0.0664  0.3192  0.3387
15907TIP3    H169212   0.325   1.764   3.665 -0.1635 -0.1546  0.6041
15907TIP3    H269213   0.262   1.890   3.721  0.4721  0.0816  0.7935
15908TIP3   OH269214   5.811   1.372   1.791 -0.0687  0.0583 -0.2764
15908TIP3    H169215   5.903   1.392   1.772  0.0315 -0.1707 -0.0307
15908TIP3    H269216   5.785   1.312   1.721 -0.0785  0.2495 -0.4379
15909TIP3   OH269217   2.699   0.037  13.010  0.5699 -0.1463 -0.3503
15909TIP3    H169218   2.746   0.073  12.935  2.3271  0.9740  1.2039
15909TIP3    H269219   2.746  -0.044  13.030 -1.1364 -1.5324 -1.6059
15910TIP3   OH269220   5.793   4.743  13.347  0.0780  0.6176  0.2378
15910TIP3    H169221   5.868   4.736  13.288  1.1186  1.6315  1.3810
15910TIP3    H269222   5.780   4.837  13.357 -0.6277  0.4506  0.9461
15911TIP3   OH269223   6.827   2.519  13.968 -0.0240  0.3607  0.7634
15911TIP3    H169224   6.787   2.559  14.045 -2.1734 -0.7693  0.2826
15911TIP3    H269225   6.889   2.456  14.004 -1.9982 -1.1671  1.6688
15912TIP3   OH269226   2.440   3.052  14.396  0.1547  0.5278 -0.5345
15912TIP3    H169227   2.533   3.046  14.375 -0.0523 -0.2110 -1.2815
15912TIP3    H269228   2.434   3.128  14.453  1.3176  0.1898  0.0826
15913TIP3   OH269229   5.218   1.199   2.582  0.0305 -0.4175  0.5201
15913TIP3    H169230   5.219   1.264   2.652  2.6236  0.1403  0.0703
15913TIP3    H269231   5.304   1.208   2.540 -0.9300 -1.6447 -1.8869
15914TIP3   OH269232   6.049   4.307   5.106 -0.1124 -0.1798  0.1194
15914TIP3    H169233   6.031   4.395   5.073 -0.2737 -0.1631  0.2495
15914TIP3    H269234   6.058   4.253   5.027  0.1128 -0.0230  0.0385
15915TIP3   OH269235   5.601   0.282   5.978 -0.7107  0.1991  0.0315
15915TIP3    H169236   5.615   0.233   6.059 -0.3335 -2.1543 -1.3808
15915TIP3    H269237   5.616   0.374   6.003  1.2434 -0.6157  2.2224
15916TIP3   OH269238   5.712   5.564  12.315  0.4207 -0.1038  0.2473
15916TIP3    H169239   5.657   5.610  12.252  2.8653  0.7595 -1.3900
15916TIP3    H269240   5.741   5.633  12.375  1.4099 -0.1308 -0.1922
15917TIP3   OH269241   4.068   0.971  15.820 -0.2364  0.2016  0.0313
15917TIP3    H169242   4.087   1.035  15.888  0.3421 -0.6042  0.6435
15917TIP3    H269243   4.150   0.960  15.773 -0.3035 -0.1725 -0.0009
15918TIP3   OH269244   6.282   3.956   1.260 -0.2316  0.4174 -0.0460
15918TIP3    H169245   6.220   3.886   1.239  0.7285 -0.7510  0.8431
15918TIP3    H269246   6.270   4.021   1.191 -4.0213  1.3733  1.2775
15919TIP3   OH269247   1.908   5.037   4.464 -0.0828 -0.3029  0.3714
15919TIP3    H169248   2.002   5.039   4.447  0.2364 -0.9557  1.8473
15919TIP3    H269249   1.867   5.071   4.385  1.3189 -1.5025 -0.9119
15920TIP3   OH269250   5.701   4.067   3.846 -0.4121 -0.0642  0.1219
15920TIP3    H169251   5.753   4.025   3.914  0.8880 -1.6556 -1.7320
15920TIP3    H269252   5.659   4.142   3.889  1.2966 -0.3044  2.3301
15921TIP3   OH269253   6.287   6.405   4.083  0.7130 -0.5605 -0.2647
15921TIP3    H169254   6.300   6.317   4.119 -1.0863 -1.3428 -1.3787
15921TIP3    H269255   6.318   6.399   3.993 -0.8737 -0.5713 -0.8501
15922TIP3   OH269256   2.403   6.264  10.640 -0.3401 -0.0340  0.0828
15922TIP3    H169257   2.339   6.262  10.569 -0.1469  1.4623 -0.1685
15922TIP3    H269258   2.361   6.216  10.711 -1.2784 -0.0299 -0.4469
15923TIP3   OH269259   2.370   3.573  14.893 -0.1191 -0.2328  0.0166
15923TIP3    H169260   2.417   3.630  14.955 -0.2098  1.3142 -1.2943
15923TIP3    H269261   2.280   3.573  14.924 -0.1536  0.4891 -0.0702
15924TIP3   OH269262   0.597   3.942  12.771  0.2210  0.6121 -0.1445
15924TIP3    H169263   0.594   4.037  12.786  1.3970  0.7242 -0.5443
15924TIP3    H269264   0.526   3.908  12.824 -0.3613  1.7440 -0.1581
15925TIP3   OH269265   1.438   4.893  14.712  0.0707  0.5905 -0.3333
15925TIP3    H169266   1.391   4.851  14.784 -1.0969  1.0669 -0.7917
15925TIP3    H269267   1.520   4.844  14.706 -0.9732 -1.2615 -0.4586
15926TIP3   OH269268   2.344   0.564  14.129 -1.0494  0.4091 -0.9309
15926TIP3    H169269   2.414   0.623  14.099  0.2906  0.5523  2.1491
15926TIP3    H269270   2.349   0.490  14.068  1.1862  0.8390 -1.3889
15927TIP3   OH269271   0.634   0.022   3.026 -0.5370  0.4264  0.5620
15927TIP3    H169272   0.618   0.116   3.022  0.6012  0.6523  0.9929
15927TIP3    H269273   0.716   0.014   3.075  0.1384 -0.7026 -0.7018
15928TIP3   OH269274   6.012   3.381  11.594  0.6460 -0.3979  0.9220
15928TIP3    H169275   5.997   3.432  11.514  1.0348 -1.8313 -0.0961
15928TIP3    H269276   5.957   3.424  11.659 -2.0153 -0.8922 -0.8260
15929TIP3   OH269277   6.307   3.295  16.851  0.1757  0.2766 -0.0930
15929TIP3    H169278   6.302   3.241  16.930 -0.7308 -0.3033 -0.5359
15929TIP3    H269279   6.395   3.332  16.853  0.6164 -0.7704  0.5141
15930TIP3   OH269280   3.444   3.732   1.891  0.3465 -0.3959 -0.2209
15930TIP3    H169281   3.371   3.676   1.868  0.3772  0.0733 -1.5291
15930TIP3    H269282   3.430   3.812   1.841 -0.5334  1.4667  2.7209
15931TIP3   OH269283   2.148   4.843  14.144 -0.1433  0.1416  0.5906
15931TIP3    H169284   2.178   4.909  14.081  1.3528  0.3798  1.5056
15931TIP3    H269285   2.139   4.763  14.093 -1.0748  0.8185 -0.3517
15932TIP3   OH269286   4.591   1.962   4.879 -0.5048 -0.6559 -0.5055
15932TIP3    H169287   4.612   1.870   4.899 -0.4801 -0.5177  0.1328
15932TIP3    H269288   4.530   1.987   4.948 -1.7620 -0.6575 -1.5795
15933TIP3   OH269289   2.548   1.684   2.312  0.3786  0.2742  0.4507
15933TIP3    H169290   2.597   1.638   2.381 -2.3604 -0.9747  1.7241
15933TIP3    H269291   2.508   1.759   2.356 -1.2235 -0.4126  0.2478
15934TIP3   OH269292   3.077   2.269  13.076 -0.3759 -0.0388  0.1084
15934TIP3    H169293   3.145   2.334  13.089 -1.1955  0.7705  0.5022
15934TIP3    H269294   3.074   2.255  12.981 -0.2894  0.6115  0.0056
15935TIP3   OH269295   1.679   4.791  11.873 -0.6069 -0.6043  0.2259
15935TIP3    H169296   1.729   4.714  11.843  0.2144  0.2790 -0.7356
15935TIP3    H269297   1.714   4.863  11.821 -1.7204  0.3391  0.7688
15936TIP3   OH269298   2.464   0.086   3.271  0.1935 -0.0725 -0.2736
15936TIP3    H169299   2.397   0.153   3.255 -2.4490 -2.6747 -1.0658
15936TIP3    H269300   2.439   0.046   3.354 -1.9811 -3.8106 -2.4713
15937TIP3   OH269301   2.713   2.319  10.694  1.6418  0.1777 -0.5045
15937TIP3    H169302   2.657   2.262  10.641  1.6829  1.8457 -2.5021
15937TIP3    H269303   2.780   2.261  10.728  2.4161 -0.8730 -3.4723
15938TIP3   OH269304   6.462   5.538  12.135 -0.0278 -0.2253 -0.1113
15938TIP3    H169305   6.447   5.623  12.175  0.7821  0.2898 -0.8554
15938TIP3    H269306   6.376   5.509  12.107 -0.3429  0.2371  0.3600
15939TIP3   OH269307   5.568   1.019   2.888  0.2624  0.3399  0.8135
15939TIP3    H169308   5.543   1.110   2.873  1.4459  0.5416 -0.0717
15939TIP3    H269309   5.605   1.017   2.976  1.4314  0.9910  0.3485
15940TIP3   OH269310   5.638   0.538  10.726  0.2228  0.3949  0.0547
15940TIP3    H169311   5.619   0.486  10.648  1.5725  1.3355 -0.9613
15940TIP3    H269312   5.553   0.552  10.768 -0.3338 -1.4347 -0.3761
15941TIP3   OH269313   1.461   0.905  15.582 -0.0066 -0.2472 -0.1629
15941TIP3    H169314   1.495   0.864  15.503 -0.1910  1.3018 -1.0799
15941TIP3    H269315   1.367   0.888  15.580 -0.1894  0.8018 -0.9152
15942TIP3   OH269316   1.853   5.956  11.980  0.2965 -0.1666 -0.0226
15942TIP3    H169317   1.768   5.992  11.957  0.2272 -0.6296 -0.4913
15942TIP3    H269318   1.836   5.864  12.000  0.8235 -0.5018 -1.0311
15943TIP3   OH269319   5.347   6.411  12.950 -0.0626  0.6195  0.3210
15943TIP3    H169320   5.338   6.497  12.908  0.9906  0.3908 -0.4316
15943TIP3    H269321   5.292   6.416  13.027 -0.9750  1.5546 -0.3580
15944TIP3   OH269322   0.245   3.151  11.616 -0.2411  0.7928 -0.6586
15944TIP3    H169323   0.174   3.086  11.620  0.6169 -0.1028  0.8205
15944TIP3    H269324   0.233   3.205  11.694 -0.0323  1.4655 -1.0815
15945TIP3   OH269325   1.045   3.337   1.217  0.0132  0.6239 -0.1875
15945TIP3    H169326   1.086   3.335   1.131  1.3148 -1.3554  0.3980
15945TIP3    H269327   1.046   3.429   1.242  1.6739  0.9643 -1.3496
15946TIP3   OH269328   6.728   1.086   4.571  0.0927 -0.1286 -0.3572
15946TIP3    H169329   6.808   1.080   4.519  0.8649 -0.4736  0.8290
15946TIP3    H269330   6.705   1.179   4.570  0.9031  0.0831 -0.1438
15947TIP3   OH269331   6.528   6.477   2.152 -0.4669 -0.1446 -0.1082
15947TIP3    H169332   6.582   6.551   2.126 -3.1550  1.3485 -1.8268
15947TIP3    H269333   6.591   6.409   2.175  2.1374  1.4100 -2.0835
15948TIP3   OH269334   2.491   4.739   2.679  0.2932  0.0177  0.0155
15948TIP3    H169335   2.545   4.727   2.601 -1.9589 -1.7466 -1.4216
15948TIP3    H269336   2.460   4.829   2.674  1.4499  0.4116 -0.2399
15949TIP3   OH269337   0.185   3.033   1.759  0.6953 -0.4571 -0.7744
15949TIP3    H169338   0.275   3.065   1.761  0.4851  0.1639  1.4324
15949TIP3    H269339   0.133   3.110   1.737  0.5410 -0.2337  0.3061
15950TIP3   OH269340   3.928   4.060  12.789  0.0002  0.2739 -0.5313
15950TIP3    H169341   3.962   4.006  12.860 -0.1709  0.3815 -0.3657
15950TIP3    H269342   3.833   4.047  12.793  0.0525 -0.5178 -1.3802
15951TIP3   OH269343   3.757   0.720   1.954  0.2724  0.2375  0.1008
15951TIP3    H169344   3.844   0.757   1.941  0.7624  0.1684  2.6605
15951TIP3    H269345   3.744   0.722   2.049 -2.4132 -0.0281 -0.1785
15952TIP3   OH269346   5.499   3.728   1.402  0.6858 -0.0429 -0.3715
15952TIP3    H169347   5.533   3.639   1.400  0.7461 -0.1849 -5.6795
15952TIP3    H269348   5.405   3.719   1.385  0.6191  0.9083 -0.5573
15953TIP3   OH269349   5.175   2.941   5.485 -0.1548 -0.1915  0.1232
15953TIP3    H169350   5.132   3.014   5.442 -1.1252 -1.0472 -0.4089
15953TIP3    H269351   5.109   2.907   5.546  0.5124 -0.2340  0.8433
15954TIP3   OH269352   0.486   1.501   3.736 -0.0315  0.0595 -0.1748
15954TIP3    H169353   0.504   1.589   3.769 -0.4060  0.1299 -0.1536
15954TIP3    H269354   0.516   1.443   3.805 -2.5783  0.2491  1.1867
15955TIP3   OH269355   1.659   1.881  11.478  0.4437  0.9670 -0.8486
15955TIP3    H169356   1.645   1.923  11.563  1.4568  1.5413 -0.9529
15955TIP3    H269357   1.746   1.911  11.451  1.0399 -0.9077 -1.1071
15956TIP3   OH269358   3.815   6.802  11.070 -0.3136 -0.1565  0.0057
15956TIP3    H169359   3.879   6.855  11.118  1.7513 -2.2519 -0.3109
15956TIP3    H269360   3.733   6.851  11.080  0.9166  1.7117  1.9671
15957TIP3   OH269361   6.427   4.608   4.791  0.6007  0.2505  0.3653
15957TIP3    H169362   6.346   4.559   4.777  0.0323  1.4477 -0.7061
15957TIP3    H269363   6.442   4.603   4.886 -0.8428  0.1860  0.6132
15958TIP3   OH269364   5.989   4.859   3.335 -0.6693  0.3317 -0.6887
15958TIP3    H169365   6.076   4.847   3.373 -0.5280  1.0018 -0.8027
15958TIP3    H269366   5.935   4.795   3.381 -0.6396  1.5061  1.0717
15959TIP3   OH269367   3.440   4.647   2.409  0.4966 -0.2556  0.1578
15959TIP3    H169368   3.465   4.687   2.493  3.4968  0.4703 -0.9589
15959TIP3    H269369   3.378   4.708   2.370 -0.3855 -0.2544  1.4833
15960TIP3   OH269370   6.110   3.407   1.466 -0.3141 -0.0244 -0.0584
15960TIP3    H169371   6.155   3.354   1.400 -1.2642 -1.6418  0.5251
15960TIP3    H269372   6.120   3.357   1.547 -1.3268  0.6530  0.5055
15961TIP3   OH269373   2.152   6.497   0.183  0.1768  0.4951 -0.4379
15961TIP3    H169374   2.166   6.414   0.229  0.1163 -0.0188 -1.3249
15961TIP3    H269375   2.061   6.519   0.200 -0.3172 -0.5392 -1.6392
15962TIP3   OH269376   0.910   1.638  11.260  0.2265 -0.3839 -0.2170
15962TIP3    H169377   0.952   1.697  11.323  2.9076 -1.3805 -0.9617
15962TIP3    H269378   0.850   1.695  11.212 -0.8052  0.7131  2.1711
15963TIP3   OH269379   1.036   1.947   4.162  0.3755  0.1634 -0.0548
15963TIP3    H169380   1.031   1.855   4.135  1.7346  0.2505 -0.7143
15963TIP3    H269381   1.042   1.995   4.079  1.6188  0.6746  0.3035
15964TIP3   OH269382   0.263   4.914  13.938 -0.3600 -0.2282  0.2159
15964TIP3    H169383   0.348   4.942  13.973  0.7048 -0.3451 -2.0603
15964TIP3    H269384   0.231   4.991  13.890 -0.2182 -0.9764 -1.1522
15965TIP3   OH269385   4.638   6.188   2.976  0.4282  0.0803 -0.3316
15965TIP3    H169386   4.717   6.173   3.028  0.6473  0.6872 -0.4818
15965TIP3    H269387   4.569   6.142   3.024  0.7272  0.1979  0.2209
15966TIP3   OH269388   1.179   5.285  11.826  0.4236 -0.4291 -0.1421
15966TIP3    H169389   1.232   5.320  11.755  1.1299 -1.2758 -0.0531
15966TIP3    H269390   1.243   5.249  11.888 -0.1837  0.2819  0.9149
15967TIP3   OH269391   3.228   6.078  17.154 -0.2446 -0.3368 -0.0994
15967TIP3    H169392   3.160   6.051  17.093 -0.3420  0.0606 -0.1727
15967TIP3    H269393   3.228   6.174  17.149  0.1029 -0.3211  0.1332
15968TIP3   OH269394   4.837   3.254  10.976 -0.0087 -0.5406  0.1746
15968TIP3    H169395   4.917   3.272  11.026  0.2445 -0.0940 -0.3704
15968TIP3    H269396   4.800   3.341  10.959  1.9061 -0.2591 -3.6153
15969TIP3   OH269397   1.745   5.465   6.605 -0.0361 -0.1019 -0.0688
15969TIP3    H169398   1.695   5.411   6.666  1.3880 -0.6575  0.6749
15969TIP3    H269399   1.831   5.474   6.646  0.1595  1.7403 -0.7576
15970TIP3   OH269400   0.812   1.384  13.382 -0.1863  0.4282 -0.0313
15970TIP3    H169401   0.849   1.351  13.464  1.6931 -1.4218 -1.5228
15970TIP3    H269402   0.777   1.306  13.338  0.6015  1.0368 -1.8251
15971TIP3   OH269403   1.314   6.734   5.947 -0.5681 -0.3566  0.7808
15971TIP3    H169404   1.333   6.644   5.920 -0.6793 -0.1193 -0.1208
15971TIP3    H269405   1.400   6.772   5.965 -0.4011 -0.2174 -0.2543
15972TIP3   OH269406   4.390   4.945  16.374 -0.1230  0.6226  0.4110
15972TIP3    H169407   4.315   4.987  16.415  0.9023 -0.5709  3.9031
15972TIP3    H269408   4.466   4.982  16.419  1.1408 -0.7724 -0.4673
15973TIP3   OH269409   2.322   5.159   2.517  0.3111  0.3795  0.0068
15973TIP3    H169410   2.268   5.223   2.472  0.5540  1.8829  1.7464
15973TIP3    H269411   2.261   5.090   2.544 -0.0697  0.1937 -1.2940
15974TIP3   OH269412   1.518   3.539   6.181  0.4429  0.8102  0.3806
15974TIP3    H169413   1.477   3.625   6.191  1.3690  1.1745  1.3221
15974TIP3    H269414   1.612   3.558   6.179  0.6408 -0.1494  0.2189
15975TIP3   OH269415   2.037   6.079   3.388  0.2820 -0.6682  0.3408
15975TIP3    H169416   2.109   6.090   3.450  0.4631  0.6554 -0.0664
15975TIP3    H269417   2.069   6.014   3.325  2.1965  1.6528 -1.2714
15976TIP3   OH269418   5.105   5.334  13.157  0.9381  0.3895 -0.4948
15976TIP3    H169419   5.198   5.346  13.179  0.4407 -0.0250  2.2465
15976TIP3    H269420   5.074   5.421  13.135  1.6992  0.7651 -0.1288
15977TIP3   OH269421   1.388   6.672   4.612  0.1680  0.0436 -0.2605
15977TIP3    H169422   1.357   6.656   4.700  1.5238 -0.2463  0.1883
15977TIP3    H269423   1.433   6.757   4.618 -0.6201  0.5217 -0.9180
15978TIP3   OH269424   5.152   1.199  11.759 -0.0247 -0.3500 -0.5576
15978TIP3    H169425   5.151   1.168  11.849 -4.0533 -2.5187 -1.0957
15978TIP3    H269426   5.163   1.121  11.706 -0.0159  0.5710 -1.9764
15979TIP3   OH269427   0.357   5.185   0.546  0.4384 -0.2343 -0.2892
15979TIP3    H169428   0.293   5.127   0.589 -0.6154  1.0414 -0.0705
15979TIP3    H269429   0.341   5.172   0.452 -1.1041  1.0223 -0.2492
15980TIP3   OH269430   2.544   5.010  11.070  0.2768  0.6812  0.6647
15980TIP3    H169431   2.598   5.085  11.095 -0.6274  1.8980 -0.8611
15980TIP3    H269432   2.549   5.007  10.975  0.6346 -1.5036  0.6908
15981TIP3   OH269433   4.800   5.351  17.132 -0.2411  0.5278 -0.6048
15981TIP3    H169434   4.856   5.275  17.117 -0.2270  0.1312  1.1986
15981TIP3    H269435   4.859   5.419  17.166 -0.7556  0.1240  1.2580
15982TIP3   OH269436   3.520   4.736  14.092  0.1705 -0.0796  0.2469
15982TIP3    H169437   3.538   4.803  14.158  0.5822  0.7527 -0.6873
15982TIP3    H269438   3.603   4.725  14.046 -1.1074  2.9482 -3.3701
15983TIP3   OH269439   2.603   6.747   0.504  0.2568  0.2501  0.3729
15983TIP3    H169440   2.577   6.684   0.571 -0.8513  1.6199  1.2698
15983TIP3    H269441   2.607   6.695   0.423  1.2853 -1.3522  1.3930
15984TIP3   OH269442   3.103   1.553   2.886  0.0565 -0.1012 -0.1928
15984TIP3    H169443   3.076   1.616   2.819  1.4458  1.7690  0.9214
15984TIP3    H269444   3.021   1.520   2.923 -0.7169  1.6607 -0.2680
15985TIP3   OH269445   1.028   0.087  11.691 -0.1603  0.5618  0.2701
15985TIP3    H169446   1.011   0.129  11.607 -0.7204  0.1122  0.1512
15985TIP3    H269447   0.994   0.148  11.757  0.2089  0.8786  0.1718
15986TIP3   OH269448   1.328   5.112   3.015  0.3963  0.3781  0.6328
15986TIP3    H169449   1.314   5.052   3.087  0.5001 -2.0907 -1.2696
15986TIP3    H269450   1.266   5.183   3.030 -0.6380 -0.8271  2.3311
15987TIP3   OH269451   5.879   4.196  11.473 -0.1092 -0.2186  0.6504
15987TIP3    H169452   5.842   4.219  11.388  1.8831 -0.8547 -0.4718
15987TIP3    H269453   5.946   4.262  11.489  2.9369 -2.6861 -0.7379
15988TIP3   OH269454   3.040   1.931  16.435  0.0800  0.2333 -0.7912
15988TIP3    H169455   3.130   1.935  16.468 -1.0862  1.1839  2.7441
15988TIP3    H269456   3.035   1.998  16.367  1.4345  2.1106  0.8455
15989TIP3   OH269457   3.685   4.269   2.202 -0.0034 -0.2746  0.5316
15989TIP3    H169458   3.650   4.327   2.269 -0.2181 -2.1307  2.1157
15989TIP3    H269459   3.777   4.256   2.227 -0.2106 -1.3610  0.7835
15990TIP3   OH269460   5.356   5.856  16.922  0.0425  0.9275  0.1375
15990TIP3    H169461   5.285   5.816  16.972  1.0915  0.2863  1.1728
15990TIP3    H269462   5.420   5.786  16.913  0.0803  1.1592 -1.7634
15991TIP3   OH269463   3.983   6.678   4.996  0.1423  0.1188  0.0447
15991TIP3    H169464   3.892   6.657   4.976  0.2617 -0.4449  0.0907
15991TIP3    H269465   4.033   6.604   4.962  0.4220 -0.5470  1.8046
15992TIP3   OH269466   4.829   0.051   1.398 -0.2157  0.3411 -0.5732
15992TIP3    H169467   4.818  -0.044   1.397 -2.0232  0.5013 -2.5968
15992TIP3    H269468   4.922   0.064   1.420 -0.1802 -1.8147  0.8213
15993TIP3   OH269469   5.155   4.947   2.731  0.0234  0.1220 -0.1083
15993TIP3    H169470   5.068   4.945   2.691  0.1155 -0.7572 -0.2705
15993TIP3    H269471   5.216   4.945   2.656  0.2061  1.5222 -0.0382
15994TIP3   OH269472   6.098   6.323   4.337  0.4344  0.5535  0.1873
15994TIP3    H169473   6.129   6.403   4.379  0.3278  1.4794 -1.3961
15994TIP3    H269474   6.020   6.350   4.289 -0.0854 -0.6985  0.3171
15995TIP3   OH269475   4.962   1.380   3.502 -0.0959  0.2364 -0.0970
15995TIP3    H169476   5.013   1.375   3.583 -0.5310 -2.0707  0.0990
15995TIP3    H269477   4.893   1.444   3.521 -0.2715 -0.3611  1.4310
15996TIP3   OH269478   3.055   3.620  15.996 -0.1233  1.0985 -0.0026
15996TIP3    H169479   2.985   3.603  16.059 -0.0150 -0.6588 -0.3128
15996TIP3    H269480   3.135   3.619  16.048 -0.2905  3.2099  0.3686
15997TIP3   OH269481   3.203   0.892   0.422 -0.4942 -0.2585  0.3340
15997TIP3    H169482   3.259   0.954   0.374  3.1526 -1.3588  2.7361
15997TIP3    H269483   3.162   0.945   0.490 -0.2729  0.1535  0.1533
15998TIP3   OH269484   5.658   0.007  14.181  0.0447  0.1382  0.0413
15998TIP3    H169485   5.619  -0.033  14.259  0.5546 -0.5896 -0.0678
15998TIP3    H269486   5.610   0.089  14.170 -2.1528 -1.1690 -0.6879
15999TIP3   OH269487   2.795   4.047  14.722  0.8437 -0.2895  0.3341
15999TIP3    H169488   2.708   4.085  14.712  0.0854 -2.0488 -0.1024
15999TIP3    H269489   2.815   4.008  14.637  1.3403 -1.2936  0.8862
16000TIP3   OH269490   5.118   4.110   2.962 -0.5135  0.4394 -0.4393
16000TIP3    H169491   5.171   4.043   2.918 -0.8560 -0.3854  0.3801
16000TIP3    H269492   5.153   4.193   2.928  1.8165 -0.0299  0.5950
16001TIP3   OH269493   2.748   6.643  11.716 -0.3461  0.1566  0.5049
16001TIP3    H169494   2.714   6.732  11.704 -0.2931  0.1123  0.0189
16001TIP3    H269495   2.678   6.586  11.687  0.4808  0.0738 -1.5403
16002TIP3   OH269496   3.488   1.657  10.675  0.6655 -0.5086 -0.3489
16002TIP3    H169497   3.409   1.703  10.648  1.8916  1.4458 -0.7618
16002TIP3    H269498   3.464   1.614  10.757 -0.6398  0.5803 -0.1340
16003TIP3   OH269499   0.120   2.251  11.889 -0.1931  0.4892  0.0131
16003TIP3    H169500   0.142   2.166  11.851 -0.8531  0.4362 -0.2701
16003TIP3    H269501   0.028   2.242  11.915 -0.0252  0.8422  0.7452
16004TIP3   OH269502   2.188   0.214   1.008  0.2515  0.0847  0.0689
16004TIP3    H169503   2.190   0.206   1.104  1.0508 -2.4331 -0.0895
16004TIP3    H269504   2.256   0.154   0.977 -0.6946  0.0344 -2.1140
16005TIP3   OH269505   2.025   0.302  10.718  0.1183 -0.0068  0.3071
16005TIP3    H169506   1.982   0.311  10.803  0.2965 -1.0898  0.5289
16005TIP3    H269507   1.981   0.228  10.676  0.7697 -0.1831 -0.0820
16006TIP3   OH269508   0.170   1.617  14.897  0.4233 -0.7927  0.2245
16006TIP3    H169509   0.181   1.570  14.979  0.1555 -0.9222  0.1855
16006TIP3    H269510   0.257   1.652  14.877  0.0656  1.0907  1.6807
16007TIP3   OH269511   0.050   2.238   4.930  0.3059 -0.4982 -0.2783
16007TIP3    H169512   0.050   2.204   4.841  1.0371 -0.8921 -0.1319
16007TIP3    H269513   0.045   2.333   4.920 -1.2916 -0.6018 -0.6988
16008TIP3   OH269514   2.899   2.485  14.792 -0.1386  0.1540 -0.3411
16008TIP3    H169515   2.904   2.566  14.842  0.0033 -0.2117  0.2394
16008TIP3    H269516   2.990   2.459  14.779 -0.2030 -0.3502  0.1913
16009TIP3   OH269517   6.065   2.859   4.760  0.6492  0.0307 -0.2462
16009TIP3    H169518   6.095   2.941   4.720  0.9958  0.0262 -0.0074
16009TIP3    H269519   6.081   2.872   4.854 -2.4250  1.0169  0.2446
16010TIP3   OH269520   3.565   0.288   4.170 -0.0431  0.7197 -0.1213
16010TIP3    H169521   3.542   0.360   4.111  0.4591  1.1176  0.1593
16010TIP3    H269522   3.646   0.317   4.212  0.2558 -0.0861 -0.1338
16011TIP3   OH269523   4.103   5.264  14.272  0.5094 -0.2989  0.0982
16011TIP3    H169524   4.098   5.353  14.239 -0.8485 -1.1014 -2.1150
16011TIP3    H269525   4.197   5.243  14.273  0.7216  0.5217 -1.2030
16012TIP3   OH269526   0.833   6.212   5.668 -0.0345 -0.0842 -0.0612
16012TIP3    H169527   0.926   6.228   5.683  0.1410 -2.3470  1.9550
16012TIP3    H269528   0.822   6.119   5.685 -2.7797  0.2432  0.4199
16013TIP3   OH269529   0.209   2.251   2.567  0.2269  0.1278 -0.0401
16013TIP3    H169530   0.157   2.330   2.583 -1.3224 -0.4126 -1.9658
16013TIP3    H269531   0.299   2.278   2.583 -0.3976  1.8515  0.8494
16014TIP3   OH269532   2.350   5.881   1.549 -0.2909 -0.2135 -0.0779
16014TIP3    H169533   2.334   5.845   1.462 -0.4253  2.7798 -1.4131
16014TIP3    H269534   2.413   5.952   1.535 -1.7815  1.6478  1.8804
16015TIP3   OH269535   2.964   6.003   2.478 -0.3699 -0.1347  0.4618
16015TIP3    H169536   2.956   6.097   2.468 -0.8512 -0.3705 -2.0298
16015TIP3    H269537   2.976   5.989   2.572  1.5430  2.5166  0.7005
16016TIP3   OH269538   6.481   4.622  11.764 -0.7022 -0.0272 -0.0902
16016TIP3    H169539   6.516   4.593  11.680 -0.6371  0.7694 -0.3532
16016TIP3    H269540   6.443   4.709  11.746  1.5431  1.3266  1.1763
16017TIP3   OH269541   5.900   6.756   4.545  0.7441  0.0513 -0.0847
16017TIP3    H169542   5.904   6.851   4.539 -1.4730  0.1593 -1.1022
16017TIP3    H269543   5.891   6.727   4.454  1.3788 -1.1453  0.2099
16018TIP3   OH269544   4.183   0.673   1.038 -0.8813  0.2068  0.0100
16018TIP3    H169545   4.259   0.618   1.056 -0.4513  1.1931  1.3911
16018TIP3    H269546   4.214   0.734   0.971 -0.0592  1.2746  1.2924
16019TIP3   OH269547   5.496   2.433  15.732  0.1752  0.0843  0.1699
16019TIP3    H169548   5.516   2.462  15.822  0.2191  1.7366 -0.3300
16019TIP3    H269549   5.560   2.365  15.714  0.8302  0.4449  1.0535
16020TIP3   OH269550   6.639   2.544   1.866  0.4023  0.0704 -0.2025
16020TIP3    H169551   6.682   2.615   1.914  1.3163 -0.6771  0.1170
16020TIP3    H269552   6.686   2.541   1.782  1.7197 -1.4224  0.5406
16021TIP3   OH269553   3.901   1.670  13.444  0.1093  1.0635  0.0462
16021TIP3    H169554   3.813   1.640  13.468 -0.2037  0.3024 -1.9196
16021TIP3    H269555   3.958   1.629  13.509 -0.9175  1.1046  1.0085
16022TIP3   OH269556   6.480   2.919   1.156 -0.0684  0.8661 -0.1752
16022TIP3    H169557   6.568   2.881   1.153  0.1616  1.2328  1.1246
16022TIP3    H269558   6.481   2.975   1.234 -0.5946  3.0913 -1.6761
16023TIP3   OH269559   3.809   2.596   3.092  0.2333  0.5473 -0.6247
16023TIP3    H169560   3.821   2.521   3.033 -0.0632 -0.4368  0.5284
16023TIP3    H269561   3.732   2.642   3.056 -0.9119 -0.9184 -0.1604
16024TIP3   OH269562   1.788   0.599  14.711  0.3610 -0.4341  0.2561
16024TIP3    H169563   1.862   0.595  14.650 -0.9644 -1.8686 -1.3417
16024TIP3    H269564   1.717   0.638  14.661 -0.2225  0.1630  1.5103
16025TIP3   OH269565   2.334   1.296  16.941  0.3562 -0.2306 -0.0441
16025TIP3    H169566   2.293   1.239  16.876 -0.2124  0.0806  0.0389
16025TIP3    H269567   2.333   1.383  16.901  1.0261 -0.2317 -0.0809
16026TIP3   OH269568   0.628   3.671   0.164  0.6469 -0.2554 -0.3104
16026TIP3    H169569   0.532   3.672   0.156  0.7681  1.9889 -3.1434
16026TIP3    H269570   0.645   3.723   0.243 -0.4245 -1.4122  0.7353
16027TIP3   OH269571   4.834   5.411  13.095  0.1596 -0.3710  0.2127
16027TIP3    H169572   4.881   5.334  13.126  1.0262 -0.2651 -0.8080
16027TIP3    H269573   4.783   5.380  13.020  1.4948  0.2744 -1.0195
16028TIP3   OH269574   4.031   1.318  13.213  0.1955 -0.1062 -0.6961
16028TIP3    H169575   3.951   1.338  13.164 -0.4822 -0.8456  0.0674
16028TIP3    H269576   4.010   1.341  13.303  2.1081  3.2166 -0.9259
16029TIP3   OH269577   6.787   1.477  14.224 -0.7986 -0.2928  0.2616
16029TIP3    H169578   6.749   1.507  14.142  1.0590 -0.3959 -0.6807
16029TIP3    H269579   6.748   1.535  14.291 -1.8537  0.1925 -0.7366
16030TIP3   OH269580   0.861   1.073  15.236 -0.3151 -0.4121 -0.5002
16030TIP3    H169581   0.815   1.012  15.292 -0.6031 -1.7319 -2.0995
16030TIP3    H269582   0.953   1.048  15.243 -0.2379 -0.0044  0.0315
16031TIP3   OH269583   3.960   5.165   5.115  0.3537 -0.7605  0.1181
16031TIP3    H169584   3.913   5.214   5.048 -0.0237 -0.3562  0.6641
16031TIP3    H269585   4.004   5.233   5.167  1.0809 -1.0997 -0.0442
16032TIP3   OH269586   4.304   2.291   5.280 -0.2647 -0.7794 -0.2684
16032TIP3    H169587   4.287   2.248   5.196  0.0229 -1.1260 -0.1542
16032TIP3    H269588   4.278   2.226   5.346 -1.6728 -0.0406 -0.0704
16033TIP3   OH269589   2.672   1.254   2.726  0.0208  0.0425 -0.0991
16033TIP3    H169590   2.759   1.220   2.743 -0.9709 -1.6064  2.0944
16033TIP3    H269591   2.627   1.184   2.679 -0.9590 -0.2837  1.2843
16034TIP3   OH269592   0.841   3.957   4.686  0.0097  0.6898 -0.0292
16034TIP3    H169593   0.871   3.917   4.605 -0.0243  2.4179 -0.9340
16034TIP3    H269594   0.759   3.912   4.707 -1.0872  1.5934 -2.1070
16035TIP3   OH269595   0.184   6.667   5.545  0.0948  0.4266 -0.1633
16035TIP3    H169596   0.186   6.678   5.449  0.7550  0.8533 -0.1104
16035TIP3    H269597   0.275   6.647   5.568 -0.6092 -3.3038 -0.0076
16036TIP3   OH269598   5.753   3.870   0.469 -0.2942  0.0392  0.0434
16036TIP3    H169599   5.837   3.874   0.515 -0.7096  1.0166  0.7388
16036TIP3    H269600   5.725   3.961   0.461  0.0769  0.0035 -2.8178
16037TIP3   OH269601   3.237   4.463  11.861 -0.0258 -0.2694  0.1455
16037TIP3    H169602   3.194   4.547  11.845  1.0042  0.5095  1.3093
16037TIP3    H269603   3.177   4.416  11.920 -0.7152 -0.4801 -0.6962
16038TIP3   OH269604   4.566   0.596  16.144  0.5504 -0.1971  0.1614
16038TIP3    H169605   4.590   0.689  16.143  0.2313 -0.1138 -1.2960
16038TIP3    H269606   4.641   0.553  16.186  1.5043  0.5232 -0.7504
16039TIP3   OH269607   4.493   0.261  15.467 -0.1922 -0.4063 -0.5291
16039TIP3    H169608   4.483   0.300  15.554 -0.3976  0.4099 -0.9110
16039TIP3    H269609   4.407   0.225  15.446  0.0053 -1.1296 -0.1648
16040TIP3   OH269610   0.025   5.442  14.333  0.2258  0.0398  0.0415
16040TIP3    H169611  -0.026   5.472  14.258  1.4200  1.4752 -0.2532
16040TIP3    H269612  -0.034   5.451  14.408 -0.8700 -1.0955 -0.6513
16041TIP3   OH269613   5.858   5.227  12.171 -0.2943  0.0519  0.1020
16041TIP3    H169614   5.846   5.198  12.262 -0.5865 -1.1029 -0.2791
16041TIP3    H269615   5.921   5.298  12.176  1.0951 -1.1827  1.0520
16042TIP3   OH269616   2.317   6.696   2.311 -0.1950 -0.0624  0.1937
16042TIP3    H169617   2.299   6.664   2.400  2.4281 -2.1109  0.1304
16042TIP3    H269618   2.251   6.654   2.256 -1.8379  1.2161  1.1213
16043TIP3   OH269619   5.291   3.015  15.907 -0.1178 -0.4624  0.0074
16043TIP3    H169620   5.309   2.951  15.977 -0.7282  0.2935  0.8782
16043TIP3    H269621   5.196   3.016  15.899 -0.1017  0.1573 -0.1603
16044TIP3   OH269622   2.033   0.553   2.804  0.4667 -0.2476 -0.3069
16044TIP3    H169623   1.952   0.588   2.841  0.6209  0.6800 -0.8245
16044TIP3    H269624   2.096   0.625   2.809  1.1636 -0.8382 -0.2495
16045TIP3   OH269625   5.828   4.008  14.971 -0.0440  0.2193  0.1622
16045TIP3    H169626   5.857   3.953  15.044 -2.4001 -1.0154  0.2654
16045TIP3    H269627   5.788   4.084  15.013 -3.4097 -1.5075  0.4014
16046TIP3   OH269628   0.940   2.063  16.197 -0.4385 -0.2560  0.1160
16046TIP3    H169629   0.883   2.029  16.129  0.3124 -1.4687  0.0631
16046TIP3    H269630   1.017   2.096  16.151 -1.4106  2.2139  0.0999
16047TIP3   OH269631   2.862   0.281   1.529 -0.0616  0.4930  0.1686
16047TIP3    H169632   2.796   0.283   1.460 -0.2428  0.0000  0.3188
16047TIP3    H269633   2.812   0.290   1.610 -0.0655 -0.8446  0.3414
16048TIP3   OH269634   6.342   3.948  11.101  0.4122 -0.0971 -0.2035
16048TIP3    H169635   6.315   3.923  11.189  4.4677 -3.1418  0.4934
16048TIP3    H269636   6.289   3.895  11.042 -1.4549  1.0347  0.3971
16049TIP3   OH269637   5.678   0.736  11.770  0.9863  0.6566  0.0267
16049TIP3    H169638   5.609   0.781  11.721  1.6660 -0.9868 -2.6050
16049TIP3    H269639   5.746   0.802  11.781 -0.3817  1.9235  1.5430
16050TIP3   OH269640   2.801   0.307  14.823  0.2031  0.4452  0.2125
16050TIP3    H169641   2.757   0.299  14.908  0.8480 -0.3169  0.4846
16050TIP3    H269642   2.891   0.280  14.840  0.3159  0.2098 -0.7361
16051TIP3   OH269643   5.824   1.057  11.216  0.6519 -0.1505 -0.3539
16051TIP3    H169644   5.812   0.993  11.285  3.8609 -0.4968  0.0558
16051TIP3    H269645   5.855   1.006  11.141  0.9190  0.6408 -0.7962
16052TIP3   OH269646   1.697   1.127   1.651 -0.6195  0.4296 -0.5522
16052TIP3    H169647   1.766   1.181   1.613 -1.2077  1.0524 -0.7656
16052TIP3    H269648   1.725   1.111   1.741 -1.5326  3.1221  0.3068
16053TIP3   OH269649   5.893   3.830   5.986 -0.0902 -0.4537  0.0610
16053TIP3    H169650   5.908   3.900   5.923  2.4161 -0.9763 -0.0004
16053TIP3    H269651   5.932   3.861   6.067  0.6020 -1.5320  0.1677
16054TIP3   OH269652   2.344   6.202  15.234  0.0973 -0.5783 -0.5269
16054TIP3    H169653   2.371   6.152  15.310 -0.6429 -2.3229 -1.3638
16054TIP3    H269654   2.257   6.168  15.212 -0.0008  0.3627 -1.7330
16055TIP3   OH269655   1.028   2.715  10.981  0.2817  0.2180  0.5021
16055TIP3    H169656   1.065   2.766  11.054  0.4696  0.9698 -0.1035
16055TIP3    H269657   0.951   2.766  10.954  1.7215  1.4580 -1.5785
16056TIP3   OH269658   2.345   1.463   0.989 -0.6431 -0.2850  0.3472
16056TIP3    H169659   2.335   1.525   0.917 -1.4918 -1.4802 -0.6031
16056TIP3    H269660   2.434   1.428   0.978 -0.3044  0.4489  0.6604
16057TIP3   OH269661   1.728   3.877   0.057 -0.1758  0.5657 -0.4507
16057TIP3    H169662   1.789   3.872   0.130  1.1626  0.7733 -1.5097
16057TIP3    H269663   1.647   3.837   0.090  0.5538  0.2004  0.9627
16058TIP3   OH269664   4.976   4.037  10.598  0.0349  0.1907 -0.2438
16058TIP3    H169665   4.923   4.009  10.524 -0.0630 -0.3654  0.0267
16058TIP3    H269666   4.945   4.125  10.618 -1.5945 -0.5170  0.6018
16059TIP3   OH269667   1.004   1.854   4.875  0.0686  0.8969  0.0723
16059TIP3    H169668   1.094   1.824   4.860  0.5374  1.4693  1.4992
16059TIP3    H269669   0.952   1.774   4.878  1.0528  0.2394  2.3385
16060TIP3   OH269670   5.505   0.274  13.092 -0.0474  0.4358 -0.5086
16060TIP3    H169671   5.593   0.303  13.070  0.4080 -0.5854 -0.0935
16060TIP3    H269672   5.482   0.323  13.171  0.1658  0.6665 -0.5888
16061TIP3   OH269673   4.089   0.267  13.323  0.5509  0.0402 -0.2142
16061TIP3    H169674   4.134   0.303  13.400 -1.0615 -0.6380  1.1148
16061TIP3    H269675   4.033   0.339  13.293  0.1867 -0.1109  0.0890
16062TIP3   OH269676   4.139   3.115   1.149 -0.4317  0.1224  0.3077
16062TIP3    H169677   4.045   3.104   1.135 -0.7029 -1.3896  2.7360
16062TIP3    H269678   4.150   3.113   1.244  1.9377  1.7538  0.1625
16063TIP3   OH269679   0.445   1.041  12.508 -0.6274 -0.0142  0.0323
16063TIP3    H169680   0.378   1.033  12.440  1.2286  1.7847 -2.1816
16063TIP3    H269681   0.443   1.134  12.532 -0.1565 -0.3184  1.3026
16064TIP3   OH269682   1.497   3.623  11.471 -0.4948  0.1739  0.3423
16064TIP3    H169683   1.523   3.599  11.382 -0.6194 -0.1700  0.3953
16064TIP3    H269684   1.401   3.616  11.471 -0.3985 -1.8519  1.0487
16065TIP3   OH269685   6.461   6.577   4.227 -0.3931  0.3655  0.3368
16065TIP3    H169686   6.470   6.583   4.322  1.6718  0.9893  0.1313
16065TIP3    H269687   6.395   6.508   4.214 -0.0704 -0.3492  2.1900
16066TIP3   OH269688   5.904   1.329  16.341 -0.3518  0.1852  0.1184
16066TIP3    H169689   5.852   1.282  16.406 -1.0397 -0.0695 -0.6030
16066TIP3    H269690   5.940   1.404  16.388  1.8618 -1.7087  1.6625
16067TIP3   OH269691   3.521   5.190  16.367  0.0271  0.1219 -0.8206
16067TIP3    H169692   3.538   5.202  16.273  1.0882  2.1472 -0.4271
16067TIP3    H269693   3.462   5.261  16.390  0.1122 -0.1051  0.1250
16068TIP3   OH269694   5.620   4.327  11.599  0.2652  0.3644  0.1252
16068TIP3    H169695   5.613   4.307  11.692 -2.5024 -0.1713 -0.1100
16068TIP3    H269696   5.708   4.300  11.575  0.9379  0.2342  2.5149
16069TIP3   OH269697   3.673   1.102   2.229 -0.0934 -0.5274  0.7067
16069TIP3    H169698   3.724   1.162   2.175 -0.6674  1.2918  2.0760
16069TIP3    H269699   3.737   1.039   2.263  0.7545  0.0681  0.2349
16070TIP3   OH269700   0.450   2.673  15.090 -0.1693 -0.2333  0.2532
16070TIP3    H169701   0.480   2.685  15.000 -0.0099  0.8513  0.4375
16070TIP3    H269702   0.381   2.606  15.084 -0.8345  0.5236 -0.8069
16071TIP3   OH269703   1.530   2.253   4.846 -0.1748 -0.4799  0.0756
16071TIP3    H169704   1.543   2.184   4.781 -0.8542  1.5322 -2.3079
16071TIP3    H269705   1.435   2.268   4.847 -0.0649  0.2308  0.7851
16072TIP3   OH269706   3.051   1.255  15.647 -0.0949  0.6835 -0.1436
16072TIP3    H169707   3.077   1.221  15.561  0.9660  0.5506  0.2181
16072TIP3    H269708   2.983   1.195  15.677 -0.4906  0.7424 -0.8913
16073TIP3   OH269709   1.382   4.117  15.886  0.3273  0.0511  0.1201
16073TIP3    H169710   1.462   4.096  15.934 -0.1946 -1.6326  0.3201
16073TIP3    H269711   1.367   4.210  15.904  0.8125 -0.2317  2.2690
16074TIP3   OH269712   2.126   2.417   4.226 -0.1387 -0.3857  0.1363
16074TIP3    H169713   2.142   2.329   4.193  1.4377  0.1896 -0.7709
16074TIP3    H269714   2.042   2.412   4.271 -0.0824 -2.3322  0.0769
16075TIP3   OH269715   3.023   3.224  16.065  0.1459  0.5845  0.2318
16075TIP3    H169716   3.008   3.269  16.149 -1.2704  1.4510 -0.4482
16075TIP3    H269717   3.000   3.133  16.083  0.3009  0.6757  0.9148
16076TIP3   OH269718   4.360   2.241  12.904  0.6765  0.2398  0.2212
16076TIP3    H169719   4.300   2.314  12.893  0.9487  0.5445  0.7210
16076TIP3    H269720   4.313   2.166  12.867  0.6462  0.7707 -0.8466
16077TIP3   OH269721   1.928   0.226  10.341  0.5109  0.4698  0.1862
16077TIP3    H169722   2.013   0.190  10.315  0.1069  0.0391 -0.5741
16077TIP3    H269723   1.912   0.187  10.427  0.3267 -0.7949 -0.3915
16078TIP3   OH269724   6.782   0.003  11.975 -0.4915 -0.0241  0.5462
16078TIP3    H169725   6.744  -0.064  12.032 -0.2741 -1.3775 -0.8223
16078TIP3    H269726   6.722   0.008  11.900  0.1151  0.4655  0.0788
16079TIP3   OH269727   6.823   2.357  16.956  0.5530 -0.1083  0.3087
16079TIP3    H169728   6.866   2.355  16.870 -0.2140 -1.5595 -0.0901
16079TIP3    H269729   6.742   2.406  16.941  0.2511 -0.6619  0.1053
16080TIP3   OH269730   0.034   6.721   2.390  0.3118  1.1440 -0.0843
16080TIP3    H169731   0.097   6.793   2.382 -0.2055  1.4677 -1.8776
16080TIP3    H269732  -0.051   6.764   2.384 -0.0954  0.6208  1.4815
16081TIP3   OH269733   6.586   0.690   5.632 -0.0953 -0.4259 -0.2534
16081TIP3    H169734   6.676   0.681   5.663  0.2203  0.6089 -0.8132
16081TIP3    H269735   6.532   0.652   5.702  0.6101  1.5577  1.4545
16082TIP3   OH269736   3.475   0.280  16.796  0.0886  0.0402  0.2901
16082TIP3    H169737   3.487   0.353  16.735  1.2116 -1.9362 -2.0005
16082TIP3    H269738   3.422   0.216  16.747  0.0698 -1.1660  1.8127
16083TIP3   OH269739   4.345   5.241  12.896 -0.0028  0.6471 -0.0956
16083TIP3    H169740   4.335   5.310  12.831 -0.2564  0.9543  0.2590
16083TIP3    H269741   4.267   5.248  12.951 -0.9493 -1.0878 -1.1197
16084TIP3   OH269742   3.647   5.096   2.258 -0.1685  0.2316 -0.2806
16084TIP3    H169743   3.702   5.088   2.180  0.6946  1.1757  0.2089
16084TIP3    H269744   3.659   5.013   2.304 -1.8956 -0.9709 -1.8847
16085TIP3   OH269745   3.156   0.590   0.989  0.4549 -0.2434  0.6647
16085TIP3    H169746   3.150   0.510   0.936 -0.6143 -1.4761  2.4995
16085TIP3    H269747   3.117   0.658   0.934  2.1419 -0.7391 -1.2821
16086TIP3   OH269748   2.460   1.364  14.845  0.3295  0.1988 -0.4037
16086TIP3    H169749   2.378   1.313  14.847  1.0222 -1.0056 -1.2954
16086TIP3    H269750   2.434   1.450  14.811 -0.5168 -0.2752 -0.9959
16087TIP3   OH269751   6.776   2.860   2.817 -0.0176  0.8130 -0.1223
16087TIP3    H169752   6.752   2.920   2.888 -0.2278  1.6756 -0.9056
16087TIP3    H269753   6.872   2.864   2.814 -0.0056  0.7318  0.1514
16088TIP3   OH269754   4.174   1.214   1.572 -0.6808 -0.1097 -0.7588
16088TIP3    H169755   4.131   1.296   1.596 -0.6352  0.1879 -1.6544
16088TIP3    H269756   4.267   1.230   1.588 -0.5985  0.2466 -1.5062
16089TIP3   OH269757   4.649   2.787   4.489  0.1680  0.4826  0.4469
16089TIP3    H169758   4.724   2.844   4.504 -0.6752  1.8170 -0.2294
16089TIP3    H269759   4.680   2.722   4.426  0.4296  1.7794 -0.8005
16090TIP3   OH269760   4.102   1.190   0.586 -0.1634 -0.2828  0.2481
16090TIP3    H169761   4.186   1.185   0.539 -1.1761 -1.1940 -1.5703
16090TIP3    H269762   4.115   1.135   0.663 -0.1005 -3.4159 -1.8001
16091TIP3   OH269763   5.919   0.108  14.146 -0.6669  0.2187 -0.6223
16091TIP3    H169764   5.867   0.043  14.194 -0.2220  1.4046  1.5639
16091TIP3    H269765   5.854   0.159  14.097 -1.3326  0.1816  0.2110
16092TIP3   OH269766   2.272   3.593   5.445 -0.4898  0.0853  0.5308
16092TIP3    H169767   2.263   3.534   5.519  0.5429 -2.1760 -1.0234
16092TIP3    H269768   2.192   3.580   5.394  0.1177 -0.6765 -0.2569
16093TIP3   OH269769   2.452   2.788  16.074 -0.1981  0.2839 -0.3425
16093TIP3    H169770   2.393   2.849  16.030 -0.0109  0.9456  0.3054
16093TIP3    H269771   2.498   2.841  16.139  0.3109 -0.4505 -0.0862
16094TIP3   OH269772   5.799   3.336   1.614 -0.6673 -0.2391 -0.0272
16094TIP3    H169773   5.813   3.244   1.636  0.3239 -0.6483 -2.1849
16094TIP3    H269774   5.733   3.365   1.677  0.0272 -2.0104  1.6187
16095TIP3   OH269775   1.469   1.683  12.933  0.1340  0.4435 -0.2316
16095TIP3    H169776   1.433   1.597  12.956  0.5462  0.2445 -0.3326
16095TIP3    H269777   1.561   1.679  12.960 -0.1058  1.2397  0.8024
16096TIP3   OH269778   6.803   3.746   5.788  0.4308  0.1706  0.5416
16096TIP3    H169779   6.781   3.694   5.711  1.7144  1.7892 -0.9933
16096TIP3    H269780   6.760   3.700   5.861  0.0963 -2.0252 -0.9476
16097TIP3   OH269781   5.662   0.423   3.199  0.1128  0.4630  0.2465
16097TIP3    H169782   5.669   0.347   3.257 -1.6176 -0.3444 -0.5422
16097TIP3    H269783   5.673   0.498   3.257 -1.8975 -0.3127  1.7429
16098TIP3   OH269784   2.260   5.263  13.565 -0.0763  0.3606  0.0430
16098TIP3    H169785   2.186   5.242  13.623  0.2947  0.7462  0.6653
16098TIP3    H269786   2.224   5.327  13.504 -0.7502 -0.7845 -0.8081
16099TIP3   OH269787   0.470   5.338   2.316  0.0778 -0.0656  0.0632
16099TIP3    H169788   0.495   5.265   2.372  0.7273 -0.8913 -1.2447
16099TIP3    H269789   0.376   5.327   2.302  0.0688 -0.3262  0.3321
16100TIP3   OH269790   5.753   6.358   4.531  0.6045  0.0961 -0.3523
16100TIP3    H169791   5.743   6.371   4.437  3.7200 -0.7373 -0.9378
16100TIP3    H269792   5.847   6.373   4.547  0.1000  0.7228  2.7356
16101TIP3   OH269793   6.182   4.616  12.053 -0.3585  0.4971 -0.0368
16101TIP3    H169794   6.174   4.617  11.958  0.7932 -0.7255 -0.1848
16101TIP3    H269795   6.253   4.678  12.071  1.5086 -1.4116 -0.3028
16102TIP3   OH269796   6.787   2.365  16.159 -0.0076  0.7034  0.5909
16102TIP3    H169797   6.771   2.278  16.196  1.7398 -0.3309 -0.9001
16102TIP3    H269798   6.730   2.370  16.083  0.8686  0.2829 -0.1079
16103TIP3   OH269799   1.621   3.308  16.387 -0.0712 -0.2499  0.0865
16103TIP3    H169800   1.594   3.385  16.437  1.1130 -0.7926  1.6593
16103TIP3    H269801   1.659   3.344  16.307 -1.1678  0.7016 -0.0267
16104TIP3   OH269802   4.811   3.866  12.359  0.1170 -0.1610  0.0179
16104TIP3    H169803   4.887   3.887  12.413 -1.1881  1.4425  1.3138
16104TIP3    H269804   4.754   3.815  12.416  0.1523 -1.3199 -0.9329
16105TIP3   OH269805   0.610   1.974   2.390 -0.2433 -0.6213  0.1965
16105TIP3    H169806   0.587   1.969   2.483  0.5583 -0.0161  0.4332
16105TIP3    H269807   0.596   1.885   2.357 -1.6910 -0.5745  0.6077
16106TIP3   OH269808   3.977   4.202  16.989  0.4611 -0.1857 -0.0646
16106TIP3    H169809   4.015   4.183  16.903 -2.4307  1.7917 -1.9914
16106TIP3    H269810   3.887   4.170  16.983  0.5661 -1.3101  2.8504
16107TIP3   OH269811   3.667   1.807   0.792 -0.5912 -0.4606  0.4128
16107TIP3    H169812   3.620   1.833   0.713  1.5271  0.0324 -0.7523
16107TIP3    H269813   3.749   1.769   0.760  0.3399 -0.2120  2.3694
16108TIP3   OH269814   4.067   3.165  12.263 -0.0779  0.1246 -0.0381
16108TIP3    H169815   3.984   3.196  12.228  0.6570  0.0687 -1.9618
16108TIP3    H269816   4.101   3.106  12.196  0.5064 -1.6156  1.6848
16109TIP3   OH269817   2.054   3.824   5.982  0.1158 -0.0920 -0.0384
16109TIP3    H169818   1.976   3.788   5.939 -0.1848  1.1256 -0.5604
16109TIP3    H269819   2.125   3.811   5.919 -0.2506  1.3491 -0.7922
16110TIP3   OH269820   5.946   4.226   1.977 -0.2831  0.1746 -0.7975
16110TIP3    H169821   5.877   4.253   1.917  0.1959  0.1636 -1.3644
16110TIP3    H269822   6.002   4.168   1.926 -0.9362 -1.4238  0.2179
16111TIP3   OH269823   6.128   5.363   3.755 -0.1309  0.6350 -0.2048
16111TIP3    H169824   6.105   5.401   3.670  1.3332  0.1016 -0.8699
16111TIP3    H269825   6.049   5.375   3.808 -0.4109  2.7918 -0.9832
16112TIP3   OH269826   0.637   3.882  15.808 -0.5119 -0.2343  0.6015
16112TIP3    H169827   0.572   3.865  15.876 -0.0512 -1.6522  0.7149
16112TIP3    H269828   0.721   3.860  15.849  0.3170  3.1413  1.0360
16113TIP3   OH269829   0.816   3.795  13.613 -0.2493 -0.1149 -0.0553
16113TIP3    H169830   0.904   3.791  13.648 -0.8484 -0.5296  1.4845
16113TIP3    H269831   0.766   3.733  13.666 -1.6525  0.7418 -0.3150
16114TIP3   OH269832   0.687   2.607  13.642 -0.1030  0.2977 -0.3491
16114TIP3    H169833   0.659   2.520  13.670  0.0494  0.9813  2.0963
16114TIP3    H269834   0.781   2.599  13.631  0.0879  0.4592  1.1134
16115TIP3   OH269835   0.038   2.991  12.561  0.1050 -0.2598 -0.1162
16115TIP3    H169836   0.086   3.001  12.643 -0.1856  1.0324 -0.0759
16115TIP3    H269837  -0.045   3.035  12.576  0.9364  2.1091 -1.7992
16116TIP3   OH269838   2.946   3.915  10.402 -0.0452 -0.5943 -0.2952
16116TIP3    H169839   3.021   3.879  10.355  2.4075 -1.4568  3.8042
16116TIP3    H269840   2.984   3.965  10.474 -3.3707 -0.8608  1.8610
16117TIP3   OH269841   0.824   3.443  11.727 -0.3673  0.6659 -0.3281
16117TIP3    H169842   0.762   3.377  11.696 -0.5566 -0.6745  2.5328
16117TIP3    H269843   0.876   3.398  11.794  0.2872  3.0965  0.9460
16118TIP3   OH269844   5.926   4.738  13.009  0.2481 -0.0109 -0.3390
16118TIP3    H169845   5.876   4.663  12.979 -0.3223  0.1811  0.1161
16118TIP3    H269846   5.865   4.787  13.064  0.3999  1.1538 -1.1792
16119TIP3   OH269847   1.375   0.496   4.132 -0.5262  0.2299  0.6702
16119TIP3    H169848   1.315   0.515   4.059 -0.2855  0.0838  0.4289
16119TIP3    H269849   1.436   0.570   4.133 -1.1832  0.7724  1.4225
16120TIP3   OH269850   4.677   4.840  14.454  0.6496 -0.2948 -0.2021
16120TIP3    H169851   4.736   4.772  14.487  0.9656  0.6478  1.2957
16120TIP3    H269852   4.614   4.853  14.525 -0.2722 -0.0140 -1.0519
16121TIP3   OH269853   5.018   1.875   5.706 -0.3949  0.0056  0.2480
16121TIP3    H169854   5.097   1.910   5.665 -0.4538  1.8027  1.5519
16121TIP3    H269855   4.980   1.819   5.639  1.5252 -0.2457 -0.7249
16122TIP3   OH269856   2.769   2.427  14.447  0.1176  0.1345  0.4760
16122TIP3    H169857   2.800   2.397  14.361  0.4201  2.4643 -0.2908
16122TIP3    H269858   2.847   2.430  14.502  0.0344 -0.7352  0.6475
16123TIP3   OH269859   3.468   0.493  15.391 -0.5677  0.8684  0.3759
16123TIP3    H169860   3.501   0.571  15.347 -1.5054  1.3664  0.5303
16123TIP3    H269861   3.484   0.422  15.330  0.7398  1.0926  0.4327
16124TIP3   OH269862   5.958   5.982   1.041 -0.3622  0.2735 -0.9672
16124TIP3    H169863   5.875   5.979   1.089 -0.1662  1.1177 -0.5558
16124TIP3    H269864   5.952   5.909   0.979  0.2099 -2.1362  1.5976
16125TIP3   OH269865   3.025   2.498   3.774  0.3772 -0.5174 -0.4435
16125TIP3    H169866   3.023   2.560   3.847  1.5260 -0.1504 -0.7147
16125TIP3    H269867   3.101   2.523   3.722  0.5862 -1.8507 -0.8280
16126TIP3   OH269868   4.822   1.595   6.175  0.4564  0.6677  0.0864
16126TIP3    H169869   4.900   1.639   6.209 -0.0485  1.5225  0.1593
16126TIP3    H269870   4.856   1.518   6.129  1.3418  1.0549  0.0820
16127TIP3   OH269871   6.796   1.299  16.135 -0.8467 -0.0593 -0.6118
16127TIP3    H169872   6.828   1.291  16.045 -0.0372 -2.1307 -0.2040
16127TIP3    H269873   6.733   1.227  16.144 -0.3677 -0.3343  0.6846
16128TIP3   OH269874   3.462   0.473   1.497  0.1102  0.1305 -0.1108
16128TIP3    H169875   3.540   0.444   1.450 -0.5559 -2.3192  0.1797
16128TIP3    H269876   3.390   0.461   1.434 -0.2274  1.1545  0.0547
16129TIP3   OH269877   2.716   0.231   3.996  0.6946  0.5323 -0.2819
16129TIP3    H169878   2.736   0.144   3.960  3.4410  1.2230 -0.6078
16129TIP3    H269879   2.629   0.221   4.034  0.6565 -2.1903 -0.8632
16130TIP3   OH269880   6.220   1.408   5.594 -0.0147 -0.1790  0.4159
16130TIP3    H169881   6.225   1.439   5.685  1.9016  1.2816 -0.1296
16130TIP3    H269882   6.166   1.329   5.599  1.4563 -1.1646  3.1299
16131TIP3   OH269883   0.925   0.674  12.239  0.1905  0.3786 -0.5570
16131TIP3    H169884   0.960   0.585  12.243 -0.8261 -0.0006  1.7250
16131TIP3    H269885   0.867   0.673  12.163 -0.3083 -1.1458 -0.2057
16132TIP3   OH269886   5.919   4.258   4.057  0.0824  0.0987 -0.6120
16132TIP3    H169887   5.831   4.221   4.061 -0.0609  0.3766 -1.1489
16132TIP3    H269888   5.978   4.183   4.064 -0.1875 -0.0566  0.1146
16133TIP3   OH269889   1.712   6.049   5.721  0.3986 -0.2301  0.2034
16133TIP3    H169890   1.770   6.098   5.779  0.4615  1.1002 -0.9353
16133TIP3    H269891   1.742   6.071   5.633 -0.2545 -1.5088 -0.3631
16134TIP3   OH269892   5.267   0.003  16.738  0.2806  0.0418  0.3211
16134TIP3    H169893   5.236  -0.064  16.676  0.5972  0.9626 -0.8806
16134TIP3    H269894   5.345   0.039  16.696  1.6475 -0.6082  2.1950
16135TIP3   OH269895   1.462   2.837  17.121  0.6284  0.3716  0.1336
16135TIP3    H169896   1.534   2.849  17.183  1.0145 -0.6118 -0.1085
16135TIP3    H269897   1.498   2.778  17.055  0.5021  2.0018 -1.4788
16136TIP3   OH269898   0.890   1.274   3.053 -0.3230  0.3586 -0.0562
16136TIP3    H169899   0.918   1.188   3.084 -2.7418 -0.4408  0.1217
16136TIP3    H269900   0.936   1.286   2.970 -0.8476 -1.6823 -0.6980
16137TIP3   OH269901   1.500   6.014  12.736 -0.5120  0.7379  0.0146
16137TIP3    H169902   1.583   5.995  12.692 -0.5526 -0.9106  0.6049
16137TIP3    H269903   1.503   6.109  12.751  1.1147  0.7654 -0.2663
16138TIP3   OH269904   3.704   6.468  14.447 -0.4077  0.8211 -0.2179
16138TIP3    H169905   3.623   6.512  14.474  0.8752  3.2123  0.0273
16138TIP3    H269906   3.693   6.378  14.476 -2.5339  1.3324  0.7981
16139TIP3   OH269907   1.470   2.059   3.056 -0.0243 -0.3901  0.0958
16139TIP3    H169908   1.542   2.111   3.092 -0.6908  1.0188 -0.5369
16139TIP3    H269909   1.510   1.974   3.036  1.9146  0.8606 -1.7529
16140TIP3   OH269910   0.842   4.376   5.760 -0.3153 -0.2263 -0.6424
16140TIP3    H169911   0.812   4.298   5.714 -2.1543  0.1161 -0.0897
16140TIP3    H269912   0.868   4.344   5.847 -1.7039 -0.1562 -0.1820
16141TIP3   OH269913   0.224   1.761   6.384 -0.6308 -0.3154 -0.1932
16141TIP3    H169914   0.178   1.817   6.322 -1.1249 -1.3078 -0.7337
16141TIP3    H269915   0.240   1.818   6.460  2.2693  1.7813 -2.1073
16142TIP3   OH269916   0.396   5.459   3.874  0.7065 -0.0945  0.0532
16142TIP3    H169917   0.310   5.437   3.840  1.9047 -2.2375 -1.8644
16142TIP3    H269918   0.440   5.504   3.801  1.5872 -0.0656  0.5821
16143TIP3   OH269919   2.411   1.189   1.336  0.3739  0.3551 -0.2552
16143TIP3    H169920   2.319   1.166   1.349  0.7058 -0.9270 -0.0453
16143TIP3    H269921   2.443   1.209   1.424  0.4595  0.1293 -0.2336
16144TIP3   OH269922   2.248   0.411   0.105 -0.3420 -0.8365 -0.2827
16144TIP3    H169923   2.328   0.463   0.114 -0.8826 -0.1773  1.0627
16144TIP3    H269924   2.265   0.333   0.158 -1.2047  0.1399  1.5518
16145TIP3   OH269925   0.331   1.673  13.275 -0.3748  0.3855 -0.5119
16145TIP3    H169926   0.286   1.605  13.325  1.7103 -0.7516 -0.0309
16145TIP3    H269927   0.298   1.663  13.186 -2.4632  0.9150  0.1593
16146TIP3   OH269928   2.711   4.415  13.539  0.0644  0.2497 -0.0355
16146TIP3    H169929   2.775   4.465  13.489  0.1861 -0.2494 -0.3780
16146TIP3    H269930   2.626   4.453  13.516  0.0782 -0.2715 -0.9667
16147TIP3   OH269931   1.193   6.382   0.360  0.3246 -1.1186 -0.5696
16147TIP3    H169932   1.211   6.476   0.357 -2.6294 -0.4661 -1.2429
16147TIP3    H269933   1.260   6.343   0.305  0.7554  0.7842 -1.4750
16148TIP3   OH269934   6.824   6.480   2.468 -0.4024  0.2544  0.1365
16148TIP3    H169935   6.829   6.572   2.443  1.8354 -0.0880 -0.9356
16148TIP3    H269936   6.865   6.434   2.395 -1.3111 -1.5997  0.7344
16149TIP3   OH269937   5.566   0.760  14.688 -0.2273  0.0146 -0.1496
16149TIP3    H169938   5.534   0.821  14.622  0.1652  0.5851  0.1844
16149TIP3    H269939   5.649   0.728  14.652 -0.5480 -0.5098 -0.4342
16150TIP3   OH269940   6.027   0.424   0.498  0.5978 -0.0357 -0.3245
16150TIP3    H169941   5.939   0.400   0.468 -0.2425  1.9622  0.4104
16150TIP3    H269942   6.054   0.494   0.439  1.3154  0.0159  0.0506
16151TIP3   OH269943   5.398   0.757   5.521 -0.0685  0.1600  1.0401
16151TIP3    H169944   5.345   0.784   5.445  0.2320  0.9403  1.0968
16151TIP3    H269945   5.348   0.787   5.597 -0.4203 -0.7152  1.1660
16152TIP3   OH269946   4.672   5.709  15.776 -0.6118  0.1273  0.0524
16152TIP3    H169947   4.700   5.628  15.734  0.5201  0.8939 -0.7102
16152TIP3    H269948   4.710   5.778  15.723 -0.1334  1.1427  1.6660
16153TIP3   OH269949   3.817   1.538   5.116 -0.4296  0.0956 -0.4052
16153TIP3    H169950   3.892   1.558   5.172 -0.2398  1.6971 -1.1910
16153TIP3    H269951   3.767   1.619   5.111 -2.1853 -0.8910 -0.0147
16154TIP3   OH269952   1.953   0.535  16.281 -0.7061  0.0514  0.0200
16154TIP3    H169953   2.009   0.599  16.237  1.2192 -0.0855  2.1115
16154TIP3    H269954   1.954   0.560  16.373 -1.4847 -1.8694  0.6145
16155TIP3   OH269955   0.835   5.602   4.760 -0.2848 -0.0992  0.0229
16155TIP3    H169956   0.808   5.510   4.764 -1.4718  0.1372 -1.5709
16155TIP3    H269957   0.753   5.651   4.763  0.2571  0.8490 -0.3479
16156TIP3   OH269958   5.570   2.990  14.247 -0.1012 -0.1859  0.2132
16156TIP3    H169959   5.565   3.083  14.224 -2.3389 -0.2871  0.0092
16156TIP3    H269960   5.576   2.989  14.342  0.4741  0.1757  0.1809
16157TIP3   OH269961   3.470   0.266  11.548  0.0008  0.0488 -0.2645
16157TIP3    H169962   3.452   0.318  11.626  3.9147  2.4283 -0.6954
16157TIP3    H269963   3.488   0.331  11.480 -0.1586 -1.9626 -2.3512
16158TIP3   OH269964   4.389   4.457  16.873  0.0101  0.7932  0.4775
16158TIP3    H169965   4.459   4.476  16.811  0.0396  0.8938  0.5427
16158TIP3    H269966   4.433   4.442  16.956  0.2646 -2.3902 -0.1295
16159TIP3   OH269967   5.044   6.486   2.120  0.4544  0.0795  0.1898
16159TIP3    H169968   5.102   6.562   2.114 -0.3135  0.6021 -1.6505
16159TIP3    H269969   5.067   6.432   2.044  0.8080 -1.4360  1.3320
16160TIP3   OH269970   0.296   5.153   2.885 -0.3679 -0.7617  0.3430
16160TIP3    H169971   0.212   5.129   2.846 -0.1138 -0.8724 -0.1534
16160TIP3    H269972   0.328   5.225   2.830 -0.2929 -0.4941  0.7320
16161TIP3   OH269973   1.175   6.679  13.288  0.4841 -0.1993 -0.2389
16161TIP3    H169974   1.184   6.689  13.382 -0.8617  0.2724 -0.1388
16161TIP3    H269975   1.083   6.700  13.270  0.6874 -0.3960 -1.6341
16162TIP3   OH269976   1.174   0.917  10.795 -0.1175 -0.0552  0.4766
16162TIP3    H169977   1.267   0.934  10.779 -0.5104 -0.1421 -2.3394
16162TIP3    H269978   1.130   0.946  10.715 -2.3867 -1.2061  1.2210
16163TIP3   OH269979   5.988   3.681  16.050 -0.0304 -0.0176 -0.5522
16163TIP3    H169980   6.020   3.771  16.041 -0.8731  0.1444 -2.0568
16163TIP3    H269981   5.944   3.662  15.968 -0.4399 -1.5953 -0.0026
16164TIP3   OH269982   1.644   3.728  14.416  0.0676 -0.4125 -0.4032
16164TIP3    H169983   1.699   3.706  14.341  0.8570 -0.5946  0.2078
16164TIP3    H269984   1.706   3.738  14.489 -0.6525  0.0172  0.1678
16165TIP3   OH269985   1.416   2.836   0.777  1.0022 -0.2955 -0.0852
16165TIP3    H169986   1.403   2.899   0.707  1.7043  0.1824  0.2046
16165TIP3    H269987   1.511   2.828   0.785  0.9341 -0.2229  0.9094
16166TIP3   OH269988   5.309   0.989  13.984 -0.3302 -0.1834  0.2100
16166TIP3    H169989   5.234   1.029  14.029 -0.9532 -1.8393  0.7009
16166TIP3    H269990   5.383   1.046  14.006 -1.4091  1.5226 -0.3299
16167TIP3   OH269991   4.196   2.098  12.262 -0.3983  0.2696  0.1809
16167TIP3    H169992   4.208   2.079  12.355 -0.4789  0.8651  0.3156
16167TIP3    H269993   4.274   2.060  12.220 -0.1364  0.4006  0.5434
16168TIP3   OH269994   6.462   2.208   2.461 -0.0610 -0.1084 -0.0829
16168TIP3    H169995   6.535   2.221   2.523 -0.3994  0.8513  0.1358
16168TIP3    H269996   6.420   2.128   2.490 -0.5869  0.6426  1.3481
16169TIP3   OH269997   6.647   6.252  14.096 -0.0058  0.8150  0.3194
16169TIP3    H169998   6.666   6.294  14.179  2.2437 -3.2723  2.1905
16169TIP3    H269999   6.716   6.282  14.037  1.9238 -0.5473  1.7828
16170TIP3   OH270000   4.571   5.298  12.441  0.0100  0.6139 -0.4384
16170TIP3    H170001   4.636   5.342  12.497 -1.2944  1.6635  0.3119
16170TIP3    H270002   4.559   5.212  12.481  1.4992  0.0839 -1.0526
16171TIP3   OH270003   2.523   0.069  16.059 -0.2103 -0.6652  0.7559
16171TIP3    H170004   2.443   0.120  16.050  0.4308  0.4107  0.9554
16171TIP3    H270005   2.534   0.027  15.974 -0.8570 -0.6403  0.6530
16172TIP3   OH270006   5.354   5.625  15.429 -0.7046  0.1646  0.1956
16172TIP3    H170007   5.259   5.613  15.425 -0.4525 -2.2174 -0.8731
16172TIP3    H270008   5.390   5.539  15.404  1.7380  0.6899  1.5386
16173TIP3   OH270009   0.180   1.468   4.978 -0.6943  0.1320 -0.4886
16173TIP3    H170010   0.139   1.389   5.012 -1.9821  1.8262  2.2240
16173TIP3    H270011   0.253   1.484   5.038  0.0105  0.6193 -1.4544
16174TIP3   OH270012   5.970   3.175  14.966 -0.0196  0.2155  0.3652
16174TIP3    H170013   6.033   3.152  14.898  0.2062  0.2549  0.5616
16174TIP3    H270014   5.911   3.100  14.971  0.7053 -0.3290  0.9963
16175TIP3   OH270015   4.420   2.267   3.850  0.2235 -0.0583  0.0026
16175TIP3    H170016   4.436   2.360   3.830  0.7695 -0.5755 -2.1387
16175TIP3    H270017   4.508   2.229   3.856 -0.0220 -0.6213  0.0087
16176TIP3   OH270018   6.143   1.845   2.979 -0.4733  0.5857 -0.1537
16176TIP3    H170019   6.105   1.770   2.934 -0.0996 -0.3853  1.0746
16176TIP3    H270020   6.216   1.873   2.923 -1.4681  0.9450 -1.3138
16177TIP3   OH270021   5.997   0.519   6.006  0.4996  0.0910  0.2736
16177TIP3    H170022   5.988   0.430   5.971 -0.0498  0.2554 -0.0199
16177TIP3    H270023   5.918   0.564   5.976  0.1887  0.3343  1.4183
16178TIP3   OH270024   4.530   5.564   4.668  0.3467 -0.2514 -0.3021
16178TIP3    H170025   4.497   5.501   4.604 -0.3081 -0.8506  0.5983
16178TIP3    H270026   4.620   5.536   4.686  0.3176 -0.4610 -0.4788
16179TIP3   OH270027   3.047   0.508  13.368 -0.2079 -0.4018  0.3900
16179TIP3    H170028   3.126   0.560  13.356 -0.1877  0.2606  2.8333
16179TIP3    H270029   3.036   0.502  13.463 -2.6264 -1.2117  0.1413
16180TIP3   OH270030   3.076   2.685   5.860 -0.3242 -0.3810  0.2680
16180TIP3    H170031   3.171   2.682   5.854 -0.2010  0.8144  1.1105
16180TIP3    H270032   3.057   2.663   5.952 -0.8010  0.0278  0.2744
16181TIP3   OH270033   1.630   4.648   2.548 -0.5955 -0.0442  0.1429
16181TIP3    H170034   1.711   4.682   2.510 -0.0795  2.1741  2.8883
16181TIP3    H270035   1.642   4.553   2.550 -0.0141 -0.1871 -3.4440
16182TIP3   OH270036   3.196   1.198  11.279  0.1400 -0.0649  0.3697
16182TIP3    H170037   3.106   1.200  11.245  0.8107  1.0635 -1.4835
16182TIP3    H270038   3.218   1.105  11.282 -0.0651 -0.2719 -2.2021
16183TIP3   OH270039   4.640   6.361  13.133 -0.2522 -0.1359  0.1593
16183TIP3    H170040   4.642   6.415  13.054  0.6346 -0.2836  0.0689
16183TIP3    H270041   4.695   6.286  13.112  0.2756 -0.0068  1.0393
16184TIP3   OH270042   6.225   0.190   0.737  0.4799 -1.0338 -0.3464
16184TIP3    H170043   6.146   0.157   0.695 -1.0215 -0.4566  1.8552
16184TIP3    H270044   6.194   0.249   0.805  2.7869 -1.1444  0.9226
16185TIP3   OH270045   5.234   5.438   2.576  0.7780 -0.4040  0.6004
16185TIP3    H170046   5.277   5.412   2.658  0.9265  0.6430  0.8696
16185TIP3    H270047   5.285   5.513   2.546 -1.5621  1.7357  1.5983
16186TIP3   OH270048   4.440   4.703  11.884  0.3030 -0.2464 -0.1720
16186TIP3    H170049   4.344   4.700  11.886  0.2084  0.8544 -1.3560
16186TIP3    H270050   4.468   4.613  11.899 -1.0004 -1.0378 -2.0499
16187TIP3   OH270051   4.668   5.500   4.045  0.4151 -0.6773  0.0763
16187TIP3    H170052   4.602   5.557   4.005  0.3185 -0.4833  0.5090
16187TIP3    H270053   4.746   5.512   3.990 -0.3152 -2.0234 -1.3186
16188TIP3   OH270054   6.204   3.568   3.376 -0.2865  0.1689 -0.1748
16188TIP3    H170055   6.216   3.474   3.363 -2.5967 -0.2134  0.0144
16188TIP3    H270056   6.193   3.603   3.288  0.3702  0.2435 -0.2318
16189TIP3   OH270057   6.713   4.898  13.393  0.4425  0.3729  0.0304
16189TIP3    H170058   6.737   4.989  13.409  3.1491 -0.3334  0.3748
16189TIP3    H270059   6.735   4.882  13.302 -0.4737  0.1655 -0.1666
16190TIP3   OH270060   3.204   2.387  15.547 -0.6481  0.7350  0.4748
16190TIP3    H170061   3.130   2.435  15.509 -0.9491 -0.2567 -0.2344
16190TIP3    H270062   3.264   2.374  15.473  0.1350  1.3220  0.9922
16191TIP3   OH270063   1.010   1.985   1.676 -0.3433 -0.5331  0.2700
16191TIP3    H170064   0.948   1.942   1.736 -1.3634 -2.1753 -1.8330
16191TIP3    H270065   0.961   2.059   1.640 -0.2443 -0.4245  0.3572
16192TIP3   OH270066   2.851   6.798  13.440 -0.4766 -0.0728 -0.4776
16192TIP3    H170067   2.907   6.772  13.513 -1.0445 -1.1837 -0.4161
16192TIP3    H270068   2.854   6.894  13.440  0.2442 -0.0881  0.4395
16193TIP3   OH270069   2.477   6.002   1.884 -0.2394  0.3096  0.0723
16193TIP3    H170070   2.383   6.009   1.900 -0.6328  0.5162 -2.0486
16193TIP3    H270071   2.510   6.092   1.889 -0.5387  0.5024 -1.1403
16194TIP3   OH270072   6.185   5.131   2.354  0.7492  0.1751  0.4391
16194TIP3    H170073   6.175   5.041   2.322  2.8939 -0.4018  1.2272
16194TIP3    H270074   6.169   5.125   2.448 -0.3410  0.8984  0.3256
16195TIP3   OH270075   1.888   1.320   2.254 -0.0797 -0.4753  0.0182
16195TIP3    H170076   1.889   1.323   2.159  0.3509  1.4755  0.0546
16195TIP3    H270077   1.846   1.401   2.281  2.2756  0.3801  1.5019
16196TIP3   OH270078   2.562   0.235  13.183  0.2964 -0.0891 -0.2242
16196TIP3    H170079   2.474   0.255  13.153 -0.5460 -1.3632  1.2582
16196TIP3    H270080   2.596   0.172  13.119  0.0151  0.1642 -0.6233
16197TIP3   OH270081   0.747   4.553   5.371 -0.3968 -0.3532 -0.3000
16197TIP3    H170082   0.792   4.567   5.287  1.2772 -0.1032  0.5928
16197TIP3    H270083   0.664   4.601   5.362  1.1974  2.5842 -0.6573
16198TIP3   OH270084   0.643   5.183   3.515  0.0871 -0.2098  0.2628
16198TIP3    H170085   0.657   5.110   3.575 -0.0223  0.4391  1.0870
16198TIP3    H270086   0.549   5.201   3.519  0.2014  0.3616  0.5275
16199TIP3   OH270087   5.792   4.656   3.453  0.3460  0.2779  0.2199
16199TIP3    H170088   5.728   4.697   3.510 -0.8671 -0.2116 -0.7443
16199TIP3    H270089   5.862   4.628   3.512 -0.3746  0.7133  1.3176
16200TIP3   OH270090   2.655   0.135   5.387  0.1849  0.7246  0.6103
16200TIP3    H170091   2.635   0.067   5.452 -0.8039 -0.1566 -0.5751
16200TIP3    H270092   2.595   0.207   5.409 -0.6453  0.1501  0.2603
16201TIP3   OH270093   2.609   3.607  10.566  0.0409  0.2287 -0.2846
16201TIP3    H170094   2.571   3.578  10.483 -2.6473  0.4596  0.7451
16201TIP3    H270095   2.598   3.702  10.566  2.3874  0.5474 -0.6928
16202TIP3   OH270096   6.086   3.410   5.257 -0.4094  0.1066  0.4435
16202TIP3    H170097   5.991   3.404   5.257 -0.4710  0.7430 -0.8196
16202TIP3    H270098   6.105   3.498   5.292 -0.3826  0.7068 -1.0110
16203TIP3   OH270099   5.721   2.518  15.923 -0.1802  0.4833 -0.0118
16203TIP3    H170100   5.749   2.533  16.013  0.1902  0.2266 -0.0800
16203TIP3    H270101   5.744   2.426  15.906 -1.7431  0.0313  0.1722
16204TIP3   OH270102   1.542   0.236   3.499  0.2474 -0.7530 -0.7731
16204TIP3    H170103   1.589   0.312   3.465  0.0335 -0.0589  0.4524
16204TIP3    H270104   1.596   0.161   3.473  3.1140  0.0966  2.1286
16205TIP3   OH270105   3.939   3.262  14.748  0.3119  0.3114 -0.0551
16205TIP3    H170106   3.908   3.332  14.690 -0.3830  1.1589  1.2755
16205TIP3    H270107   3.946   3.185  14.692  2.3373  1.7074 -1.8781
16206TIP3   OH270108   5.246   2.404   5.763 -0.7679  0.0301  0.5740
16206TIP3    H170109   5.183   2.342   5.727 -1.0885  1.5500 -1.6968
16206TIP3    H270110   5.251   2.474   5.697  1.3210  1.2526  1.9204
16207TIP3   OH270111   4.216   4.571   1.581 -0.6686 -0.6428  0.4140
16207TIP3    H170112   4.161   4.595   1.654 -3.2659 -0.7560 -1.3735
16207TIP3    H270113   4.179   4.488   1.549 -0.0120 -0.3195 -1.3422
16208TIP3   OH270114   6.054   1.450  13.530 -0.4128 -0.3169  0.1231
16208TIP3    H170115   6.058   1.429  13.623  0.8798 -0.5437  0.0283
16208TIP3    H270116   6.136   1.497  13.512 -0.0665 -1.3503 -1.1486
16209TIP3   OH270117   1.647   6.750  13.254  0.2424  0.4707  0.5777
16209TIP3    H170118   1.578   6.740  13.189  0.4037 -2.7400  0.7041
16209TIP3    H270119   1.728   6.738  13.205  0.3607 -2.0976  1.2349
16210TIP3   OH270120   4.619   6.085  15.152 -0.0509 -0.0687  0.3097
16210TIP3    H170121   4.601   6.172  15.188  0.1169  0.4407 -0.8064
16210TIP3    H270122   4.536   6.038  15.159 -0.2029  0.2536  0.7196
16211TIP3   OH270123   1.781   0.771  15.161  0.5622  0.0885 -0.2223
16211TIP3    H170124   1.774   0.850  15.107 -3.3860  1.9332  2.5133
16211TIP3    H270125   1.710   0.715  15.131 -1.1485  0.7821  2.2260
16212TIP3   OH270126   1.425   4.468  15.661 -0.2925  0.0996 -0.3562
16212TIP3    H170127   1.507   4.446  15.705 -0.2389 -1.0421 -1.0028
16212TIP3    H270128   1.443   4.455  15.568 -1.3379 -0.6451 -0.4761
16213TIP3   OH270129   2.102   3.094  11.682 -0.1866 -0.3625 -0.2169
16213TIP3    H170130   2.102   3.058  11.594  2.6314 -0.2017 -0.3830
16213TIP3    H270131   2.135   3.023  11.737  1.0411  0.4857  0.1839
16214TIP3   OH270132   2.313   5.180  11.163  0.3758  0.5276 -0.1748
16214TIP3    H170133   2.336   5.135  11.081 -1.1052  0.9302 -0.8384
16214TIP3    H270134   2.369   5.258  11.164  0.2367  0.6451 -0.9341
16215TIP3   OH270135   2.670   3.527   5.613 -0.6004  0.3184  0.7222
16215TIP3    H170136   2.585   3.493   5.639 -1.1410  1.2669  0.2266
16215TIP3    H270137   2.665   3.621   5.632 -0.5363  0.8205 -1.5248
16216TIP3   OH270138   5.655   0.167   1.187  0.0232 -0.1865 -0.1322
16216TIP3    H170139   5.620   0.176   1.099 -0.9358  0.7110  0.3158
16216TIP3    H270140   5.587   0.121   1.236  0.6652 -0.9285  0.0784
16217TIP3   OH270141   2.641   2.680  11.843 -0.1731 -0.0549 -0.2245
16217TIP3    H170142   2.727   2.650  11.815 -0.1719  0.2333 -0.5263
16217TIP3    H270143   2.658   2.728  11.924  0.2485  1.8705 -1.3895
16218TIP3   OH270144   4.169   6.492  15.969 -0.6236 -0.2044 -0.0677
16218TIP3    H170145   4.131   6.432  15.904 -0.6697 -0.1285 -0.1102
16218TIP3    H270146   4.119   6.573  15.959 -2.3946 -0.9938  1.8268
16219TIP3   OH270147   3.294   2.117   0.346 -0.1733  0.3110  0.2643
16219TIP3    H170148   3.281   2.063   0.424  0.2581  0.8374  0.7038
16219TIP3    H270149   3.273   2.205   0.374  2.4402  0.9378  0.5139
16220TIP3   OH270150   3.824   0.869  14.930  0.0584 -0.5163  0.3859
16220TIP3    H170151   3.782   0.797  14.978  0.3498 -0.0710  1.3367
16220TIP3    H270152   3.905   0.885  14.978  0.6466 -0.4266 -0.6014
16221TIP3   OH270153   3.050   4.717  11.651 -0.2107 -0.0484 -0.1408
16221TIP3    H170154   3.072   4.776  11.578  0.4322  0.3020  0.3146
16221TIP3    H270155   3.132   4.709  11.700  0.1877 -2.6959 -1.1147
16222TIP3   OH270156   0.620   4.279  16.197  0.2353 -0.4221 -0.3511
16222TIP3    H170157   0.687   4.213  16.212  0.5026  0.4838  3.3692
16222TIP3    H270158   0.655   4.359  16.236 -2.2208  0.5544  0.0634
16223TIP3   OH270159   0.019   3.607  14.527  0.1333 -0.6318  0.5959
16223TIP3    H170160  -0.070   3.634  14.505  0.1776 -1.3268 -0.5406
16223TIP3    H270161   0.057   3.580  14.443  0.8933 -1.8328  1.2956
16224TIP3   OH270162   2.518   5.546  14.329  0.3440  0.5823 -0.3365
16224TIP3    H170163   2.497   5.486  14.401  1.1284  1.0442  0.2953
16224TIP3    H270164   2.451   5.528  14.263 -0.9607  0.7640  0.8722
16225TIP3   OH270165   1.729   3.177   4.487  0.1490  0.2837  0.1905
16225TIP3    H170166   1.730   3.258   4.437 -0.9659  1.1120  1.4290
16225TIP3    H270167   1.757   3.203   4.575  2.6419 -1.2255 -0.0488
16226TIP3   OH270168   5.801   1.926   2.365  0.5648  0.3104  0.4992
16226TIP3    H170169   5.731   1.974   2.409  2.3279  1.6227  1.9756
16226TIP3    H270170   5.771   1.835   2.367 -1.3657  0.8939  0.5308
16227TIP3   OH270171   0.098   6.761   0.572  0.9387  0.3278  0.1169
16227TIP3    H170172   0.185   6.797   0.591  2.3891 -1.5513 -2.3298
16227TIP3    H270173   0.068   6.808   0.494  0.5704 -0.2415 -0.0961
16228TIP3   OH270174   1.347   5.082   1.658 -0.5119 -0.1163  0.3722
16228TIP3    H170175   1.309   5.030   1.729  2.0759 -1.1516  1.1191
16228TIP3    H270176   1.401   5.147   1.703  0.5726 -0.2951 -0.6322
16229TIP3   OH270177   5.693   1.956   5.776  0.4686 -0.4318  0.1397
16229TIP3    H170178   5.630   1.884   5.770 -1.1225  0.8781  0.3758
16229TIP3    H270179   5.720   1.956   5.868  0.7241 -0.9348  0.0634
16230TIP3   OH270180   2.681   0.075   2.171 -0.0559 -0.2070 -0.1348
16230TIP3    H170181   2.768   0.058   2.206 -0.5608  0.3610  1.5195
16230TIP3    H270182   2.637   0.125   2.240 -1.5064 -0.0059 -1.1570
16231TIP3   OH270183   2.334   1.089  11.792 -0.3881 -0.1824  0.1704
16231TIP3    H170184   2.421   1.092  11.833 -0.9865  1.0206  1.4061
16231TIP3    H270185   2.277   1.053  11.860 -1.6862  3.2139  1.0775
16232TIP3   OH270186   0.459   3.357   3.584  0.3876  0.1766 -0.9243
16232TIP3    H170187   0.511   3.410   3.524 -0.2976 -1.0550 -2.6799
16232TIP3    H270188   0.420   3.289   3.529 -1.1043 -0.4019  0.7441
16233TIP3   OH270189   3.146   2.947  14.408 -0.0908  0.1287  0.5961
16233TIP3    H170190   3.210   3.018  14.403 -0.3132  0.3020  0.1998
16233TIP3    H270191   3.198   2.867  14.396  0.1257  0.2384  0.8089
16234TIP3   OH270192   1.531   2.822   2.768  0.4004  0.3559  0.5334
16234TIP3    H170193   1.558   2.730   2.760  1.0469  0.6818 -1.4153
16234TIP3    H270194   1.496   2.828   2.857  0.6930 -1.6821  0.8471
16235TIP3   OH270195   5.734   2.385   0.455  0.3189 -0.2927  0.3283
16235TIP3    H170196   5.684   2.366   0.535 -0.7344 -2.3460 -0.7509
16235TIP3    H270197   5.739   2.301   0.409  2.2491  0.5066 -1.0456
16236TIP3   OH270198   4.478   2.036  14.193  0.5882  0.1017 -0.5759
16236TIP3    H170199   4.398   2.038  14.247 -0.6250  2.1328 -2.2667
16236TIP3    H270200   4.453   1.988  14.114  1.0000  0.7996 -1.1459
16237TIP3   OH270201   0.271   6.659  12.574 -0.0145  0.0579  0.6331
16237TIP3    H170202   0.243   6.676  12.664  2.4270  0.6582  1.3687
16237TIP3    H270203   0.331   6.585  12.582 -0.1267 -0.1786 -0.5863
16238TIP3   OH270204   3.885   2.970   3.513  0.7338  0.3239 -0.7408
16238TIP3    H170205   3.857   3.001   3.426  1.2461  0.3452 -0.9037
16238TIP3    H270206   3.977   2.947   3.501  1.0386  1.1338  0.0103
16239TIP3   OH270207   0.916   1.879  15.466  0.6748  0.1694 -0.0647
16239TIP3    H170208   0.968   1.881  15.547  1.5236 -0.5714 -0.5748
16239TIP3    H270209   0.981   1.875  15.396 -0.0220  1.8440 -0.8542
16240TIP3   OH270210   4.941   6.026   4.207 -0.1399 -0.1323  0.3736
16240TIP3    H170211   4.864   6.025   4.264 -0.2372 -0.5186  0.2364
16240TIP3    H270212   4.912   6.076   4.130  0.4438  1.6907  1.2726
16241TIP3   OH270213   2.989   6.185  13.802 -0.1024  0.2631 -0.1937
16241TIP3    H170214   2.927   6.165  13.872 -1.0485 -0.9655 -1.3298
16241TIP3    H270215   2.977   6.279  13.787 -1.3420  0.1600 -0.0231
16242TIP3   OH270216   0.087   1.471   0.165  0.3415 -0.5788  0.3892
16242TIP3    H170217   0.166   1.417   0.158  0.7359 -0.0282  0.5664
16242TIP3    H270218   0.117   1.552   0.205 -0.0137  0.2735 -1.0161
16243TIP3   OH270219   4.063   3.386   2.851  0.4436 -0.2711  0.0112
16243TIP3    H170220   3.969   3.402   2.845  0.5329 -0.0963 -1.1739
16243TIP3    H270221   4.091   3.377   2.760  1.2670 -2.0873  0.4008
16244TIP3   OH270222   0.890   2.369  14.814 -0.6102 -0.3609 -0.1600
16244TIP3    H170223   0.835   2.426  14.867 -0.8110 -0.4419 -0.2815
16244TIP3    H270224   0.961   2.426  14.784 -1.6271  0.2231 -1.5471
16245TIP3   OH270225   3.665   6.830   5.861 -0.3020  0.1839 -0.0838
16245TIP3    H170226   3.573   6.809   5.874 -0.6525  0.9500 -1.2354
16245TIP3    H270227   3.700   6.755   5.812 -0.0275 -0.6080  1.2559
16246TIP3   OH270228   3.314   6.339  12.285 -0.1061  0.2795  0.2214
16246TIP3    H170229   3.257   6.263  12.298 -0.7569  0.8322  0.6673
16246TIP3    H270230   3.275   6.386  12.212  1.3707 -0.7835 -1.3343
16247TIP3   OH270231   1.947   1.986   0.707  0.5138  0.2861 -0.1007
16247TIP3    H170232   2.038   1.997   0.737  0.9176  1.0155 -1.4628
16247TIP3    H270233   1.920   2.075   0.682 -0.2163 -0.0834 -0.6582
16248TIP3   OH270234   3.971   5.422  10.420  0.0997  0.2104 -0.2549
16248TIP3    H170235   3.965   5.335  10.380  0.7188 -0.5842  1.2782
16248TIP3    H270236   4.063   5.431  10.444  0.3216  1.8828 -1.5808
16249TIP3   OH270237   1.062   6.433   1.637 -0.5436  0.1084 -0.4944
16249TIP3    H170238   0.967   6.447   1.643 -0.3944  0.6009  1.0811
16249TIP3    H270239   1.076   6.349   1.680 -0.1588  0.5770  0.3299
16250TIP3   OH270240   2.038   1.319  15.667  0.3064  0.1195  0.4833
16250TIP3    H170241   2.085   1.245  15.704 -1.2612 -1.1864 -0.0031
16250TIP3    H270242   2.048   1.309  15.572 -0.6814 -0.0249  0.3812
16251TIP3   OH270243   2.286   6.156   0.927  0.3685  0.2226 -0.1552
16251TIP3    H170244   2.302   6.109   0.845  2.6779 -0.8085  0.7926
16251TIP3    H270245   2.346   6.116   0.990  0.9211  3.0321  1.2737
16252TIP3   OH270246   3.393   3.483   5.591  0.2404  0.2571  0.2198
16252TIP3    H170247   3.341   3.558   5.619  0.5596  0.3662  0.5322
16252TIP3    H270248   3.456   3.520   5.529 -2.4603 -0.4385 -3.2830
16253TIP3   OH270249   1.457   3.095  11.201  0.3896  0.0158  0.5649
16253TIP3    H170250   1.442   3.002  11.186  0.9970  0.3364 -2.7590
16253TIP3    H270251   1.381   3.124  11.251 -1.5966 -1.6574 -1.3019
16254TIP3   OH270252   6.252   6.317  13.618 -0.2540  0.0110 -0.0595
16254TIP3    H170253   6.238   6.325  13.524 -0.3338 -0.6656 -0.1121
16254TIP3    H270254   6.165   6.327  13.657 -0.0781  1.4065  0.0405
16255TIP3   OH270255   1.712   6.043  10.679  0.5583  0.0206 -0.3401
16255TIP3    H170256   1.712   5.954  10.713  0.9001 -0.5586 -1.8084
16255TIP3    H270257   1.628   6.052  10.635 -0.1415  0.9745  1.0835
16256TIP3   OH270258   3.277   1.781  10.524 -0.1244  0.0604 -0.1212
16256TIP3    H170259   3.222   1.752  10.451 -0.7226  1.1785 -0.1424
16256TIP3    H270260   3.271   1.877  10.522  1.2559  0.1844  0.3299
16257TIP3   OH270261   3.381   0.071   5.656  0.1500 -0.1305 -0.2971
16257TIP3    H170262   3.302   0.066   5.602 -0.9697 -0.4076  1.2926
16257TIP3    H270263   3.362   0.014   5.731  1.7889 -0.0358  0.2310
16258TIP3   OH270264   0.262   4.038   4.020 -0.5038  0.0135 -0.0643
16258TIP3    H170265   0.238   4.012   3.931 -1.7325 -0.5336  0.4112
16258TIP3    H270266   0.241   4.131   4.024 -4.3952 -0.7381  0.8442
16259TIP3   OH270267   5.450   5.055  14.303  0.0462  0.6092  0.7577
16259TIP3    H170268   5.525   4.995  14.309 -0.5417 -0.0251  2.6679
16259TIP3    H270269   5.489   5.140  14.284  1.0809 -0.0030  0.0272
16260TIP3   OH270270   1.078   2.868  11.236  0.1267 -0.2325  0.5949
16260TIP3    H170271   1.140   2.924  11.282  1.9828 -1.3325 -0.4349
16260TIP3    H270272   1.011   2.848  11.301  1.5855 -0.1108  2.2148
16261TIP3   OH270273   0.617   2.138   0.451 -0.3699 -0.2364  0.6826
16261TIP3    H170274   0.540   2.112   0.502  0.1960 -1.7105  0.8632
16261TIP3    H270275   0.675   2.180   0.514 -0.8208  0.4247  0.6543
16262TIP3   OH270276   2.410   6.457   1.956 -0.1553  0.1302 -0.3599
16262TIP3    H170277   2.372   6.411   2.030  0.4263  0.2245  0.0075
16262TIP3    H270278   2.477   6.514   1.995 -0.2527  0.6248 -0.8928
16263TIP3   OH270279   5.024   0.474  13.622  0.0821 -0.3211 -0.0561
16263TIP3    H170280   5.050   0.526  13.699  0.1412  0.3289 -0.5007
16263TIP3    H270281   5.045   0.384  13.646 -0.5960 -0.2253  0.9791
16264TIP3   OH270282   0.612   5.338  15.584  0.4145 -0.5028 -0.0711
16264TIP3    H170283   0.591   5.260  15.635  0.7378 -0.5306  0.0268
16264TIP3    H270284   0.664   5.305  15.510  2.4407 -0.1758  1.1195
16265TIP3   OH270285   1.928   1.806  16.101 -0.8315 -0.0722 -0.2931
16265TIP3    H170286   1.867   1.733  16.094 -0.0855 -0.6756 -0.6355
16265TIP3    H270287   1.878   1.881  16.067 -1.8154 -0.2648  0.6567
16266TIP3   OH270288   4.052   3.291   4.992 -0.3838  0.2555  0.4639
16266TIP3    H170289   4.072   3.253   4.907  0.2441  0.4020  0.5350
16266TIP3    H270290   4.092   3.379   4.989 -1.2982  0.6817  0.5165
16267TIP3   OH270291   5.753   4.350   5.635 -0.0355 -0.0661  0.8150
16267TIP3    H170292   5.725   4.393   5.716 -0.7464  2.3888 -0.6067
16267TIP3    H270293   5.671   4.327   5.591  0.3444 -2.1327  1.0998
16268TIP3   OH270294   6.247   6.618   4.872 -0.5805 -0.3008  0.4626
16268TIP3    H170295   6.332   6.636   4.832 -0.5339  2.0700  1.4380
16268TIP3    H270296   6.192   6.691   4.843 -1.4553 -0.2793  2.0810
16269TIP3   OH270297   3.046   4.883   2.992  0.1662 -0.4882 -0.0286
16269TIP3    H170298   3.119   4.835   2.953 -0.7254 -0.6703 -1.5158
16269TIP3    H270299   3.026   4.834   3.072  1.3752 -0.6883  0.1769
16270TIP3   OH270300   6.591   5.531  16.877 -0.4827 -0.3070 -0.1758
16270TIP3    H170301   6.587   5.626  16.894  1.4886 -0.3838  0.9534
16270TIP3    H270302   6.570   5.523  16.784 -1.3886  1.1584 -0.1436
16271TIP3   OH270303   5.970   3.848  17.041  0.0235 -0.5959  0.6579
16271TIP3    H170304   6.061   3.840  17.069 -0.3484  0.0205  2.1225
16271TIP3    H270305   5.965   3.933  16.998 -0.5294  0.9620  3.5618
16272TIP3   OH270306   0.350   2.319  17.042 -0.6210 -0.0697 -0.3268
16272TIP3    H170307   0.358   2.369  16.960 -0.5092 -0.9704 -0.8875
16272TIP3    H270308   0.257   2.297  17.047 -0.9235  1.2771  0.6046
16273TIP3   OH270309   4.593   6.250   6.613 -0.3728  0.8454  0.4925
16273TIP3    H170310   4.523   6.256   6.678  0.8835  1.0874  1.8902
16273TIP3    H270311   4.641   6.170   6.637 -0.5651  0.3065 -0.8637
16274TIP3   OH270312   0.303   3.124   3.835  0.1348  0.6068  0.2972
16274TIP3    H170313   0.256   3.186   3.778 -3.5967 -0.3524  1.9984
16274TIP3    H270314   0.341   3.179   3.903  0.5287  1.3571 -0.5059
16275TIP3   OH270315   4.298   5.176  13.873 -0.0633  0.3153  0.1875
16275TIP3    H170316   4.353   5.223  13.937 -1.5318  1.9829  0.2961
16275TIP3    H270317   4.218   5.228  13.868 -0.9071 -1.0612 -1.3243
16276TIP3   OH270318   3.301   2.308   1.204 -0.3409  0.7861 -0.3327
16276TIP3    H170319   3.274   2.272   1.289  0.9095 -0.1692 -0.3213
16276TIP3    H270320   3.273   2.243   1.140  1.8049 -0.2537 -0.3214
16277TIP3   OH270321   1.868   1.605  14.269  0.5559 -0.4755 -0.4355
16277TIP3    H170322   1.941   1.562  14.224  0.0207 -0.7952 -1.0069
16277TIP3    H270323   1.807   1.628  14.199  0.9504  1.4799 -0.1937
16278TIP3   OH270324   4.286   4.753   2.446  0.1028 -0.0188 -0.0617
16278TIP3    H170325   4.305   4.772   2.354  1.0492  0.3871  0.2080
16278TIP3    H270326   4.356   4.694   2.473 -1.4592 -2.0524 -0.2160
16279TIP3   OH270327   3.319   5.381  15.784  0.4999  0.2112 -0.1932
16279TIP3    H170328   3.254   5.313  15.769  0.6487  0.2774 -1.2095
16279TIP3    H270329   3.401   5.344  15.751  0.6878  0.6778 -0.2599
16280TIP3   OH270330   6.123   3.341   0.330  0.2868  0.1002  0.4073
16280TIP3    H170331   6.084   3.409   0.384  1.2333  1.9161 -1.0568
16280TIP3    H270332   6.178   3.291   0.390  1.1345  1.8958  1.2151
16281TIP3   OH270333   5.837   3.295   1.338 -0.0341  0.3876  0.2406
16281TIP3    H170334   5.881   3.241   1.403 -0.6274 -0.7457 -0.2779
16281TIP3    H270335   5.820   3.378   1.383  2.7134  0.9426  0.4273
16282TIP3   OH270336   4.233   6.014   5.530  0.1024  0.0890  0.1301
16282TIP3    H170337   4.298   6.084   5.537  0.0689  0.0738  0.6230
16282TIP3    H270338   4.217   6.006   5.436  0.4258  0.4485  0.0403
16283TIP3   OH270339   5.161   4.831  11.213 -0.5306 -0.0276 -0.3410
16283TIP3    H170340   5.079   4.786  11.195 -0.4708 -0.3527  0.1669
16283TIP3    H270341   5.166   4.900  11.147 -1.3097  0.1277 -0.2451
16284TIP3   OH270342   1.470   5.221  13.864  0.0135  0.3597 -0.6983
16284TIP3    H170343   1.462   5.271  13.783 -0.6165  0.1066 -0.7937
16284TIP3    H270344   1.431   5.278  13.931 -0.8057 -0.0420 -0.8256
16285TIP3   OH270345   2.949   3.080   4.524 -0.3543 -0.1206 -0.7419
16285TIP3    H170346   3.040   3.058   4.505 -0.6234 -0.9679 -1.1245
16285TIP3    H270347   2.903   2.996   4.517 -0.9793  0.0837  0.5886
16286TIP3   OH270348   0.677   3.724  16.757 -0.4003  0.3851  0.6096
16286TIP3    H170349   0.658   3.792  16.822 -2.1933  0.5037  0.0186
16286TIP3    H270350   0.591   3.697  16.725  0.4235  0.3378 -1.7334
16287TIP3   OH270351   2.142   4.939   2.532 -0.0756 -0.1208 -0.0099
16287TIP3    H170352   2.058   4.980   2.514 -0.8762 -2.2898 -1.5440
16287TIP3    H270353   2.135   4.908   2.622 -1.0862 -0.6164 -0.2450
16288TIP3   OH270354   1.705   2.850   0.473  0.1343  0.2983 -0.6155
16288TIP3    H170355   1.636   2.797   0.433  0.0916  1.0822 -1.6319
16288TIP3    H270356   1.697   2.936   0.430  0.6946  0.8924  0.4318
16289TIP3   OH270357   5.584   4.380   0.746 -0.0737  0.0830 -0.0861
16289TIP3    H170358   5.556   4.406   0.658  0.5019  1.7840  0.1969
16289TIP3    H270359   5.567   4.457   0.800 -0.5366 -0.9816  1.3378
16290TIP3   OH270360   2.057   3.726   5.109  0.3128  0.1991  0.7580
16290TIP3    H170361   2.148   3.758   5.110  0.0551  0.9508  0.5531
16290TIP3    H270362   2.007   3.796   5.152 -0.1267 -0.3585  1.1695
16291TIP3   OH270363   6.305   1.270   1.506  0.5591 -0.2647  0.5457
16291TIP3    H170364   6.255   1.198   1.466 -0.9909  0.8007  0.4707
16291TIP3    H270365   6.335   1.235   1.590 -0.8978 -0.7536  0.8948
16292TIP3   OH270366   5.463   6.653   1.144  0.0753  0.3143  0.1889
16292TIP3    H170367   5.545   6.614   1.114  0.8694  1.2884  1.0061
16292TIP3    H270368   5.404   6.578   1.156  0.7341 -0.3697 -0.7182
16293TIP3   OH270369   1.374   3.981   0.232 -1.1044 -0.2251  0.0520
16293TIP3    H170370   1.336   3.897   0.257 -0.1560 -0.3210  1.2574
16293TIP3    H270371   1.400   4.021   0.315  1.5170 -0.2191 -0.6943
16294TIP3   OH270372   4.645   2.702  13.958 -0.3661 -0.6728 -0.4580
16294TIP3    H170373   4.581   2.772  13.973  0.7455  0.3190 -0.1277
16294TIP3    H270374   4.708   2.741  13.897 -0.8416 -2.1280 -1.9241
16295TIP3   OH270375   4.035   3.992   0.948 -0.2931  0.0146  0.5611
16295TIP3    H170376   4.110   4.027   0.899  0.2462 -1.7938  0.0160
16295TIP3    H270377   4.075   3.942   1.020 -0.9417 -1.0474  0.2085
16296TIP3   OH270378   3.769   2.372   3.311  0.0564 -0.1131  0.0245
16296TIP3    H170379   3.676   2.390   3.320 -0.1517 -0.0153 -1.9649
16296TIP3    H270380   3.806   2.453   3.277  1.2297  0.4650  2.4348
16297TIP3   OH270381   0.966   2.512   2.263 -0.1417 -0.0717 -0.0508
16297TIP3    H170382   0.926   2.426   2.248 -3.0855  1.1274  0.4577
16297TIP3    H270383   0.959   2.557   2.179  0.4859  0.0666 -0.0363
16298TIP3   OH270384   3.874   3.195   2.639  0.0684 -0.2547 -0.2177
16298TIP3    H170385   3.944   3.196   2.573 -0.0687 -2.2262 -0.4390
16298TIP3    H270386   3.851   3.103   2.648  0.9068 -0.2341  3.5056
16299TIP3   OH270387   4.332   4.974   0.150 -0.1896  0.0578  0.0744
16299TIP3    H170388   4.354   5.066   0.164  0.8434  0.2968 -2.6374
16299TIP3    H270389   4.408   4.926   0.182  0.0891  0.2811 -0.2437
16300TIP3   OH270390   1.341   0.470  14.586 -0.1314  0.0292  0.4352
16300TIP3    H170391   1.260   0.491  14.539 -0.9944 -0.0362  1.8190
16300TIP3    H270392   1.365   0.382  14.555 -1.0470 -0.2848  0.5866
16301TIP3   OH270393   2.917   5.650   1.229  0.7534  0.1567 -0.3400
16301TIP3    H170394   2.840   5.652   1.173 -0.2641  1.2490  1.0453
16301TIP3    H270395   2.883   5.643   1.318  2.3081 -0.8685  0.2289
16302TIP3   OH270396   2.160   6.254   0.346 -0.7116  0.0085 -0.2831
16302TIP3    H170397   2.085   6.226   0.398 -0.6598 -0.5777 -0.5175
16302TIP3    H270398   2.228   6.273   0.411 -1.2669  1.2100 -0.0274
16303TIP3   OH270399   3.788   1.524   4.812  0.2919  0.3661  0.1736
16303TIP3    H170400   3.735   1.600   4.836 -1.2501 -0.5416 -0.2102
16303TIP3    H270401   3.824   1.492   4.895 -0.9907  0.1367  0.6670
16304TIP3   OH270402   4.474   1.145  16.339 -0.0622  0.7983 -0.5423
16304TIP3    H170403   4.511   1.145  16.251  0.6953  0.4356 -0.2346
16304TIP3    H270404   4.392   1.097  16.331 -0.1159  0.9769 -1.0941
16305TIP3   OH270405   1.206   5.709  13.450 -0.4738  0.1741 -0.9981
16305TIP3    H170406   1.141   5.738  13.386 -1.3979 -0.9418 -0.6027
16305TIP3    H270407   1.223   5.618  13.427 -0.1052  0.0382 -0.2222
16306TIP3   OH270408   4.138   6.790  16.283  0.3633  0.1618 -0.1249
16306TIP3    H170409   4.093   6.839  16.353 -3.2110 -1.3403 -1.1612
16306TIP3    H270410   4.159   6.706  16.323  1.5850  0.5588  0.1049
16307TIP3   OH270411   4.480   1.661   3.846 -0.5300  0.3900  0.0072
16307TIP3    H170412   4.525   1.646   3.763 -1.3828  0.5657 -0.4940
16307TIP3    H270413   4.547   1.702   3.902 -0.0405  0.5755 -0.6996
16308TIP3   OH270414   5.367   3.721  15.367 -0.0225  0.0372  0.5748
16308TIP3    H170415   5.276   3.704  15.343  0.0911  0.5610 -0.2519
16308TIP3    H270416   5.399   3.638  15.402 -0.4476 -0.4969 -0.2954
16309TIP3   OH270417   4.236   5.437   3.836  0.5792 -0.1612  0.6562
16309TIP3    H170418   4.279   5.363   3.793  0.1150  0.2167 -0.4922
16309TIP3    H270419   4.153   5.401   3.868  0.7331 -0.3407  0.8554
16310TIP3   OH270420   4.577   0.888   3.158  0.0633 -0.4062  0.5979
16310TIP3    H170421   4.494   0.854   3.191 -0.9241  0.7710 -0.5386
16310TIP3    H270422   4.552   0.949   3.089  1.7794  1.7127  1.7184
16311TIP3   OH270423   2.030   6.337   5.953  0.1398 -0.2477  0.1778
16311TIP3    H170424   2.052   6.300   6.038 -1.2557  0.3569  0.8231
16311TIP3    H270425   1.997   6.263   5.901  0.1159 -0.4401  0.4690
16312TIP3   OH270426   2.552   6.025   2.962  0.1351 -0.1114 -0.2394
16312TIP3    H170427   2.516   6.088   3.023 -0.3149 -0.4960 -0.1007
16312TIP3    H270428   2.637   6.061   2.937 -0.8747  1.4571 -1.5694
16313TIP3   OH270429   1.680   5.618   3.948  0.0177 -0.5145  0.2162
16313TIP3    H170430   1.739   5.563   3.897 -2.3683 -3.3873  0.2974
16313TIP3    H270431   1.630   5.667   3.883 -0.9883 -1.9604 -0.1387
16314TIP3   OH270432   5.135   3.834  12.537 -0.3450  0.1008 -0.6076
16314TIP3    H170433   5.127   3.747  12.577 -1.0290  0.4114 -0.0643
16314TIP3    H270434   5.226   3.837  12.507  0.0131 -0.3841  0.3613
16315TIP3   OH270435   3.542   2.195  12.869  0.6702 -0.1082 -0.3792
16315TIP3    H170436   3.478   2.251  12.826 -0.2190 -1.0626 -0.3533
16315TIP3    H270437   3.626   2.238  12.855 -0.1097  2.0175  0.9300
16316TIP3   OH270438   5.695   3.566   5.779  0.1145 -0.1696 -0.3628
16316TIP3    H170439   5.695   3.597   5.869  0.0222  2.1555 -1.1169
16316TIP3    H270440   5.778   3.597   5.743 -0.3645 -0.0635 -1.3987
16317TIP3   OH270441   3.549   1.711  17.127  0.1684  0.0863 -0.3874
16317TIP3    H170442   3.483   1.656  17.169  1.1136 -0.4228  0.4763
16317TIP3    H270443   3.502   1.754  17.056 -0.9117 -0.8285 -0.2648
16318TIP3   OH270444   3.738   3.964  16.955 -0.4879  0.1239 -0.2267
16318TIP3    H170445   3.765   3.948  17.045  0.0923  0.4020 -0.3470
16318TIP3    H270446   3.818   3.956  16.904 -1.0004 -1.1526 -0.8686
16319TIP3   OH270447   3.794   4.484  13.172  0.4595 -0.3529  0.3564
16319TIP3    H170448   3.799   4.480  13.267 -0.1288 -0.7421  0.3742
16319TIP3    H270449   3.805   4.577  13.151  0.0152 -0.1868  0.8382
16320TIP3   OH270450   3.327   4.990  13.822  0.3787  0.4318 -1.1109
16320TIP3    H170451   3.410   5.036  13.812 -0.2628  1.5429 -1.5004
16320TIP3    H270452   3.320   4.935  13.743 -0.4715  2.3808 -2.4799
16321TIP3   OH270453   6.067   6.122   2.311 -0.5334 -0.3390 -0.7756
16321TIP3    H170454   6.075   6.180   2.387  1.1005 -1.5400  0.0241
16321TIP3    H270455   6.066   6.182   2.236  0.0953  0.7942  0.0728
16322TIP3   OH270456   0.967   3.086   0.338 -0.0498 -0.3430 -0.2134
16322TIP3    H170457   0.928   3.042   0.262  1.8482 -0.7649 -0.9989
16322TIP3    H270458   0.999   3.169   0.304  1.3814 -0.8045 -0.0673
16323TIP3   OH270459   3.556   2.796  16.343 -0.0538 -0.4682  0.0884
16323TIP3    H170460   3.527   2.845  16.420  1.3367  1.1026 -0.3120
16323TIP3    H270461   3.651   2.810  16.340  0.3506 -2.9287 -0.2962
16324TIP3   OH270462   5.261   3.335   5.604  0.1665  0.1350 -0.3169
16324TIP3    H170463   5.334   3.396   5.596 -0.8803  1.2560 -2.1156
16324TIP3    H270464   5.206   3.372   5.674  0.8515 -0.2158  0.4136
16325TIP3   OH270465   1.066   4.424  13.382 -0.0860 -0.0445  0.7679
16325TIP3    H170466   1.066   4.340  13.428  0.7505  1.4920  3.8502
16325TIP3    H270467   1.151   4.429  13.339 -0.3680 -0.9695  0.0763
16326TIP3   OH270468   2.773   1.401  12.986 -0.3923  0.0210 -0.3212
16326TIP3    H170469   2.807   1.437  12.904  0.6670 -0.8571 -0.2993
16326TIP3    H270470   2.807   1.311  12.988 -2.2157 -0.6917  0.0354
16327TIP3   OH270471   0.764   1.366   4.202  0.3099  0.6364 -0.2438
16327TIP3    H170472   0.744   1.318   4.122 -0.3500  0.6897 -0.1170
16327TIP3    H270473   0.754   1.302   4.272  1.5889  0.4048 -0.2486
16328TIP3   OH270474   2.322   6.427  11.015  0.0866  0.1183  0.2813
16328TIP3    H170475   2.247   6.379  10.981  0.0562 -1.1169  1.9647
16328TIP3    H270476   2.293   6.518  11.020 -0.4528  0.0664 -1.3365
16329TIP3   OH270477   6.694   1.019  13.975 -0.2579  0.1601 -0.1699
16329TIP3    H170478   6.668   0.978  14.058 -0.9137  0.7354 -0.0784
16329TIP3    H270479   6.760   1.084  13.999 -2.8938  2.8193  0.4555
16330TIP3   OH270480   0.982   5.585  12.058 -0.1982 -0.1289 -0.4795
16330TIP3    H170481   1.059   5.588  12.114 -0.1715 -0.4006 -0.4982
16330TIP3    H270482   0.912   5.625  12.110 -0.4592 -1.4175  0.2228
16331TIP3   OH270483   5.386   5.515  12.437 -0.1866  0.2975 -0.4479
16331TIP3    H170484   5.358   5.528  12.528  0.5936 -0.0464 -0.1521
16331TIP3    H270485   5.470   5.470  12.444  0.5216  1.4266 -1.3079
16332TIP3   OH270486   2.304   2.463   6.075 -0.1483 -0.4528 -0.3164
16332TIP3    H170487   2.256   2.442   5.995 -0.0772 -0.7563 -0.2787
16332TIP3    H270488   2.305   2.381   6.125  0.2251 -0.3910 -0.2226
16333TIP3   OH270489   1.012   6.503  14.440  0.0208 -0.5547  0.6355
16333TIP3    H170490   0.994   6.467  14.527 -0.0242 -1.0603  0.4232
16333TIP3    H270491   1.006   6.427  14.381 -0.5094 -0.1209  0.1172
16334TIP3   OH270492   5.304   6.020   0.449 -0.4614 -0.2798 -0.3560
16334TIP3    H170493   5.210   6.036   0.457 -0.2209  0.2748  1.8973
16334TIP3    H270494   5.312   5.964   0.372 -2.5684  0.1605 -0.9555
16335TIP3   OH270495   1.154   5.363  13.021 -0.0890  0.7577  0.3189
16335TIP3    H170496   1.078   5.320  13.060 -1.3394  0.6376 -2.0587
16335TIP3    H270497   1.141   5.354  12.927  2.2401  1.8936 -0.1932
16336TIP3   OH270498   2.527   6.681  17.056 -0.6569 -0.6685  0.2410
16336TIP3    H170499   2.453   6.682  17.117 -0.6826 -0.3604  0.2060
16336TIP3    H270500   2.598   6.639  17.105 -1.2992 -2.4329 -0.2467
16337TIP3   OH270501   3.622   4.084   4.588  0.5511  0.7626  0.4367
16337TIP3    H170502   3.576   4.167   4.598  0.2642  0.6956 -0.2431
16337TIP3    H270503   3.560   4.017   4.617  0.6164  0.7527  0.5538
16338TIP3   OH270504   4.719   3.419   2.581 -0.6028 -0.2692 -0.1816
16338TIP3    H170505   4.688   3.339   2.624  1.0497 -0.8163  0.0711
16338TIP3    H270506   4.645   3.448   2.528 -1.4710 -1.5989  0.2503
16339TIP3   OH270507   0.568   5.396  13.264 -0.1479 -0.3187  0.3688
16339TIP3    H170508   0.625   5.454  13.213 -0.1056  0.2679  1.0582
16339TIP3    H270509   0.532   5.452  13.333 -2.5078 -0.3883 -0.7242
16340TIP3   OH270510   5.479   3.446   1.483 -0.0320  0.0851 -0.6248
16340TIP3    H170511   5.545   3.431   1.551  0.1690  0.9870 -0.6078
16340TIP3    H270512   5.413   3.378   1.498  1.3114 -1.3845 -1.1947
16341TIP3   OH270513   2.409   4.620  16.427  0.2968 -0.1838  0.2412
16341TIP3    H170514   2.425   4.528  16.446 -0.0976 -0.4543 -0.6764
16341TIP3    H270515   2.467   4.668  16.487  0.5097 -1.0182  0.7185
16342TIP3   OH270516   0.799   1.633   3.420 -0.0779 -0.6725  0.0552
16342TIP3    H170517   0.723   1.660   3.370  0.1207  0.2426  0.2302
16342TIP3    H270518   0.819   1.545   3.388 -0.8277 -0.6767 -0.4245
16343TIP3   OH270519   4.547   4.634   6.094 -0.6325 -0.0889 -0.3622
16343TIP3    H170520   4.590   4.566   6.147 -0.1422  1.9069  2.0269
16343TIP3    H270521   4.456   4.607   6.090  0.1083 -2.6738 -2.6272
16344TIP3   OH270522   3.815   0.513   5.174  0.5327  0.6439 -0.2987
16344TIP3    H170523   3.814   0.505   5.079  0.7086 -0.0226 -0.2488
16344TIP3    H270524   3.899   0.476   5.201  0.8461  1.5737  0.0626
16345TIP3   OH270525   1.039   5.915   2.271 -0.2098  0.7498 -0.0230
16345TIP3    H170526   1.123   5.868   2.271 -0.7237 -0.2515 -1.6371
16345TIP3    H270527   0.982   5.861   2.325 -0.5571 -0.0519 -1.1659
16346TIP3   OH270528   4.279   5.319   2.034  0.0042 -0.1623 -0.5647
16346TIP3    H170529   4.362   5.281   2.064  0.3929  0.4564 -0.8288
16346TIP3    H270530   4.304   5.402   1.994 -0.5114 -0.8955 -2.5109
16347TIP3   OH270531   0.242   2.355   3.943 -0.2051  0.0136  0.0181
16347TIP3    H170532   0.294   2.388   3.870  1.3439  0.8148  1.4240
16347TIP3    H270533   0.170   2.418   3.952  0.4791  0.7840  0.1666
16348TIP3   OH270534   0.484   1.445  14.294  0.3915  0.3433 -0.4602
16348TIP3    H170535   0.511   1.384  14.225  1.0221  0.7215 -0.5602
16348TIP3    H270536   0.396   1.473  14.269 -1.0121 -2.4427  0.9111
16349TIP3   OH270537   5.631   5.453   0.187 -0.1672  0.1552  0.2256
16349TIP3    H170538   5.618   5.451   0.092 -2.1557  0.0858  0.4508
16349TIP3    H270539   5.695   5.522   0.200 -0.8128  1.0717 -1.1076
16350TIP3   OH270540   4.572   3.377  14.043  0.6641 -0.5123  0.2923
16350TIP3    H170541   4.658   3.383  14.002  1.0121  0.6350  1.1542
16350TIP3    H270542   4.522   3.449  14.005  0.2462 -0.8530  0.1859
16351TIP3   OH270543   3.059   4.747   3.908  0.1799  0.1485 -0.0969
16351TIP3    H170544   3.148   4.722   3.883  0.4199  0.1360  0.7487
16351TIP3    H270545   3.037   4.820   3.849  1.9659  2.3381  1.7624
16352TIP3   OH270546   3.075   2.922   3.569  0.0968 -0.2776 -0.3734
16352TIP3    H170547   3.035   3.008   3.570 -0.4765 -0.4760  2.2718
16352TIP3    H270548   3.067   2.892   3.479 -2.0259  1.3717 -0.8061
16353TIP3   OH270549   1.787   4.541  14.836 -0.0195 -0.0456  0.2909
16353TIP3    H170550   1.796   4.477  14.765 -0.2074 -1.7280  1.7326
16353TIP3    H270551   1.847   4.612  14.811 -1.1176  0.1133 -2.2351
16354TIP3   OH270552   6.144   6.101   4.911  0.2539 -0.5859 -0.0333
16354TIP3    H170553   6.148   6.027   4.972 -1.2254 -0.8664 -0.2317
16354TIP3    H270554   6.235   6.125   4.896  0.6495 -0.3257  2.4818
16355TIP3   OH270555   1.504   3.556  13.092 -0.1612  0.0888 -0.0823
16355TIP3    H170556   1.422   3.550  13.141  0.6627  1.0686  1.5099
16355TIP3    H270557   1.496   3.637  13.041 -0.9757 -0.8782 -1.5887
16356TIP3   OH270558   2.284   2.381  11.523  0.0539 -0.1995  0.2704
16356TIP3    H170559   2.264   2.289  11.539  0.6770 -0.2382  0.8281
16356TIP3    H270560   2.240   2.427  11.594  0.4687 -0.1387  0.4886
16357TIP3   OH270561   6.153   5.491   4.565  0.1293 -0.2220  0.4204
16357TIP3    H170562   6.136   5.461   4.654  1.0952  1.7819  1.3572
16357TIP3    H270563   6.204   5.572   4.577  1.2678 -0.5070 -1.9758
16358TIP3   OH270564   1.839   0.679   4.681 -0.3602 -0.3335 -0.0335
16358TIP3    H170565   1.781   0.711   4.751  0.2279  0.7411 -0.0021
16358TIP3    H270566   1.923   0.721   4.700  0.4633 -1.8966 -0.0459
16359TIP3   OH270567   0.167   0.336  17.094 -0.4312 -0.6325 -0.5145
16359TIP3    H170568   0.144   0.382  17.175 -0.6707 -1.3717 -0.1558
16359TIP3    H270569   0.084   0.305  17.059 -0.3018 -0.5222 -0.9204
16360TIP3   OH270570   1.642   6.392   4.259 -0.3717 -0.6060 -0.2490
16360TIP3    H170571   1.665   6.465   4.202 -0.2617 -0.2942  0.1867
16360TIP3    H270572   1.685   6.316   4.220 -0.0728 -0.3454 -0.4273
16361TIP3   OH270573   6.643   6.660  12.130 -0.5105 -0.1912 -0.0246
16361TIP3    H170574   6.629   6.705  12.213  0.7478  3.3085 -1.5435
16361TIP3    H270575   6.565   6.682  12.078 -0.8578 -1.6028 -0.1455
16362TIP3   OH270576   2.570   1.933  16.380  0.5394  0.0120 -0.1840
16362TIP3    H170577   2.499   1.884  16.338  0.2190  0.3951 -0.0908
16362TIP3    H270578   2.628   1.865  16.414  0.3935 -0.3048 -0.5523
16363TIP3   OH270579   3.248   1.191   1.530  0.4872 -0.8138  0.7083
16363TIP3    H170580   3.283   1.210   1.617  0.1858  0.4642  0.5630
16363TIP3    H270581   3.274   1.100   1.514  2.0418 -0.5306  1.4042
16364TIP3   OH270582   2.433   1.745  10.388  0.0346  0.0920 -0.3731
16364TIP3    H170583   2.519   1.773  10.419  0.1494 -0.6582  0.0325
16364TIP3    H270584   2.452   1.677  10.324 -0.2543 -0.7421  0.3989
16365TIP3   OH270585   6.789   2.831   0.917  0.4720 -0.6799  0.3486
16365TIP3    H170586   6.763   2.893   0.849 -1.1649 -1.3059  0.3553
16365TIP3    H270587   6.795   2.885   0.996 -0.9044 -0.4724  0.3505
16366TIP3   OH270588   2.720   2.217   1.222 -0.2005 -0.0463 -0.1896
16366TIP3    H170589   2.697   2.204   1.314 -0.9283 -0.4917 -0.4259
16366TIP3    H270590   2.811   2.249   1.224  0.9033 -2.9409  0.5585
16367TIP3   OH270591   4.278   6.194  13.390  0.0562 -0.3102  0.1387
16367TIP3    H170592   4.183   6.199  13.405  0.1639 -0.4197  0.8617
16367TIP3    H270593   4.286   6.143  13.309 -0.4865 -0.6188  0.2726
16368TIP3   OH270594   0.509   4.232   2.784 -0.4459  0.2960 -0.0043
16368TIP3    H170595   0.588   4.277   2.815 -0.0186 -0.1254 -0.4821
16368TIP3    H270596   0.524   4.216   2.691 -0.2894 -1.4585  0.2891
16369TIP3   OH270597   5.667   1.403  12.047  0.1254  0.0678 -0.0882
16369TIP3    H170598   5.647   1.442  11.962 -1.7624  0.9561  0.6844
16369TIP3    H270599   5.677   1.478  12.106 -1.0513 -0.5285  0.9339
16370TIP3   OH270600   5.257   6.695   2.061  0.3120  0.1915  0.1727
16370TIP3    H170601   5.260   6.708   1.966  0.1778  0.0826  0.1525
16370TIP3    H270602   5.320   6.758   2.096  3.5117 -2.4544 -0.2816
16371TIP3   OH270603   6.622   1.464  15.780 -0.5346  0.2272 -0.0203
16371TIP3    H170604   6.668   1.382  15.795 -0.2354  0.2600 -0.7435
16371TIP3    H270605   6.534   1.449  15.815 -0.5086 -0.4301 -0.2314
16372TIP3   OH270606   2.842   5.621   3.930 -0.0152  0.4047  0.4827
16372TIP3    H170607   2.928   5.581   3.935 -0.9183 -1.6507  0.7038
16372TIP3    H270608   2.857   5.714   3.945  1.7534 -0.3368  4.4703
16373TIP3   OH270609   3.137   1.049   4.120 -0.4012  1.0069 -0.4420
16373TIP3    H170610   3.224   1.032   4.157 -0.1120  2.7783 -0.2146
16373TIP3    H270611   3.076   1.026   4.189 -0.0841  0.3968 -0.3574
16374TIP3   OH270612   6.100   2.592  14.859 -0.1888  0.6628 -0.2329
16374TIP3    H170613   6.167   2.657  14.837 -0.8463  1.6995  0.7242
16374TIP3    H270614   6.147   2.522  14.903  0.4788  0.6643 -0.9282
16375TIP3   OH270615   0.923   0.018   5.887  0.0789 -0.1396 -0.1863
16375TIP3    H170616   0.945  -0.010   5.798  1.2302 -0.5433  0.2122
16375TIP3    H270617   1.005   0.053   5.922 -0.1175 -0.8818  1.0589
16376TIP3   OH270618   5.644   6.769  16.697  0.2168  0.5422 -0.4885
16376TIP3    H170619   5.723   6.716  16.691  0.7817  0.6627  3.3113
16376TIP3    H270620   5.581   6.725  16.640  2.1872 -1.1070 -1.5389
16377TIP3   OH270621   4.458   1.204   4.581 -0.2083 -0.3465  0.3227
16377TIP3    H170622   4.432   1.257   4.656  0.1776  0.0282  0.1967
16377TIP3    H270623   4.547   1.175   4.601 -0.6344 -1.4632  0.6666
16378TIP3   OH270624   1.765   2.903  14.352  0.1745  0.1050 -0.4806
16378TIP3    H170625   1.729   2.940  14.432  1.4111  0.3846 -0.0211
16378TIP3    H270626   1.724   2.954  14.281 -0.9866 -0.2027 -0.0473
16379TIP3   OH270627   2.304   4.943  12.394 -0.2844 -0.5925  0.5922
16379TIP3    H170628   2.246   4.900  12.457 -0.2368  0.7015  1.5331
16379TIP3    H270629   2.251   5.013  12.357  0.2434 -0.2643  0.4517
16380TIP3   OH270630   5.989   6.275   1.031 -0.2751 -0.2200  0.3139
16380TIP3    H170631   5.968   6.280   0.938 -0.5556 -0.2523  0.3744
16380TIP3    H270632   5.989   6.181   1.051  1.9029 -0.3626 -0.1259
16381TIP3   OH270633   6.144   2.230  13.803 -0.0462 -0.1575 -0.2245
16381TIP3    H170634   6.155   2.259  13.712  0.1043  1.0749  0.1693
16381TIP3    H270635   6.074   2.164  13.799 -1.9872  1.8400 -0.8792
16382TIP3   OH270636   1.279   1.006   3.990  0.1662 -0.1481  0.0075
16382TIP3    H170637   1.249   0.961   4.069 -0.6392 -1.0323 -0.7724
16382TIP3    H270638   1.261   0.945   3.919 -1.5249  1.5969 -1.1773
16383TIP3   OH270639   4.882   2.698   1.443  0.3292  0.1256  0.6392
16383TIP3    H170640   4.901   2.717   1.535  0.7195 -0.8275  0.7651
16383TIP3    H270641   4.830   2.618   1.446 -1.1089  1.0093  0.1182
16384TIP3   OH270642   6.693   1.721  14.093  0.0699 -0.0617  0.2488
16384TIP3    H170643   6.745   1.764  14.160 -0.3095 -0.6187  0.9227
16384TIP3    H270644   6.745   1.727  14.013  0.0576  1.5586  0.3300
16385TIP3   OH270645   5.811   6.677  17.183 -0.2656  0.7953 -0.0860
16385TIP3    H170646   5.769   6.704  17.101  0.7629 -0.5960 -1.1335
16385TIP3    H270647   5.904   6.669  17.161 -0.2885 -2.0912  0.4636
16386TIP3   OH270648   1.187   6.458  12.718 -0.5605 -0.1309  0.2906
16386TIP3    H170649   1.181   6.499  12.632  0.5300 -0.8558 -0.1571
16386TIP3    H270650   1.269   6.490  12.755 -0.4746 -0.6756  0.5913
16387TIP3   OH270651   1.539   3.488  14.576 -0.2166  0.3094  1.0376
16387TIP3    H170652   1.555   3.582  14.563  0.3698  0.6986  3.9145
16387TIP3    H270653   1.444   3.479  14.573 -0.2696  0.9606  0.6135
16388TIP3   OH270654   3.673   6.409  14.729 -0.0340  0.0221  0.4168
16388TIP3    H170655   3.691   6.496  14.766 -1.4792  0.3223  0.4560
16388TIP3    H270656   3.578   6.400  14.734  0.1351 -1.8114  0.9518
16389TIP3   OH270657   3.128   0.640  12.380 -0.2037 -0.8628  0.1720
16389TIP3    H170658   3.095   0.558  12.343 -0.4616 -0.3442 -0.7868
16389TIP3    H270659   3.051   0.682  12.418 -0.1100 -0.9719  0.4827
16390TIP3   OH270660   5.134   3.456   3.209  0.6365 -0.6287  0.3852
16390TIP3    H170661   5.066   3.516   3.176  0.3539 -0.8739  0.5178
16390TIP3    H270662   5.089   3.372   3.220  0.7056 -0.5421  1.4614
16391TIP3   OH270663   4.878   5.464   1.937  0.3210 -0.3464 -0.2891
16391TIP3    H170664   4.872   5.370   1.954  0.9476 -0.4311 -0.4940
16391TIP3    H270665   4.970   5.485   1.955 -0.0044  0.3953  0.5871
16392TIP3   OH270666   2.638   6.551   5.722 -0.2619 -0.3364 -0.7430
16392TIP3    H170667   2.690   6.537   5.801 -0.4703  3.1966  0.1897
16392TIP3    H270668   2.566   6.487   5.728  0.1276 -0.6243  1.5355
16393TIP3   OH270669   3.472   2.836  12.258 -0.0967  0.9572  0.0243
16393TIP3    H170670   3.437   2.887  12.185  0.7650  2.2682  0.5002
16393TIP3    H270671   3.566   2.851  12.256 -0.1262  1.6630  1.8570
16394TIP3   OH270672   4.038   0.554   0.143 -0.2969  0.1003  0.6294
16394TIP3    H170673   4.004   0.627   0.091  1.4189  1.0882  0.8329
16394TIP3    H270674   4.046   0.589   0.232  1.7290  0.0916  0.4770
16395TIP3   OH270675   5.467   0.828   0.130 -0.2704 -0.2518  0.2961
16395TIP3    H170676   5.527   0.878   0.185  0.4555  0.4980 -1.1419
16395TIP3    H270677   5.381   0.868   0.147 -0.0675 -0.0579  0.8988
16396TIP3   OH270678   5.267   1.316   1.008  0.3247 -0.0574 -0.5418
16396TIP3    H170679   5.285   1.409   1.026 -1.5097 -0.0364  1.5787
16396TIP3    H270680   5.178   1.315   0.974  0.2648 -1.0781 -0.3733
16397TIP3   OH270681   6.834   1.011  11.519  0.1786 -0.6970 -0.1943
16397TIP3    H170682   6.862   0.987  11.431  0.7262  0.2006 -0.2785
16397TIP3    H270683   6.915   1.018  11.568 -0.1283 -1.2468  0.4079
16398TIP3   OH270684   2.965   5.185  10.922  0.6310 -0.3499  0.1648
16398TIP3    H170685   3.048   5.233  10.928  0.2810  0.2772  0.1121
16398TIP3    H270686   2.923   5.219  10.843 -0.2887  0.3444  0.9248
16399TIP3   OH270687   4.724   0.483  14.705 -0.0600  0.0586  0.6487
16399TIP3    H170688   4.775   0.451  14.630 -1.5261 -1.6210  0.2936
16399TIP3    H270689   4.778   0.462  14.781  0.2465 -0.7533  0.2194
16400TIP3   OH270690   0.713   1.835  11.398 -0.9015  0.0423  0.1067
16400TIP3    H170691   0.736   1.876  11.481  1.6120 -0.9821  0.0005
16400TIP3    H270692   0.769   1.877  11.334 -2.7013  0.7075 -1.0998
16401TIP3   OH270693   3.909   1.531   0.064 -0.0927 -0.2848 -0.3292
16401TIP3    H170694   3.974   1.596   0.090 -1.6312  0.9633  0.5903
16401TIP3    H270695   3.882   1.559  -0.024  1.1930 -1.3219 -1.0902
16402TIP3   OH270696   4.646   1.716  16.368 -0.1612 -0.6119  0.2527
16402TIP3    H170697   4.701   1.725  16.290  0.6286 -0.8519  0.7703
16402TIP3    H270698   4.708   1.704  16.440 -0.8235  0.6473  1.0775
16403TIP3   OH270699   0.202   6.178   2.570 -0.1397  0.4356  0.2394
16403TIP3    H170700   0.155   6.211   2.494 -2.3804 -1.0040  0.8907
16403TIP3    H270701   0.202   6.250   2.632 -1.1401  0.6319  0.0358
16404TIP3   OH270702   3.049   2.287   5.882 -0.3615  0.2160 -0.2895
16404TIP3    H170703   3.089   2.204   5.908 -1.3289  0.5879  2.7845
16404TIP3    H270704   3.122   2.349   5.877  0.0080 -0.1460  0.5198
16405TIP3   OH270705   5.973   2.673   4.577 -0.5806 -0.3351 -0.4260
16405TIP3    H170706   5.978   2.735   4.650 -0.9891 -1.1951  0.3568
16405TIP3    H270707   6.062   2.640   4.568 -0.8799 -1.6976  1.0397
16406TIP3   OH270708   4.404   4.745   1.445  0.2000 -0.0466  0.2130
16406TIP3    H170709   4.465   4.753   1.517 -0.1456  3.7299  0.3085
16406TIP3    H270710   4.337   4.685   1.476  1.3306 -0.4358  2.0218
16407TIP3   OH270711   3.578   5.216   3.574  0.1882  0.2732 -0.0983
16407TIP3    H170712   3.608   5.146   3.633  0.3058  0.9122  0.6203
16407TIP3    H270713   3.486   5.228   3.598  0.1478  0.3096 -0.2755
16408TIP3   OH270714   1.321   1.461  11.455 -0.2815 -0.0708  0.0210
16408TIP3    H170715   1.347   1.532  11.514 -0.6743  0.1229 -0.0369
16408TIP3    H270716   1.358   1.383  11.495 -1.4206 -0.0877  1.1009
16409TIP3   OH270717   4.121   3.746   1.116 -0.6190  0.5278  0.0065
16409TIP3    H170718   4.093   3.662   1.079 -0.2754  1.3042 -2.1167
16409TIP3    H270719   4.058   3.763   1.186 -2.2587 -0.2948 -1.2051
16410TIP3   OH270720   5.396   6.355  13.240  0.2318 -0.1533 -0.3634
16410TIP3    H170721   5.335   6.424  13.266 -0.5419 -1.9549  3.2958
16410TIP3    H270722   5.340   6.289  13.198 -0.3830 -1.4670  2.3146
16411TIP3   OH270723   4.775   0.904   6.791 -0.0946 -0.0793 -0.2784
16411TIP3    H170724   4.865   0.903   6.760 -0.0772  2.2196 -0.4788
16411TIP3    H270725   4.729   0.964   6.731 -1.5049 -0.4062  0.4228
16412TIP3   OH270726   4.528   4.514  15.734 -0.0053 -0.3561 -0.6452
16412TIP3    H170727   4.520   4.609  15.744 -0.3425 -0.5868  1.8666
16412TIP3    H270728   4.440   4.485  15.710 -0.8020 -0.3162  1.9479
16413TIP3   OH270729   3.761   4.170  13.776  0.4812  0.4479  0.4511
16413TIP3    H170730   3.745   4.140  13.866 -0.3567  2.0682  0.8620
16413TIP3    H270731   3.700   4.119  13.723 -3.5085  3.6270  1.5304
16414TIP3   OH270732   2.301   6.335  17.081  0.2775 -0.2365 -0.2614
16414TIP3    H170733   2.209   6.361  17.070  0.7881  0.6337 -4.0145
16414TIP3    H270734   2.304   6.293  17.167 -3.0045  2.1600  1.2382
16415TIP3   OH270735   1.925   6.770   3.973 -0.4570 -0.4304 -0.1263
16415TIP3    H170736   1.950   6.680   3.953 -1.0734 -0.7209  0.3959
16415TIP3    H270737   1.929   6.816   3.889  0.5064 -0.7816 -0.2845
16416TIP3   OH270738   4.247   3.697  12.649  0.7002  0.3859 -0.6887
16416TIP3    H170739   4.205   3.639  12.714  1.3063 -0.1762 -0.7874
16416TIP3    H270740   4.196   3.684  12.569  0.8894 -0.0847 -0.7342
16417TIP3   OH270741   2.254   1.187   2.167  0.0454 -0.2515 -0.2143
16417TIP3    H170742   2.211   1.246   2.105 -0.1050 -0.0144  0.1179
16417TIP3    H270743   2.344   1.216   2.171  0.0205 -0.1761 -0.2105
16418TIP3   OH270744   6.730   4.069   4.715 -0.2622 -0.5216  0.0709
16418TIP3    H170745   6.704   4.139   4.775  1.0517 -0.8664  1.0822
16418TIP3    H270746   6.674   4.081   4.639 -0.9626  0.8289  0.7649
16419TIP3   OH270747   5.042   0.653  13.401  0.7962  0.0088  0.4084
16419TIP3    H170748   5.075   0.598  13.472  0.1504 -1.8157 -0.6354
16419TIP3    H270749   5.113   0.655  13.338  0.5597 -0.2475  0.1281
16420TIP3   OH270750   4.166   4.856  13.609  0.0070  0.3061  0.2139
16420TIP3    H170751   4.099   4.787  13.607  0.3155 -0.1539 -4.4634
16420TIP3    H270752   4.117   4.937  13.591  0.4266  0.0877 -2.2950
16421TIP3   OH270753   3.625   4.762  10.894  0.0165 -0.5523 -0.4310
16421TIP3    H170754   3.684   4.818  10.844  1.6812 -1.1815  0.7612
16421TIP3    H270755   3.609   4.810  10.976  1.5200 -1.7958  0.6339
16422TIP3   OH270756   2.313   6.694   2.903  0.6822  0.1952  0.0300
16422TIP3    H170757   2.340   6.609   2.868  1.0608 -0.4799  1.8639
16422TIP3    H270758   2.363   6.703   2.984 -0.8179  1.2625  0.8720
16423TIP3   OH270759   4.248   5.482   0.281 -0.2838  0.0630  0.2391
16423TIP3    H170760   4.158   5.515   0.279  0.1054  1.1449 -0.0471
16423TIP3    H270761   4.291   5.524   0.207  0.5826 -0.0758  0.6491
16424TIP3   OH270762   5.813   0.449   4.447  0.4734 -0.4867 -0.2408
16424TIP3    H170763   5.735   0.434   4.395 -0.0491  0.8620  0.1225
16424TIP3    H270764   5.870   0.501   4.391 -0.2461  1.3000  0.6066
16425TIP3   OH270765   0.236   4.938  11.381 -0.6276 -0.5604  0.2515
16425TIP3    H170766   0.250   4.922  11.287 -0.4377 -0.6239  0.2885
16425TIP3    H270767   0.217   5.032  11.386  0.8204 -0.2412  0.2934
16426TIP3   OH270768   3.483   5.448   0.120  0.0776 -1.0972 -0.1690
16426TIP3    H170769   3.433   5.514   0.168  1.8742 -0.3060  0.7228
16426TIP3    H270770   3.550   5.498   0.074  1.6053 -2.2677  0.6741
16427TIP3   OH270771   4.499   1.514  15.405 -0.2908 -0.5146 -0.4707
16427TIP3    H170772   4.411   1.549  15.394 -0.1902  0.5677  1.6250
16427TIP3    H270773   4.554   1.569  15.350 -0.5624  0.7055  0.4374
16428TIP3   OH270774   6.111   4.150  14.364 -0.4084  0.2980  0.0684
16428TIP3    H170775   6.112   4.128  14.457 -3.1234 -1.0819 -0.1355
16428TIP3    H270776   6.151   4.075  14.320 -0.3740  0.3366  0.0323
16429TIP3   OH270777   4.543   5.355   0.572 -0.2702  0.3219 -0.1740
16429TIP3    H170778   4.501   5.288   0.519  1.5994 -0.7357 -0.3836
16429TIP3    H270779   4.481   5.372   0.643 -0.7005 -1.7654 -0.0053
16430TIP3   OH270780   6.201   0.107   4.349  0.0808  0.3966 -0.4750
16430TIP3    H170781   6.212   0.181   4.289  0.9835  0.6564  0.0085
16430TIP3    H270782   6.262   0.124   4.421 -0.2482 -0.4366  0.0156
16431TIP3   OH270783   6.144   3.969   5.515  0.4293 -0.3489  0.0393
16431TIP3    H170784   6.121   3.926   5.433 -1.6217 -0.3488  0.5672
16431TIP3    H270785   6.123   3.905   5.582 -0.6538  0.6866  0.7156
16432TIP3   OH270786   0.587   4.463  14.470  1.1781  0.1162  0.5832
16432TIP3    H170787   0.604   4.548  14.428  0.6420  0.8268  1.7685
16432TIP3    H270788   0.671   4.418  14.467  2.0048  1.5153  1.7556
16433TIP3   OH270789   2.389   4.511   5.263 -0.8816 -0.6223 -0.4280
16433TIP3    H170790   2.437   4.592   5.280 -0.6196 -0.6845 -0.8689
16433TIP3    H270791   2.297   4.534   5.279 -0.6119 -0.9025  1.9832
16434TIP3   OH270792   4.836   1.746   3.358 -0.2950  0.2286 -0.5191
16434TIP3    H170793   4.910   1.776   3.412 -0.0180 -0.8997 -0.2427
16434TIP3    H270794   4.776   1.820   3.357 -0.1734  0.3892  1.1014
16435TIP3   OH270795   0.029   6.063   5.442 -0.0468 -0.1354  0.0010
16435TIP3    H170796   0.096   6.069   5.510  2.5788  1.2627 -2.4727
16435TIP3    H270797   0.010   6.154   5.419 -0.9614 -0.5683 -1.0358
16436TIP3   OH270798   1.093   0.825   2.255  0.1138  0.6810  0.0370
16436TIP3    H170799   1.067   0.874   2.333 -0.9401 -0.3848  0.3852
16436TIP3    H270800   1.075   0.733   2.277  0.5458  0.2882 -1.1660
16437TIP3   OH270801   2.320   2.792  15.378 -0.0123  0.5824 -0.6517
16437TIP3    H170802   2.317   2.885  15.352  1.2322  0.5419 -0.9806
16437TIP3    H270803   2.409   2.764  15.356 -0.0032 -0.3782  0.5656
16438TIP3   OH270804   5.148   0.592  14.933  0.2497 -0.4303  0.6035
16438TIP3    H170805   5.208   0.612  14.860  0.9805  0.9199  1.5173
16438TIP3    H270806   5.190   0.520  14.979  0.3509 -0.5594  0.3125
16439TIP3   OH270807   2.097   3.403  11.469 -0.1658 -0.3093  0.4996
16439TIP3    H170808   2.044   3.336  11.426  0.4914 -1.2127  1.0426
16439TIP3    H270809   2.156   3.435  11.401  0.2097 -1.0398  0.4638
16440TIP3   OH270810   4.824   4.431   3.630  0.6587 -0.6053  1.0414
16440TIP3    H170811   4.855   4.493   3.564  0.4887 -0.7288  0.8443
16440TIP3    H270812   4.752   4.385   3.588  0.3842 -0.5098  1.3993
16441TIP3   OH270813   3.245   1.858   2.385  0.3892  0.7036  0.2618
16441TIP3    H170814   3.197   1.788   2.339  0.3131  0.8117  0.1760
16441TIP3    H270815   3.327   1.866   2.336  0.9604 -0.1998  1.0267
16442TIP3   OH270816   5.338   2.879  13.344 -0.2864  0.1373  0.4821
16442TIP3    H170817   5.337   2.804  13.284 -2.0654  0.8392 -0.4331
16442TIP3    H270818   5.285   2.946  13.301 -0.6686  1.1011  2.3145
16443TIP3   OH270819   1.602   4.940  12.723 -0.3514 -0.4175 -0.0210
16443TIP3    H170820   1.675   4.999  12.703 -0.4366  0.4036  1.9406
16443TIP3    H270821   1.642   4.866  12.769 -0.2401 -2.0120 -2.4885
16444TIP3   OH270822   6.471   1.380  16.631 -0.7731 -0.4140 -0.2946
16444TIP3    H170823   6.439   1.469  16.647  0.5791  0.0513 -0.1118
16444TIP3    H270824   6.444   1.331  16.709  0.6536  0.4493  0.7926
16445TIP3   OH270825   2.053   1.611   5.331 -0.1528 -0.1755 -0.2171
16445TIP3    H170826   2.051   1.690   5.385 -0.8398 -1.8872  2.4059
16445TIP3    H270827   2.002   1.634   5.253  0.7636  2.3345 -0.1518
16446TIP3   OH270828   0.371   0.840  15.919 -1.1156  0.1055 -0.2513
16446TIP3    H170829   0.362   0.748  15.940 -2.4245 -0.1147 -1.6211
16446TIP3    H270830   0.460   0.848  15.883 -0.5186 -0.3360  1.0588
16447TIP3   OH270831   5.020   2.127  13.806  0.2495 -0.3499 -0.5402
16447TIP3    H170832   5.108   2.162  13.797  0.3143  0.1656  1.5993
16447TIP3    H270833   5.018   2.052  13.747  2.3720 -0.7948 -0.1199
16448TIP3   OH270834   2.259   5.126  10.536  0.1298  0.1514  0.3070
16448TIP3    H170835   2.173   5.117  10.576  0.2364  0.2405  0.5639
16448TIP3    H270836   2.294   5.037  10.535  0.1112  0.1427  0.3839
16449TIP3   OH270837   6.282   4.588  10.782 -0.3995 -0.0176 -0.5593
16449TIP3    H170838   6.344   4.519  10.758 -1.5296 -2.1643  2.2298
16449TIP3    H270839   6.198   4.558  10.745 -0.5463  0.9148 -1.0107
16450TIP3   OH270840   5.996   5.456  12.244 -0.2370 -0.3147 -0.3964
16450TIP3    H170841   5.921   5.499  12.202  0.1469 -1.0262 -1.9088
16450TIP3    H270842   6.042   5.526  12.290 -0.8630  0.4600 -0.9286
16451TIP3   OH270843   3.438   4.236  16.048  0.3103 -0.3320 -0.2940
16451TIP3    H170844   3.519   4.199  16.083 -0.8499 -2.2234  0.5528
16451TIP3    H270845   3.453   4.330  16.045  1.9499 -0.4955  1.4166
16452TIP3   OH270846   0.115   2.470  12.746  0.4172  0.3536  0.2382
16452TIP3    H170847   0.062   2.407  12.698 -0.0249  0.7819  0.1615
16452TIP3    H270848   0.052   2.530  12.786  0.8208  0.5869  0.5370
16453TIP3   OH270849   2.303   6.188  13.143  0.1674 -0.0175  0.2118
16453TIP3    H170850   2.342   6.160  13.226 -1.9210 -0.8573  0.9679
16453TIP3    H270851   2.345   6.272  13.124  0.5858  0.2636  2.2019
16454TIP3   OH270852   2.597   5.563  10.422  0.2744 -0.0830 -0.4682
16454TIP3    H170853   2.594   5.627  10.351  2.8092  2.1355  1.2355
16454TIP3    H270854   2.523   5.587  10.478  0.2987  0.3782 -0.6269
16455TIP3   OH270855   1.826   4.899  15.855  0.2018 -0.4463  0.3597
16455TIP3    H170856   1.897   4.835  15.852  0.8314  0.1769  1.5039
16455TIP3    H270857   1.746   4.846  15.850  0.7164 -1.2622  0.5694
16456TIP3   OH270858   0.229   5.244  16.134  0.0689  0.3748 -0.1388
16456TIP3    H170859   0.264   5.249  16.223 -0.5806  0.8279  0.0959
16456TIP3    H270860   0.229   5.150  16.114  1.1648  0.3393 -0.0573
16457TIP3   OH270861   3.662   5.365   3.159 -0.1234  0.0843  0.6751
16457TIP3    H170862   3.754   5.386   3.174  0.7039 -2.9511  0.6464
16457TIP3    H270863   3.617   5.399   3.236  1.2538  0.4382  1.3608
16458TIP3   OH270864   0.993   0.821   0.805 -0.0139  0.1459 -0.3637
16458TIP3    H170865   0.943   0.739   0.806  2.6920 -1.6334  1.1328
16458TIP3    H270866   1.003   0.842   0.712 -0.6222 -1.3213 -0.7881
16459TIP3   OH270867   2.779   2.972  13.175  0.5384 -0.4796  0.3737
16459TIP3    H170868   2.815   3.043  13.228  1.9478 -0.6777 -0.2674
16459TIP3    H270869   2.781   3.005  13.085  0.9436 -1.2077  0.1014
16460TIP3   OH270870   5.446   1.565  15.428  0.1200 -0.4744  0.5721
16460TIP3    H170871   5.366   1.547  15.477  0.5954 -1.4616  1.0157
16460TIP3    H270872   5.499   1.618  15.487 -0.2150  0.2328  0.2542
16461TIP3   OH270873   5.087   0.216   2.350  0.4673 -0.0495  0.0314
16461TIP3    H170874   5.171   0.258   2.333  0.3699 -0.2795 -1.0818
16461TIP3    H270875   5.098   0.127   2.318  0.3840 -0.6551  1.5690
16462TIP3   OH270876   2.374   0.693  12.842 -0.0759  0.7904 -0.3667
16462TIP3    H170877   2.430   0.746  12.899 -1.0842  1.4234  0.0545
16462TIP3    H270878   2.408   0.708  12.754  1.7648 -0.5160  0.0432
16463TIP3   OH270879   5.657   4.730   3.665 -0.0198 -0.2365  0.3535
16463TIP3    H170880   5.649   4.698   3.755 -0.5585 -0.5125  0.2124
16463TIP3    H270881   5.568   4.726   3.630  0.1916 -0.1728 -0.2095
16464TIP3   OH270882   3.405   5.768   5.594 -0.1106 -0.1470  0.4471
16464TIP3    H170883   3.395   5.695   5.533 -0.5613  0.5149 -0.3012
16464TIP3    H270884   3.315   5.792   5.617  0.0397  0.0715  0.8035
16465TIP3   OH270885   1.842   1.197  16.616 -0.1696  1.0556 -0.1676
16465TIP3    H170886   1.903   1.262  16.579  0.4094  0.0054 -1.1027
16465TIP3    H270887   1.895   1.118  16.625 -0.5878  0.9817  1.9719
16466TIP3   OH270888   4.394   5.273   4.746 -0.4240  0.0446  0.4096
16466TIP3    H170889   4.438   5.202   4.700  0.2542  0.9437 -0.3717
16466TIP3    H270890   4.328   5.230   4.801  1.7730 -1.4321  2.0763
16467TIP3   OH270891   2.250   3.984  15.325  0.4060  0.4609  0.0426
16467TIP3    H170892   2.242   4.043  15.250  1.4524  0.4937 -0.0527
16467TIP3    H270893   2.328   3.932  15.307 -0.7255 -1.2615 -0.0606
16468TIP3   OH270894   6.710   3.030  15.314  0.1447 -0.5111  0.1947
16468TIP3    H170895   6.798   3.056  15.286  1.2128 -2.3527  1.6387
16468TIP3    H270896   6.664   3.113  15.328  1.7471  0.5022 -0.2281
16469TIP3   OH270897   3.403   6.506   4.268  0.2035 -0.0654 -0.8542
16469TIP3    H170898   3.471   6.468   4.323  0.0327  0.8338  0.0013
16469TIP3    H270899   3.442   6.508   4.180  1.7429  1.5228 -0.1755
16470TIP3   OH270900   4.087   5.149  12.338  0.0697 -0.1807 -0.5441
16470TIP3    H170901   4.034   5.202  12.279  0.5924  1.4217  0.3577
16470TIP3    H270902   4.175   5.187  12.333  0.0486  0.2938  1.5100
16471TIP3   OH270903   1.577   4.875   5.634  0.1225  0.3886 -0.1242
16471TIP3    H170904   1.502   4.816   5.631  0.4756 -0.0899  0.2554
16471TIP3    H270905   1.615   4.869   5.547 -1.6003  2.4090 -1.0887
16472TIP3   OH270906   0.092   1.597  10.577 -0.4595 -0.2955  0.4037
16472TIP3    H170907   0.157   1.643  10.630 -0.4378 -0.4089  0.4752
16472TIP3    H270908   0.025   1.663  10.559 -1.2281 -0.6431  1.8640
16473TIP3   OH270909   3.055   4.772  16.112  0.3235 -0.5391 -0.4540
16473TIP3    H170910   3.063   4.809  16.200  0.0034 -1.0280 -0.2191
16473TIP3    H270911   3.011   4.688  16.124 -0.1753 -0.3866 -1.1299
16474TIP3   OH270912   3.855   1.141   1.835 -0.1933 -0.3255 -0.1790
16474TIP3    H170913   3.925   1.145   1.900  2.5174  2.2491 -2.9340
16474TIP3    H270914   3.860   1.053   1.799  2.8536  0.1978 -1.3535
16475TIP3   OH270915   6.426   5.787   1.685 -0.2419 -0.3233 -0.5248
16475TIP3    H170916   6.473   5.822   1.610 -1.1807  0.4993 -0.7548
16475TIP3    H270917   6.339   5.827   1.680 -0.6795 -1.1029  0.3845
16476TIP3   OH270918   4.506   6.356  12.121 -0.0794 -0.3426 -0.1619
16476TIP3    H170919   4.518   6.443  12.083 -1.8027  1.0351  2.1278
16476TIP3    H270920   4.539   6.364  12.210 -1.8403 -1.4836  0.6592
16477TIP3   OH270921   4.494   4.368  12.761  0.0335 -0.3952 -0.3762
16477TIP3    H170922   4.499   4.416  12.679  2.9446 -1.9619 -1.2516
16477TIP3    H270923   4.523   4.431  12.828  2.0229 -0.3314 -1.2407
16478TIP3   OH270924   1.840   1.817   2.460 -0.0125 -0.2654  0.5125
16478TIP3    H170925   1.855   1.898   2.411 -1.7902 -0.1854  0.0414
16478TIP3    H270926   1.825   1.846   2.550  2.9254 -0.3885  1.1344
16479TIP3   OH270927   4.705   3.492  11.462  0.4040  0.4232  0.0220
16479TIP3    H170928   4.661   3.479  11.378 -0.0367 -2.6457  0.6255
16479TIP3    H270929   4.665   3.571  11.498 -0.6754  0.7876 -1.8578
16480TIP3   OH270930   3.972   4.775  11.102 -0.0481  0.2975 -0.1594
16480TIP3    H170931   3.993   4.686  11.131  0.4713  0.2465 -0.6802
16480TIP3    H270932   3.976   4.770  11.006 -2.1677  0.3515 -0.2914
16481TIP3   OH270933   3.917   0.328   2.509 -0.1636 -0.4825 -0.4434
16481TIP3    H170934   3.835   0.318   2.557 -0.6793  1.1561 -0.9477
16481TIP3    H270935   3.974   0.377   2.568 -0.8444  1.6569 -1.4773
16482TIP3   OH270936   2.739   3.443   4.701 -0.3139 -0.0460 -0.3514
16482TIP3    H170937   2.779   3.504   4.639 -1.0563 -0.9521 -1.7638
16482TIP3    H270938   2.799   3.368   4.703  0.0073  0.2211  0.5000
16483TIP3   OH270939   6.139   5.413   5.570  0.2228 -0.0532  0.1382
16483TIP3    H170940   6.088   5.459   5.503  0.0349  1.3892  1.2302
16483TIP3    H270941   6.142   5.473   5.644  1.0090 -1.3336  1.1947
16484TIP3   OH270942   3.993   5.336   5.504 -0.4798  0.4692  0.0217
16484TIP3    H170943   4.030   5.414   5.544 -0.8779  1.0092 -0.6241
16484TIP3    H270944   4.067   5.276   5.494 -0.5788 -0.1937  2.6482
16485TIP3   OH270945   0.678   4.595  11.685 -0.1746 -0.2480  0.2129
16485TIP3    H170946   0.766   4.604  11.722  0.4897 -0.8311 -1.1818
16485TIP3    H270947   0.646   4.685  11.679 -0.1211 -0.1021  1.7299
16486TIP3   OH270948   5.330   6.695  14.785 -0.0108 -0.2839 -0.5114
16486TIP3    H170949   5.286   6.718  14.703  2.0705 -0.4949 -1.7684
16486TIP3    H270950   5.280   6.620  14.819 -0.0626 -1.1553 -2.3775
16487TIP3   OH270951   2.169   0.424   6.455  0.2348  0.2997 -0.0977
16487TIP3    H170952   2.084   0.390   6.483 -0.8071  0.6724 -2.5392
16487TIP3    H270953   2.159   0.519   6.456  0.9673  0.3867  0.4668
16488TIP3   OH270954   2.584   1.908   4.714  0.4274 -0.5155 -0.0108
16488TIP3    H170955   2.641   1.852   4.661  0.5953 -0.9499  0.6112
16488TIP3    H270956   2.520   1.848   4.752 -0.9805  0.0795 -1.3504
16489TIP3   OH270957   5.547   5.990   3.446  0.3452  0.1413  0.1414
16489TIP3    H170958   5.470   5.935   3.464 -0.9067  1.9957  0.7062
16489TIP3    H270959   5.608   5.931   3.401 -1.0899 -1.5876  0.3427
16490TIP3   OH270960   5.352   4.126   4.285  0.0185 -0.3720 -0.6581
16490TIP3    H170961   5.284   4.131   4.218  1.6067 -0.4252 -2.3850
16490TIP3    H270962   5.326   4.054   4.342  0.0838 -2.3708 -3.0198
16491TIP3   OH270963   5.249   3.255   6.454 -0.5332  0.0871  0.3046
16491TIP3    H170964   5.332   3.281   6.494  0.0139 -0.1978 -0.6105
16491TIP3    H270965   5.230   3.324   6.391 -0.9497  0.1031  0.4453
16492TIP3   OH270966   3.936   4.609   2.861 -0.1001  0.0675 -0.1093
16492TIP3    H170967   3.909   4.696   2.891  1.0203  0.3877  0.0361
16492TIP3    H270968   3.985   4.626   2.780  0.8041 -0.3365  0.3339
16493TIP3   OH270969   3.409   4.300   5.617  0.6558  0.1172  0.6732
16493TIP3    H170970   3.343   4.360   5.584 -0.5553 -1.7588 -0.5259
16493TIP3    H270971   3.411   4.315   5.712 -0.8407  0.8155  0.6155
16494TIP3   OH270972   4.594   2.726   1.082 -0.1118 -0.2497  0.1542
16494TIP3    H170973   4.637   2.709   0.999 -1.3247 -1.1682 -0.3204
16494TIP3    H270974   4.505   2.692   1.070 -0.9581  1.4664  1.1123
16495TIP3   OH270975   2.938   6.158  11.208  0.5829 -0.1368 -0.8606
16495TIP3    H170976   2.863   6.208  11.239 -0.4793  0.6556 -4.3071
16495TIP3    H270977   3.012   6.194  11.255 -0.9112  0.4275  1.1942
16496TIP3   OH270978   3.721   6.686  14.146 -0.1301  0.3831  0.8857
16496TIP3    H170979   3.781   6.614  14.126 -0.3172  0.4286  0.1038
16496TIP3    H270980   3.750   6.719  14.231  1.3651  0.8155  0.2385
16497TIP3   OH270981   0.725   2.284  13.560 -0.2460 -0.2567 -0.4773
16497TIP3    H170982   0.675   2.309  13.637 -0.4517  0.5171 -0.8522
16497TIP3    H270983   0.662   2.288  13.488  0.1615 -0.0554 -0.8296
16498TIP3   OH270984   0.245   0.422   3.205 -0.1231  0.1901  0.5636
16498TIP3    H170985   0.177   0.392   3.144  1.7574 -0.6284 -1.2505
16498TIP3    H270986   0.281   0.342   3.242  1.0451  0.4973  0.1260
16499TIP3   OH270987   1.515   0.516  15.878 -0.0559  0.0834 -0.7616
16499TIP3    H170988   1.535   0.504  15.785 -0.9795  0.0970 -0.9780
16499TIP3    H270989   1.499   0.610  15.888 -0.3794  0.0229 -0.6861
16500TIP3   OH270990   4.109   3.753   3.893  0.1095  0.3640 -0.1777
16500TIP3    H170991   4.105   3.662   3.922  0.4307 -0.2994 -2.0410
16500TIP3    H270992   4.142   3.802   3.969  0.9425 -1.2419  0.5395
16501TIP3   OH270993   5.623   4.761   1.719 -0.1260  0.2198  0.2072
16501TIP3    H170994   5.546   4.744   1.774 -0.6646  0.0953 -0.5767
16501TIP3    H270995   5.668   4.834   1.762 -1.6432  1.4892 -0.2843
16502TIP3   OH270996   4.724   3.429   3.259  0.3579 -0.3030  0.2030
16502TIP3    H170997   4.648   3.478   3.289 -1.0793 -2.5425  0.4253
16502TIP3    H270998   4.799   3.482   3.287 -1.0359  0.4878  2.7314
16503TIP3   OH270999   6.399   4.227   4.105  0.0025  0.4755 -0.3131
16503TIP3    H171000   6.328   4.291   4.098 -0.4777  0.5122  3.1499
16503TIP3    H271001   6.460   4.252   4.036 -1.5821  2.7759 -1.0133
16504TIP3   OH271002   1.466   5.649   4.120  0.4701  0.2685 -0.1514
16504TIP3    H171003   1.403   5.593   4.074 -0.7258  0.9461  0.6057
16504TIP3    H271004   1.550   5.629   4.079 -0.1753 -0.9139 -0.9667
16505TIP3   OH271005   5.871   3.613   1.597  0.1621  0.1536 -0.4509
16505TIP3    H171006   5.825   3.602   1.514 -0.7980 -1.8195  0.2810
16505TIP3    H271007   5.890   3.524   1.627 -0.1403  0.7613  1.7596
16506TIP3   OH271008   0.425   2.824  12.312 -0.3679  0.1494  0.4894
16506TIP3    H171009   0.381   2.895  12.359  0.3510  0.3185  0.9220
16506TIP3    H271010   0.496   2.797  12.370  0.2000 -0.0069 -0.2660
16507TIP3   OH271011   0.445   3.996   4.644  1.1177  0.3542  0.8838
16507TIP3    H171012   0.457   3.901   4.633  0.8605  0.4684 -0.5318
16507TIP3    H271013   0.360   4.003   4.689  0.4879 -0.0771 -0.1790
16508TIP3   OH271014   1.094   2.765  13.478  0.1281  0.3001 -0.7568
16508TIP3    H171015   1.176   2.786  13.522  0.4685  0.7334 -1.5923
16508TIP3    H271016   1.066   2.847  13.438 -1.7562  0.6915  1.1528
16509TIP3   OH271017   5.615   1.947   3.801  0.8038 -0.4323 -0.1584
16509TIP3    H171018   5.643   1.975   3.714 -0.7109 -1.5128 -1.0625
16509TIP3    H271019   5.558   1.871   3.784  0.1124 -0.3945  1.7447
16510TIP3   OH271020   1.827   6.155   5.957 -0.4116 -0.3932 -0.3769
16510TIP3    H171021   1.758   6.168   6.022 -0.2572  1.3218 -0.5251
16510TIP3    H271022   1.905   6.135   6.009 -0.6367 -0.6656 -0.1341
16511TIP3   OH271023   3.141   2.584   6.124 -0.0692 -0.2412 -0.3959
16511TIP3    H171024   3.060   2.618   6.163 -0.5931  0.8820 -2.3327
16511TIP3    H271025   3.209   2.644   6.154 -0.4265  0.4836 -1.0238
16512TIP3   OH271026   2.124   3.376  13.262  0.1850 -0.2803  0.0237
16512TIP3    H171027   2.063   3.429  13.313 -0.2275 -1.1557  0.4643
16512TIP3    H271028   2.136   3.425  13.180 -0.5723  0.2438  0.2137
16513TIP3   OH271029   1.792   6.618   1.578  0.2602  0.4474  0.3719
16513TIP3    H171030   1.790   6.605   1.483  0.3148 -1.5547  0.5945
16513TIP3    H271031   1.702   6.644   1.600 -0.8966 -2.7991  0.1245
16514TIP3   OH271032   0.589   6.110  13.410  0.3912  0.4349 -0.2142
16514TIP3    H171033   0.653   6.112  13.339  0.1769 -0.5851 -0.4463
16514TIP3    H271034   0.529   6.181  13.390  1.2021  1.1362 -0.2195
16515TIP3   OH271035   0.857   0.947  12.613  0.3589 -0.1819  0.1771
16515TIP3    H171036   0.798   0.930  12.539  0.1798 -2.5410  0.7986
16515TIP3    H271037   0.801   0.986  12.680  0.3050  0.9931 -0.5291
16516TIP3   OH271038   6.205   0.142   0.098 -0.2863 -0.4824 -0.3142
16516TIP3    H171039   6.239   0.154   0.186  0.6746  0.0012 -0.7366
16516TIP3    H271040   6.170   0.228   0.074 -0.0272 -0.4604 -0.6163
16517TIP3   OH271041   5.539   6.516   5.446 -0.4490  0.1039 -0.5037
16517TIP3    H171042   5.476   6.550   5.381 -0.9878  2.0273  0.9349
16517TIP3    H271043   5.563   6.593   5.498  2.2582 -0.8063 -0.2684
16518TIP3   OH271044   3.172   0.478  15.392 -0.5683  0.2377 -0.4083
16518TIP3    H171045   3.236   0.443  15.454 -0.6283 -1.5905 -1.3278
16518TIP3    H271046   3.088   0.440  15.418 -0.6784 -0.1625 -1.3050
16519TIP3   OH271047   6.114   5.846  15.902  0.0936 -0.4837 -0.0294
16519TIP3    H171048   6.183   5.912  15.899  0.3494 -0.7303  0.3338
16519TIP3    H271049   6.125   5.804  15.987 -1.3559  0.3971  0.6325
16520TIP3   OH271050   6.771   6.330  11.149  0.2833  0.1044  0.2126
16520TIP3    H171051   6.828   6.273  11.098  1.0908  2.1965 -1.3536
16520TIP3    H271052   6.685   6.319  11.108  0.6103  0.6160 -0.6404
16521TIP3   OH271053   3.452   2.283  15.892 -0.1096  0.7366 -0.1795
16521TIP3    H171054   3.410   2.210  15.938 -0.5027  1.1388  0.1190
16521TIP3    H271055   3.485   2.245  15.811  0.7362 -0.0209  0.5093
16522TIP3   OH271056   3.189   0.163  13.651  0.3112 -0.3193  0.3739
16522TIP3    H171057   3.283   0.159  13.630 -0.0990 -0.2204 -1.7298
16522TIP3    H271058   3.160   0.072  13.644 -0.2941  0.0002 -2.0670
16523TIP3   OH271059   1.583   3.287   3.577  0.4721 -0.4929 -0.0266
16523TIP3    H171060   1.546   3.210   3.534 -1.3029  0.4378 -0.2443
16523TIP3    H271061   1.589   3.353   3.507 -0.1821  0.2806  0.6280
16524TIP3   OH271062   6.632   3.413  13.309 -0.1421  0.0262  0.0899
16524TIP3    H171063   6.611   3.323  13.331 -0.7397  0.4794  1.4998
16524TIP3    H271064   6.678   3.447  13.386 -0.1640  1.0022 -0.3085
16525TIP3   OH271065   0.408   3.469  14.182  0.1078  0.1679 -0.4330
16525TIP3    H171066   0.451   3.403  14.236 -0.9508  0.8926  1.3714
16525TIP3    H271067   0.315   3.463  14.205 -0.5906 -0.1864 -2.9639
16526TIP3   OH271068   5.267   1.175  16.781  0.3557 -0.1950 -0.3708
16526TIP3    H171069   5.230   1.090  16.805 -1.1963  0.3294 -0.8094
16526TIP3    H271070   5.207   1.210  16.715  0.6799  1.4685  0.1609
16527TIP3   OH271071   6.752   0.117  16.536  0.6027  0.4712  0.2631
16527TIP3    H171072   6.688   0.188  16.527  1.2960  1.0554 -0.1941
16527TIP3    H271073   6.705   0.039  16.507  0.4237  1.0726 -1.1376
16528TIP3   OH271074   5.431   6.232  12.450 -0.6016 -0.2695 -0.1936
16528TIP3    H171075   5.412   6.190  12.534  0.5832  0.1465  0.3023
16528TIP3    H271076   5.526   6.234  12.444 -0.5637  2.3025 -0.1812
16529TIP3   OH271077   3.923   3.940  16.410  0.0662  0.4199  1.1116
16529TIP3    H171078   3.930   3.877  16.338  1.8990  0.3350  1.2982
16529TIP3    H271079   3.896   3.888  16.486  1.9220 -0.2841  1.3508
16530TIP3   OH271080   4.390   4.561   0.537 -0.1625 -0.1806 -0.4982
16530TIP3    H171081   4.470   4.581   0.586  0.1373 -1.0520 -0.6119
16530TIP3    H271082   4.342   4.500   0.593  0.5649 -1.8336 -1.5817
16531TIP3   OH271083   1.879   3.925  17.044 -0.2360  0.1796 -0.3772
16531TIP3    H171084   1.840   3.907  17.129 -0.1356  0.2339 -0.3208
16531TIP3    H271085   1.898   4.019  17.046  0.6234  0.0018 -0.1104
16532TIP3   OH271086   2.727   1.018  13.341  0.0246  0.2186  0.1912
16532TIP3    H171087   2.711   1.093  13.283  0.6766 -0.2770 -0.6688
16532TIP3    H271088   2.643   0.972  13.345  0.0422  0.0825 -0.6534
16533TIP3   OH271089   2.535   0.657   3.724  0.9541  0.8060  0.9416
16533TIP3    H171090   2.558   0.747   3.702  1.8089  0.1137 -1.2220
16533TIP3    H271091   2.614   0.606   3.707 -0.5686 -0.9028 -1.8175
16534TIP3   OH271092   4.677   6.803   0.759 -0.3983  0.1535  0.1654
16534TIP3    H171093   4.688   6.847   0.843 -0.8077 -1.5335  1.1514
16534TIP3    H271094   4.587   6.823   0.733 -1.2642 -1.5815  1.5785
16535TIP3   OH271095   1.805   6.673  12.037 -0.0307 -0.3348 -0.6797
16535TIP3    H171096   1.767   6.694  12.122 -1.7495 -2.5580 -0.8338
16535TIP3    H271097   1.737   6.697  11.974  0.6719 -0.0404 -1.3471
16536TIP3   OH271098   6.738   4.762  15.281  0.2555 -0.0883 -0.3276
16536TIP3    H171099   6.680   4.835  15.301  2.3650  1.9308 -1.1503
16536TIP3    H271100   6.764   4.776  15.190  1.8001 -1.0429 -0.0765
16537TIP3   OH271101   1.028   1.027  14.673  0.1338 -0.5209 -0.1734
16537TIP3    H171102   1.103   1.083  14.653  0.2302 -0.8555 -0.7660
16537TIP3    H271103   1.029   0.960  14.605 -1.3940  0.1350 -0.8746
16538TIP3   OH271104   1.086   2.348   1.611 -0.7644 -0.0461  0.5464
16538TIP3    H171105   1.051   2.333   1.698 -3.5880 -1.0180 -0.6396
16538TIP3    H271106   1.124   2.263   1.585  0.0193  0.2248  0.7623
16539TIP3   OH271107   2.582   4.329   0.998 -0.1838 -0.0821  0.3927
16539TIP3    H171108   2.606   4.411   0.954 -1.8123  0.1831 -0.0652
16539TIP3    H271109   2.663   4.279   1.000  0.3128  0.5557 -1.5312
16540TIP3   OH271110   4.782   5.605   2.971  0.2993  0.1893  0.0476
16540TIP3    H171111   4.780   5.652   3.054  0.2774  0.4985 -0.1265
16540TIP3    H271112   4.865   5.556   2.973  0.1521 -0.0499  0.3821
16541TIP3   OH271113   5.627   4.069  16.147 -0.2035 -0.0647 -0.7445
16541TIP3    H171114   5.613   4.107  16.234  2.3703  3.9011 -1.8083
16541TIP3    H271115   5.562   4.112  16.091  0.0088 -0.4267 -1.2862
16542TIP3   OH271116   4.752   5.241  13.492 -0.8116 -0.1993 -0.2782
16542TIP3    H171117   4.706   5.295  13.557 -0.5978  1.2818 -1.3130
16542TIP3    H271118   4.774   5.302  13.421  0.2391 -1.4716 -1.0924
16543TIP3   OH271119   1.287   2.234  15.021 -0.0868  0.3982 -0.1341
16543TIP3    H171120   1.353   2.231  14.952 -1.4383  2.0630 -1.5978
16543TIP3    H271121   1.269   2.327  15.034 -2.5557  0.0161 -0.2489
16544TIP3   OH271122   4.911   5.848  16.873  0.2893 -0.4916 -0.2167
16544TIP3    H171123   4.846   5.917  16.886 -1.3093 -2.0249  0.2088
16544TIP3    H271124   4.970   5.883  16.807 -1.1190  0.8427 -0.8137
16545TIP3   OH271125   1.119   6.377  16.889 -0.6846 -0.4942  0.2125
16545TIP3    H171126   1.097   6.438  16.818 -0.2956  0.2614  0.7199
16545TIP3    H271127   1.040   6.325  16.901 -0.8080 -0.5410 -0.6780
16546TIP3   OH271128   3.392   2.773  10.842 -0.7274  0.0790  0.5258
16546TIP3    H171129   3.482   2.800  10.860 -0.5662 -1.7998  3.0583
16546TIP3    H271130   3.401   2.699  10.782 -0.7696  1.2974 -1.0310
16547TIP3   OH271131   6.346   6.079   6.567 -0.4171 -0.0768  0.6559
16547TIP3    H171132   6.358   6.130   6.487 -0.5551  0.6868  1.1143
16547TIP3    H271133   6.313   5.994   6.536 -1.8888  0.6915 -0.0232
16548TIP3   OH271134   1.904   2.825  13.598  0.4439  0.1377  0.2167
16548TIP3    H171135   1.909   2.834  13.503 -0.5410 -1.2059  0.0048
16548TIP3    H271136   1.995   2.821  13.627  0.7538  0.6219 -0.6563
16549TIP3   OH271137   3.701   0.780   2.802 -0.4414 -0.0233  0.6416
16549TIP3    H171138   3.617   0.740   2.783 -0.8745  0.6758  1.0533
16549TIP3    H271139   3.700   0.864   2.755  0.0126  0.0073  0.6756
16550TIP3   OH271140   3.830   3.912  14.463  0.4744  0.9386  0.7369
16550TIP3    H171141   3.787   3.857  14.528  0.8284  0.9864  1.0218
16550TIP3    H271142   3.857   3.852  14.394  0.7521  0.7642  0.9891
16551TIP3   OH271143   3.298   6.714   2.819 -0.8401 -0.0243 -0.6883
16551TIP3    H171144   3.326   6.753   2.736  1.8146  0.0351  0.1292
16551TIP3    H271145   3.278   6.623   2.798 -1.8048  0.3868 -1.6487
16552TIP3   OH271146   0.002   1.349   3.572 -0.0862 -0.0468 -0.0608
16552TIP3    H171147   0.033   1.377   3.658  0.9117  0.1429 -0.4763
16552TIP3    H271148   0.073   1.296   3.536  0.2424  1.2513 -1.4602
16553TIP3   OH271149   0.441   6.457  13.239 -0.2600 -0.5289 -0.2978
16553TIP3    H171150   0.430   6.547  13.210  2.0290  0.6321  2.0076
16553TIP3    H271151   0.491   6.414  13.169  1.2137  0.8959 -0.1833
16554TIP3   OH271152   0.283   0.480   2.132  0.0405  0.2685  0.2758
16554TIP3    H171153   0.334   0.433   2.198  0.7322  0.7329  0.0714
16554TIP3    H271154   0.206   0.512   2.180  0.3589  0.2951  0.7745
16555TIP3   OH271155   3.025   5.022  11.668 -0.1648 -0.0556  0.0412
16555TIP3    H171156   3.008   4.931  11.691  0.4610 -0.3951 -0.7673
16555TIP3    H271157   3.099   5.018  11.606  1.1207  1.1374  1.4083
16556TIP3   OH271158   0.273   0.725   1.670 -0.4704  0.3863 -0.3882
16556TIP3    H171159   0.263   0.818   1.689 -3.2639  0.2213 -0.6043
16556TIP3    H271160   0.305   0.687   1.752 -0.9962  1.3193  0.2715
16557TIP3   OH271161   6.413   5.890   1.255  0.1299 -0.1407 -0.7272
16557TIP3    H171162   6.463   5.915   1.332 -1.2767  2.1322 -0.4540
16557TIP3    H271163   6.331   5.856   1.290  0.2333 -0.9168 -1.2146
16558TIP3   OH271164   6.038   4.483   1.981 -0.3930 -0.8762  0.2618
16558TIP3    H171165   6.088   4.501   2.061 -0.1863  0.4697 -0.1458
16558TIP3    H271166   6.011   4.392   1.990  0.8651 -1.1821  1.1822
16559TIP3   OH271167   2.058   4.726   4.427  0.0998 -0.0826  0.3577
16559TIP3    H171168   2.150   4.711   4.449 -0.1143 -2.4320 -0.0832
16559TIP3    H271169   2.010   4.693   4.503 -0.4083 -0.9226 -0.3030
16560TIP3   OH271170   0.090   4.865   1.484 -0.0427  0.7681 -0.4740
16560TIP3    H171171   0.063   4.871   1.576 -0.2373  1.4751 -0.5733
16560TIP3    H271172   0.104   4.956   1.457 -0.9937  0.6572 -1.4368
16561TIP3   OH271173   5.950   0.521   1.125  0.4628 -0.0243  0.2903
16561TIP3    H171174   6.015   0.466   1.170  0.3470  1.1653  2.0038
16561TIP3    H271175   6.001   0.594   1.090  0.2473  0.2482  0.5325
16562TIP3   OH271176   2.535   3.565   4.341  0.2950 -0.0527  0.5881
16562TIP3    H171177   2.565   3.639   4.393 -1.7554  1.8301 -0.7388
16562TIP3    H271178   2.551   3.591   4.250 -0.7522 -1.0799  0.0781
16563TIP3   OH271179   5.215   2.483  14.715  0.2308  0.2314 -0.5403
16563TIP3    H171180   5.219   2.495  14.810 -1.5916 -0.4501 -0.3405
16563TIP3    H271181   5.300   2.446  14.692 -0.0016 -1.5003  1.1561
16564TIP3   OH271182   0.786   0.660   0.868  0.1571  0.2564  0.5597
16564TIP3    H171183   0.730   0.708   0.930 -1.7560  2.2155 -2.3956
16564TIP3    H271184   0.757   0.569   0.876 -1.5396  0.7928  1.0511
16565TIP3   OH271185   2.099   3.017  16.783 -0.0300  0.0251  0.3078
16565TIP3    H171186   2.067   3.104  16.808 -0.9176 -0.8061  2.2196
16565TIP3    H271187   2.029   2.981  16.728 -0.3097 -0.0163  0.6874
16566TIP3   OH271188   2.400   1.883   2.428  0.3789  0.3351 -0.3123
16566TIP3    H171189   2.371   1.971   2.451 -0.4938  0.1148 -0.5337
16566TIP3    H271190   2.326   1.827   2.449  1.5606 -0.6347  1.6139
16567TIP3   OH271191   0.155   6.350   3.807  0.1400 -0.2284 -0.6408
16567TIP3    H171192   0.219   6.373   3.875 -0.2166  0.6974 -0.6043
16567TIP3    H271193   0.144   6.255   3.816 -0.2799 -0.0708  0.9517
16568TIP3   OH271194   4.311   5.532   0.020  0.0036  0.5855 -0.0883
16568TIP3    H171195   4.369   5.471  -0.025  2.0421  2.9145 -0.8528
16568TIP3    H271196   4.296   5.602  -0.044 -1.7550  1.1876  0.9223
16569TIP3   OH271197   5.771   0.579   1.927 -0.2391 -0.1506  0.0148
16569TIP3    H171198   5.857   0.619   1.913  0.1158 -1.2639 -1.1910
16569TIP3    H271199   5.783   0.488   1.899 -0.8098 -1.3422  3.2500
16570TIP3   OH271200   6.834   4.314   0.022  0.5793 -1.0137 -0.1676
16570TIP3    H171201   6.865   4.299  -0.067 -1.1694 -1.0032 -0.8061
16570TIP3    H271202   6.825   4.410   0.028  0.1535 -1.0544 -0.1669
16571TIP3   OH271203   1.969   1.605   6.311  1.0572  0.3099 -0.1290
16571TIP3    H171204   2.043   1.545   6.317  0.9786  0.2830  0.6719
16571TIP3    H271205   1.997   1.683   6.360  1.1264  0.9052 -1.0778
16572TIP3   OH271206   2.566   4.183   6.308 -0.3781 -0.3437 -0.2960
16572TIP3    H171207   2.546   4.186   6.402  1.2905 -2.6452  0.2258
16572TIP3    H271208   2.494   4.135   6.269 -0.2446 -0.8949  0.1214
16573TIP3   OH271209   4.893   2.355   4.521 -0.1974 -0.3324 -0.0852
16573TIP3    H171210   4.830   2.284   4.531 -0.7356  0.0612 -0.6240
16573TIP3    H271211   4.866   2.401   4.441  0.1293  0.4956  0.2644
16574TIP3   OH271212   2.221   1.359  10.861  0.4712 -0.0353  0.0119
16574TIP3    H171213   2.263   1.285  10.817 -0.9785 -0.2364 -1.0939
16574TIP3    H271214   2.209   1.424  10.792  1.2285  1.0253  0.8589
16575TIP3   OH271215   4.585   2.249  13.567 -0.6676 -0.5288  0.5444
16575TIP3    H171216   4.662   2.272  13.619  0.2563 -0.2758 -0.8623
16575TIP3    H271217   4.597   2.156  13.547 -0.8525 -0.5464  0.5145
16576TIP3   OH271218   2.700   6.305   2.821  0.4856 -0.5738 -0.4962
16576TIP3    H171219   2.606   6.322   2.830  0.7724  1.6404 -1.0369
16576TIP3    H271220   2.719   6.238   2.886 -1.6411 -1.8567 -1.1017
16577TIP3   OH271221   5.054   0.065  12.475  0.2456 -0.1714 -0.2780
16577TIP3    H171222   5.057   0.033  12.386 -2.0108 -0.4697 -0.3155
16577TIP3    H271223   5.032  -0.011  12.528  2.0645 -0.1059  0.6355
16578TIP3   OH271224   3.742   3.884  15.633  0.3795  0.0420  0.0934
16578TIP3    H171225   3.674   3.905  15.697  0.3763  0.2418  0.0243
16578TIP3    H271226   3.795   3.963  15.628  1.0865 -0.3860  0.7327
16579TIP3   OH271227   1.494   2.690  12.205  0.0805 -0.4816  0.0331
16579TIP3    H171228   1.463   2.600  12.217 -0.5372 -0.3434 -0.4484
16579TIP3    H271229   1.521   2.718  12.292  0.2603 -1.1262  0.1891
16580TIP3   OH271230   4.081   4.289  12.687  0.4474 -0.0632 -0.3499
16580TIP3    H171231   4.128   4.215  12.648 -1.7425 -0.5588 -2.3133
16580TIP3    H271232   4.030   4.250  12.758  3.0024  0.5205  1.9678
16581TIP3   OH271233   1.903   6.490   3.149  0.1410 -0.2835  0.8026
16581TIP3    H171234   1.911   6.416   3.208 -0.3472 -1.4016 -0.4657
16581TIP3    H271235   1.922   6.453   3.062 -0.9779  0.8568  0.0303
16582TIP3   OH271236   5.914   3.044   0.025  0.4350  0.5765 -0.4963
16582TIP3    H171237   5.962   2.996  -0.043 -0.7191  1.0714 -1.6976
16582TIP3    H271238   5.824   3.010   0.020  0.0251  1.5668 -0.1193
16583TIP3   OH271239   3.068   2.139   1.712 -0.1837 -0.2683  0.1458
16583TIP3    H171240   3.126   2.068   1.683 -0.7200 -0.7429  0.2403
16583TIP3    H271241   3.007   2.098   1.773  1.0678  0.7589  2.1963
16584TIP3   OH271242   1.279   5.806   5.278 -0.2102  0.2063 -0.3883
16584TIP3    H171243   1.204   5.821   5.336  0.1101 -0.0651  0.1039
16584TIP3    H271244   1.289   5.711   5.275 -0.4722  0.2041 -1.2179
16585TIP3   OH271245   0.215   5.327  10.989  0.2573 -0.6778  0.0357
16585TIP3    H171246   0.261   5.243  10.994 -0.3282 -1.0037  0.0645
16585TIP3    H271247   0.258   5.374  10.917  1.8673 -0.1944  1.2386
16586TIP3   OH271248   3.460   4.543  10.847 -0.2748 -0.5845 -0.1009
16586TIP3    H171249   3.507   4.626  10.845 -2.6308  0.8680 -2.1253
16586TIP3    H271250   3.525   4.477  10.820  0.8442  1.1764 -1.9752
16587TIP3   OH271251   2.924   1.005   4.746  0.0818 -0.2266  0.2102
16587TIP3    H171252   2.874   1.034   4.670 -0.2179  0.5397  0.6876
16587TIP3    H271253   2.950   0.915   4.725 -1.1987 -0.5234 -0.2047
16588TIP3   OH271254   6.783   0.776  16.558  0.3368 -0.4849  0.2050
16588TIP3    H171255   6.754   0.795  16.469 -0.8086  0.4488  0.7499
16588TIP3    H271256   6.766   0.856  16.606 -0.0534 -1.3152  1.5028
16589TIP3   OH271257   5.040   0.577   3.779  0.1256 -0.5215  0.1388
16589TIP3    H171258   4.998   0.549   3.860  0.6636  0.2045  0.6863
16589TIP3    H271259   5.021   0.507   3.716  0.2263 -1.4064  1.0613
16590TIP3   OH271260   1.111   1.880   0.983  0.1331  0.0069  0.4105
16590TIP3    H171261   1.163   1.880   0.903  2.6441 -0.6658  1.9312
16590TIP3    H271262   1.074   1.969   0.988  1.3452  0.5995 -0.6282
16591TIP3   OH271263   3.482   4.740  13.130 -0.3744 -0.9650 -0.1554
16591TIP3    H171264   3.518   4.774  13.048  1.5040 -1.2473  0.5078
16591TIP3    H271265   3.556   4.740  13.191 -2.3074  2.2942  2.5950
16592TIP3   OH271266   0.705   2.353   5.965 -0.7249 -0.0719 -0.0100
16592TIP3    H171267   0.629   2.319   5.918 -1.5113  2.0878 -0.4261
16592TIP3    H271268   0.727   2.434   5.918 -1.3885  2.1128  3.1063
16593TIP3   OH271269   6.740   5.455  14.585  0.0034 -0.4989  0.0207
16593TIP3    H171270   6.684   5.378  14.574  1.2950 -1.7181  1.5093
16593TIP3    H271271   6.755   5.461  14.679 -0.4978  1.9560  0.0236
16594TIP3   OH271272   2.464   2.688   0.478  0.3188 -0.1304 -0.5210
16594TIP3    H171273   2.402   2.655   0.413 -0.3064 -1.1503  0.5507
16594TIP3    H271274   2.528   2.737   0.427  0.6146 -2.0110 -2.0856
16595TIP3   OH271275   6.057   6.401  12.189  0.1525 -0.3625 -0.1559
16595TIP3    H171276   6.056   6.307  12.206  1.4015 -0.2758  0.4538
16595TIP3    H271277   6.031   6.409  12.097  1.6379 -1.4226 -0.6949
16596TIP3   OH271278   5.240   1.551  12.352  0.4493 -0.0376  0.3572
16596TIP3    H171279   5.263   1.585  12.265 -0.5921 -0.6172 -0.1705
16596TIP3    H271280   5.246   1.627  12.410  0.6246  0.4839 -0.3278
16597TIP3   OH271281   4.816   4.010   2.660 -0.1678  0.8055  0.1387
16597TIP3    H171282   4.807   3.916   2.650  3.1277  0.2316  1.3350
16597TIP3    H271283   4.784   4.028   2.748  1.0840  0.4119  0.6957
16598TIP3   OH271284   0.663   6.515  14.557  0.4690 -0.4783  0.6077
16598TIP3    H171285   0.731   6.455  14.527 -0.3485 -1.7624  1.2172
16598TIP3    H271286   0.605   6.460  14.611 -1.2813  0.4679 -0.2431
16599TIP3   OH271287   6.784   0.333  13.869 -0.3289 -0.4316  0.1700
16599TIP3    H171288   6.834   0.253  13.882 -2.3110 -1.8272 -0.3792
16599TIP3    H271289   6.702   0.319  13.916 -0.9836  1.0261 -0.4536
16600TIP3   OH271290   1.717   1.844   3.825 -0.1461 -0.1470  0.0063
16600TIP3    H171291   1.732   1.834   3.919 -2.8331  1.6360  0.7456
16600TIP3    H271292   1.803   1.867   3.790  0.5566  1.3675  2.4396
16601TIP3   OH271293   5.487   3.522  15.512  0.7161  1.4131  0.7252
16601TIP3    H171294   5.510   3.567  15.593 -1.8556  0.7966  1.8947
16601TIP3    H271295   5.418   3.461  15.537  1.5013 -0.5490 -1.5117
16602TIP3   OH271296   6.427   6.588  13.396  0.0786  0.0562 -0.0567
16602TIP3    H171297   6.397   6.679  13.390 -0.3803 -0.1354 -0.8579
16602TIP3    H271298   6.508   6.593  13.447 -0.2729  0.8326  0.4563
16603TIP3   OH271299   3.689   2.407   4.141  0.2301 -0.9206  0.4749
16603TIP3    H171300   3.708   2.500   4.128 -2.4046 -0.4588 -0.6518
16603TIP3    H271301   3.615   2.405   4.201  0.6259 -2.3538  0.9689
16604TIP3   OH271302   2.092   1.924  16.285  0.2068 -0.3218 -0.2987
16604TIP3    H171303   2.095   1.919  16.381  2.0050  1.2604 -0.2003
16604TIP3    H271304   2.030   1.856  16.259 -0.5747 -0.5788  1.9973
16605TIP3   OH271305   0.203   3.055   1.172 -0.8600  0.1116 -0.1312
16605TIP3    H171306   0.235   2.982   1.225  0.5225 -0.6386 -1.8965
16605TIP3    H271307   0.283   3.101   1.146 -1.5854  1.0314 -0.7735
16606TIP3   OH271308   2.276   4.398  14.984 -0.1955 -0.1568  0.4090
16606TIP3    H171309   2.333   4.470  14.956  0.7649 -1.0108  0.0643
16606TIP3    H271310   2.330   4.347  15.045 -0.8482 -0.5783  0.6442
16607TIP3   OH271311   1.286   0.907   3.571  0.0369  0.3779  0.5003
16607TIP3    H171312   1.260   0.832   3.516 -1.3250 -0.5871  2.3391
16607TIP3    H271313   1.292   0.871   3.659  1.9115  1.9396  1.0620
16608TIP3   OH271314   0.991   3.815  16.340  0.0804 -0.7361 -0.1638
16608TIP3    H171315   1.076   3.809  16.296 -0.2875 -0.4842 -0.9273
16608TIP3    H271316   0.927   3.820  16.268 -0.3832  2.2885  0.3180
16609TIP3   OH271317   5.885   2.648   3.949 -0.1505  0.1212  0.0873
16609TIP3    H171318   5.959   2.672   4.004  2.2960 -2.0068 -1.9712
16609TIP3    H271319   5.869   2.725   3.894 -0.0546  0.8920  1.1217
16610TIP3   OH271320   3.534   5.177  16.910 -0.0111  0.5018 -0.6946
16610TIP3    H171321   3.552   5.270  16.898  2.8413 -0.0542 -1.4356
16610TIP3    H271322   3.477   5.155  16.836 -2.4530  1.9677  0.5980
16611TIP3   OH271323   3.028   4.365  13.667 -0.1239 -0.6968 -0.4826
16611TIP3    H171324   2.995   4.277  13.649 -1.8658 -0.7672  2.3796
16611TIP3    H271325   2.973   4.423  13.613 -2.2621 -1.1178  1.1218
16612TIP3   OH271326   5.613   0.803  11.324  0.0342  0.1004  0.1337
16612TIP3    H171327   5.697   0.790  11.367  0.5690 -2.5581 -1.4708
16612TIP3    H271328   5.549   0.795  11.394  1.0105  2.3144  1.4135
16613TIP3   OH271329   1.132   0.230  14.438 -0.1562  0.5079  0.1106
16613TIP3    H171330   1.048   0.235  14.393 -0.4522 -0.4850  0.5394
16613TIP3    H271331   1.131   0.306  14.497 -0.4789  0.8573 -0.3343
16614TIP3   OH271332   4.053   2.748  11.950  0.5385  0.0068 -0.4074
16614TIP3    H171333   4.074   2.787  12.034 -0.4961 -0.2218 -0.0325
16614TIP3    H271334   4.024   2.659  11.971 -0.2852  0.1364 -0.9419
16615TIP3   OH271335   1.698   3.073  13.255 -0.2825 -0.2278 -0.4707
16615TIP3    H171336   1.614   3.117  13.244 -0.0230  0.1502 -0.9675
16615TIP3    H271337   1.737   3.113  13.332 -1.0701 -1.2304  0.4769
16616TIP3   OH271338   5.992   5.626  12.598 -0.0302  0.2071 -0.4879
16616TIP3    H171339   6.069   5.634  12.542  0.6746  0.5612  0.5033
16616TIP3    H271340   5.984   5.710  12.642 -1.1538  0.2662 -0.7691
16617TIP3   OH271341   4.380   3.557   3.978 -0.2415  0.3137  0.4037
16617TIP3    H171342   4.438   3.545   4.053  1.5323  2.3617 -0.5220
16617TIP3    H271343   4.386   3.650   3.958 -2.1721  0.1654 -1.1124
16618TIP3   OH271344   0.392   0.283  14.033  0.3002 -0.2332 -0.6138
16618TIP3    H171345   0.381   0.190  14.013  0.9887 -0.4833  0.1189
16618TIP3    H271346   0.487   0.296  14.032  0.1997  0.5339 -1.0022
16619TIP3   OH271347   6.756   5.878  13.192  0.5851 -0.0566 -0.1493
16619TIP3    H171348   6.758   5.787  13.223 -2.3504 -0.4039 -0.7007
16619TIP3    H271349   6.772   5.930  13.271  1.4000 -1.0376  0.3504
16620TIP3   OH271350   0.051   1.226   3.013 -0.0981 -0.1320 -0.0798
16620TIP3    H171351  -0.009   1.299   2.995 -0.4595  0.0881  1.7820
16620TIP3    H271352   0.025   1.195   3.100 -0.9462 -3.4797 -1.3673
16621TIP3   OH271353   2.203   6.079   6.413  0.3872  0.0514  0.3723
16621TIP3    H171354   2.200   6.137   6.337 -0.7237 -0.6193 -0.1120
16621TIP3    H271355   2.141   6.118   6.475  0.6597  0.1237  0.6039
16622TIP3   OH271356   5.429   2.520  10.851 -0.2455 -0.3278  0.2375
16622TIP3    H171357   5.372   2.596  10.841 -0.6267 -0.7589 -1.0380
16622TIP3    H271358   5.445   2.490  10.762 -0.9795 -2.3618  0.7333
16623TIP3   OH271359   5.630   3.438   4.563  0.1891  0.1923 -0.0658
16623TIP3    H171360   5.609   3.475   4.477  0.3173 -1.0126 -0.6539
16623TIP3    H271361   5.721   3.410   4.555  0.3841  0.6045  0.6674
16624TIP3   OH271362   6.200   5.372   2.968 -0.4055 -0.4295  0.0957
16624TIP3    H171363   6.278   5.359   3.022 -0.3434 -2.0351 -0.3306
16624TIP3    H271364   6.134   5.315   3.006 -2.1352  2.4287  1.7356
16625TIP3   OH271365   5.421   4.310  14.546  0.0130  0.4179 -0.0373
16625TIP3    H171366   5.509   4.308  14.508  0.5721  1.5150  1.1439
16625TIP3    H271367   5.434   4.286  14.638 -1.3448 -2.3664 -0.4681
16626TIP3   OH271368   2.221   3.310  17.110 -0.3747 -0.5729  0.5897
16626TIP3    H171369   2.278   3.240  17.079 -0.4379 -0.5370  0.3937
16626TIP3    H271370   2.163   3.328  17.037  3.0510  3.4313 -1.6282
16627TIP3   OH271371   2.169   2.240   3.913  0.1082  0.0750  0.0255
16627TIP3    H171372   2.160   2.145   3.923  1.5666 -0.0695  0.2213
16627TIP3    H271373   2.254   2.260   3.950 -1.2114  1.8662  2.3188
16628TIP3   OH271374   0.470   6.441   0.042  0.1765  0.1043 -0.0350
16628TIP3    H171375   0.524   6.380   0.093 -1.3219 -1.6729 -0.4924
16628TIP3    H271376   0.389   6.448   0.092  0.7656  2.8778  0.7267
16629TIP3   OH271377   5.674   6.410  11.750  0.0762 -0.1162  0.1354
16629TIP3    H171378   5.702   6.375  11.665  1.1202 -0.0323  0.4248
16629TIP3    H271379   5.635   6.336  11.795  0.7667 -0.5145  0.1016
16630TIP3   OH271380   6.336   4.295  13.367  0.2961  0.3522 -0.0095
16630TIP3    H171381   6.287   4.269  13.445  0.5322  0.5139  0.1938
16630TIP3    H271382   6.302   4.381  13.344 -1.5851 -0.7407 -1.5937
16631TIP3   OH271383   2.992   5.506  12.608 -0.5393 -0.2646 -0.2219
16631TIP3    H171384   2.907   5.538  12.579 -1.3507 -1.4154  0.7863
16631TIP3    H271385   3.043   5.497  12.527 -0.3643  3.0267 -0.6297
16632TIP3   OH271386   0.985   5.979  13.685 -0.2402 -0.6495 -0.4075
16632TIP3    H171387   1.051   6.035  13.643  0.4901 -0.5820  0.7930
16632TIP3    H271388   1.020   5.890  13.675 -1.6248 -1.0304 -2.7344
16633TIP3   OH271389   6.538   4.832   6.083  0.6738 -0.1178 -0.0985
16633TIP3    H171390   6.533   4.788   5.999 -1.4135  0.1539 -0.1657
16633TIP3    H271391   6.557   4.763   6.146  0.7739 -0.5570 -0.6085
16634TIP3   OH271392   1.358   0.857  11.424  0.3560 -0.2863 -0.4216
16634TIP3    H171393   1.354   0.915  11.348 -1.0934  0.0996 -0.0832
16634TIP3    H271394   1.434   0.888  11.473  1.7467 -0.9960 -2.0256
16635TIP3   OH271395   5.185   5.195   5.567 -0.1035  0.0115  0.5314
16635TIP3    H171396   5.267   5.190   5.517  1.1856  2.4951  2.1136
16635TIP3    H271397   5.202   5.265   5.631 -2.3807 -1.5447  3.0045
16636TIP3   OH271398   1.813   6.327  12.952  0.0723 -0.3067 -0.0886
16636TIP3    H171399   1.835   6.279  13.032 -1.0063  0.1852  0.5318
16636TIP3    H271400   1.866   6.286  12.884  1.4610 -0.3603  0.9759
16637TIP3   OH271401   1.135   1.090  16.833 -0.2227 -0.6576  0.2105
16637TIP3    H171402   1.137   1.181  16.865 -1.3218 -0.3403 -0.5397
16637TIP3    H271403   1.178   1.094  16.748 -0.8514 -0.6939 -0.1190
16638TIP3   OH271404   6.502   4.521   0.535  0.3014 -0.2843  0.2719
16638TIP3    H171405   6.513   4.552   0.445 -2.7310 -0.2026 -0.1959
16638TIP3    H271406   6.538   4.433   0.535 -0.7798 -0.7772 -1.4267
16639TIP3   OH271407   0.618   1.184   3.124  0.1029  0.1349  0.2702
16639TIP3    H171408   0.662   1.100   3.139 -0.2151 -0.3120 -1.1821
16639TIP3    H271409   0.682   1.235   3.074 -0.3071  0.1762 -0.2104
16640TIP3   OH271410   5.435   5.450   1.743  0.4094 -0.4919 -0.3345
16640TIP3    H171411   5.515   5.490   1.778 -0.1922 -0.5230  1.1470
16640TIP3    H271412   5.380   5.434   1.820 -1.8965  1.3869 -1.4712
16641TIP3   OH271413   6.525   3.108   0.027  0.7252 -0.0100  0.0296
16641TIP3    H171414   6.445   3.157   0.047  0.1336 -0.2083 -1.6516
16641TIP3    H271415   6.510   3.021   0.062  0.1042 -0.1049 -0.4665
16642TIP3   OH271416   3.406   5.602  10.277 -0.2476  0.0897 -0.7161
16642TIP3    H171417   3.388   5.639  10.364 -1.7503  2.2717 -1.8790
16642TIP3    H271418   3.321   5.601  10.233  0.6145 -0.2431 -2.4611
16643TIP3   OH271419   5.552   4.700   5.126  0.3199 -0.1848 -0.1807
16643TIP3    H171420   5.605   4.712   5.204  1.5474  0.6249 -1.1015
16643TIP3    H271421   5.566   4.608   5.101  1.0807 -0.0452 -0.2720
16644TIP3   OH271422   4.929   3.192   1.095 -0.0899  0.0818 -0.1820
16644TIP3    H171423   4.941   3.266   1.035 -0.3970  0.2537 -0.0386
16644TIP3    H271424   4.840   3.161   1.078 -0.8012  1.1613  1.2793
16645TIP3   OH271425   5.371   1.817   0.510 -0.3072 -0.3465 -0.2630
16645TIP3    H171426   5.403   1.893   0.463 -2.4790  0.9415  0.2096
16645TIP3    H271427   5.361   1.750   0.443  1.0025 -0.0434 -0.7936
16646TIP3   OH271428   4.677   5.062   1.845 -0.0878 -0.3549  0.0393
16646TIP3    H171429   4.589   5.057   1.806  0.5137  0.3636 -1.4592
16646TIP3    H271430   4.736   5.065   1.770  1.2360 -0.9903  1.0424
16647TIP3   OH271431   3.741   2.613  14.251  0.4618  0.1681  0.2295
16647TIP3    H171432   3.649   2.611  14.223  0.6103 -0.0796 -0.2362
16647TIP3    H271433   3.759   2.706  14.266  0.6190  0.3937 -1.2744
16648TIP3   OH271434   6.223   5.109  14.500 -0.0665  0.2545 -0.0232
16648TIP3    H171435   6.251   5.067  14.581 -0.1627  0.2467  0.0066
16648TIP3    H271436   6.133   5.138  14.518 -0.0633  0.3149 -0.1027
16649TIP3   OH271437   6.395   1.368   2.941  0.1246  0.1185  0.6828
16649TIP3    H171438   6.339   1.429   2.892 -0.1475  0.0857  0.9491
16649TIP3    H271439   6.425   1.418   3.017  0.3686  0.0994  0.6009
16650TIP3   OH271440   5.295   0.980   4.581  0.0355  0.5556  0.5711
16650TIP3    H171441   5.388   0.967   4.600  0.0440 -0.0611  0.1310
16650TIP3    H271442   5.266   1.044   4.645  1.2896  2.4944 -0.6825
16651TIP3   OH271443   0.912   1.915   5.783  0.2165 -0.3966  0.6927
16651TIP3    H171444   0.848   1.969   5.829 -1.6511 -2.7225  0.9780
16651TIP3    H271445   0.989   1.916   5.840 -0.0875  1.1272  1.1432
16652TIP3   OH271446   3.045   6.700   3.428  0.4667  0.0360 -0.4748
16652TIP3    H171447   3.127   6.654   3.413  0.7357 -0.0483  1.1525
16652TIP3    H271448   3.052   6.779   3.374  1.9106  0.3535  0.1346
16653TIP3   OH271449   0.872   6.120  11.399 -0.1488 -0.6269  0.3250
16653TIP3    H171450   0.810   6.114  11.472 -0.2528 -0.8116  0.2213
16653TIP3    H271451   0.875   6.213  11.378 -2.9225 -0.8688 -1.8388
16654TIP3   OH271452   4.083   0.099  11.662  0.0844  0.4518  0.1760
16654TIP3    H171453   4.025   0.147  11.721 -1.1740 -2.1688  1.1780
16654TIP3    H271454   4.081   0.009  11.693  2.1960 -0.3527 -1.7539
16655TIP3   OH271455   0.912   4.170   0.695  0.3980  0.4650 -0.1906
16655TIP3    H171456   0.979   4.104   0.675 -0.0234 -0.0637  0.1032
16655TIP3    H271457   0.921   4.186   0.789 -2.0120 -2.0885  0.6145
16656TIP3   OH271458   6.759   4.768   3.942 -0.0105  0.2336 -0.3417
16656TIP3    H171459   6.691   4.716   3.985  2.1520 -1.8249  0.8291
16656TIP3    H271460   6.724   4.857   3.940 -2.2603 -0.5380  1.2174
16657TIP3   OH271461   6.585   1.014  15.174  0.0030 -0.0011  0.0437
16657TIP3    H171462   6.511   1.073  15.165  0.1839  0.2775  0.3527
16657TIP3    H271463   6.572   0.948  15.105  0.0647  0.6807 -0.6356
16658TIP3   OH271464   6.639   0.665   2.837 -0.2696 -0.0718  0.2167
16658TIP3    H171465   6.582   0.600   2.796  1.2899 -1.3314 -0.0478
16658TIP3    H271466   6.659   0.629   2.923 -0.2216  0.5779  0.4884
16659TIP3   OH271467   0.144   6.530  11.611  0.3250 -0.8515  0.3423
16659TIP3    H171468   0.190   6.448  11.630  1.7183 -0.3228 -0.5805
16659TIP3    H271469   0.206   6.580  11.557 -0.5884  0.7107  0.6920
16660TIP3   OH271470   1.945   2.165   3.678  0.4582  0.1745  0.7137
16660TIP3    H171471   1.969   2.073   3.670  0.2384  0.0063  1.8193
16660TIP3    H271472   1.862   2.165   3.726  0.1226  0.9280  0.1736
16661TIP3   OH271473   0.519   1.296  11.750 -0.3547 -0.1859 -0.8707
16661TIP3    H171474   0.454   1.246  11.799 -0.2620  0.7257  0.2263
16661TIP3    H271475   0.600   1.248  11.761 -0.2698  0.1605  0.1616
16662TIP3   OH271476   2.094   6.542  16.838  0.1692 -0.3811 -0.0135
16662TIP3    H171477   2.078   6.537  16.743  1.1177 -0.7745 -0.1690
16662TIP3    H271478   2.185   6.570  16.845 -0.2122  0.7260  0.8059
16663TIP3   OH271479   0.871   2.729  14.486 -0.0424  0.1855 -0.3162
16663TIP3    H171480   0.882   2.779  14.405 -0.1378  0.2457 -0.2925
16663TIP3    H271481   0.900   2.641  14.465 -0.2069  0.1661 -0.4552
16664TIP3   OH271482   1.556   5.579   1.036 -0.0506 -0.5164 -0.7152
16664TIP3    H171483   1.544   5.558   1.129 -0.8516  0.7603 -0.4976
16664TIP3    H271484   1.480   5.539   0.994 -0.3874  0.0065 -0.6183
16665TIP3   OH271485   2.368   6.046  12.481 -0.2013 -0.3020 -0.0422
16665TIP3    H171486   2.330   6.107  12.545  2.5301  0.8849  0.5623
16665TIP3    H271487   2.375   5.963  12.529  0.5834  0.2228  0.7750
16666TIP3   OH271488   1.585   4.222  12.772 -0.4487  0.0130 -0.5514
16666TIP3    H171489   1.602   4.305  12.816 -0.0999 -0.0486 -0.5608
16666TIP3    H271490   1.645   4.160  12.814 -0.3275 -0.1135 -0.9051
16667TIP3   OH271491   5.408   1.048   5.692  0.2275 -0.3832  0.6818
16667TIP3    H171492   5.445   1.031   5.779  0.4552 -0.1135  0.6396
16667TIP3    H271493   5.324   1.003   5.693  0.1817 -0.2976  1.0824
16668TIP3   OH271494   0.517   6.255  13.763  1.0393 -0.4033 -0.3536
16668TIP3    H171495   0.589   6.217  13.714  2.4820  1.7063 -0.0084
16668TIP3    H271496   0.553   6.274  13.849  1.1281  3.3821 -1.0310
16669TIP3   OH271497   1.658   0.861   0.309  0.8489  0.5579 -0.3946
16669TIP3    H171498   1.704   0.807   0.243  1.4739  0.6053  0.0006
16669TIP3    H271499   1.659   0.949   0.272  1.5717  0.6622 -0.1269
16670TIP3   OH271500   2.143   2.829  13.693  0.2169  0.0282  0.0380
16670TIP3    H171501   2.153   2.922  13.712  1.0712 -0.1909  0.7182
16670TIP3    H271502   2.179   2.785  13.770  2.0781 -0.8997 -1.3090
16671TIP3   OH271503   2.477   5.576  13.891  0.3503 -0.2755  0.0135
16671TIP3    H171504   2.442   5.545  13.974 -0.6079 -0.0384 -0.2885
16671TIP3    H271505   2.400   5.590  13.836  1.0344 -1.6234 -1.3560
16672TIP3   OH271506   5.553   3.895   0.751 -0.0735  0.6507  0.0238
16672TIP3    H171507   5.636   3.931   0.782 -0.4955  0.2538  1.7124
16672TIP3    H271508   5.538   3.819   0.807 -2.0873  1.3309  0.4665
16673TIP3   OH271509   1.527   4.207  15.388  0.3538  0.6213  0.1853
16673TIP3    H171510   1.512   4.298  15.414 -1.7682  0.4185 -0.1200
16673TIP3    H271511   1.566   4.166  15.465 -0.9618  1.2549  1.2357
16674TIP3   OH271512   2.043   5.705  16.299 -0.9843 -0.0128  0.4512
16674TIP3    H171513   1.968   5.644  16.299 -1.0739  0.0285 -1.7377
16674TIP3    H271514   2.006   5.788  16.270  0.0622 -0.2960 -1.9244
16675TIP3   OH271515   4.966   0.977  16.131 -0.4026 -0.1007  0.0470
16675TIP3    H171516   4.944   0.889  16.161  1.6881 -0.5160  0.5159
16675TIP3    H271517   4.901   1.034  16.172 -1.6548 -1.3964 -0.0949
16676TIP3   OH271518   4.989   0.097  16.125 -0.1520  0.3143 -0.4601
16676TIP3    H171519   5.068   0.046  16.110  0.2446  1.0132 -0.7779
16676TIP3    H271520   4.965   0.077  16.215  1.9812  2.2083  0.6313
16677TIP3   OH271521   5.072   3.738  11.674  0.4799 -0.1796 -0.1125
16677TIP3    H171522   5.102   3.797  11.743  1.8806 -1.3816  0.3759
16677TIP3    H271523   5.094   3.651  11.707  1.5207 -0.7754 -2.2129
16678TIP3   OH271524   3.077   5.801   4.008 -0.5675 -0.0847  0.3162
16678TIP3    H171525   3.128   5.806   4.089 -2.6091  1.7870  1.6068
16678TIP3    H271526   3.094   5.885   3.965 -0.1623 -0.7295 -0.8168
16679TIP3   OH271527   3.962   6.788   0.486 -0.1989  0.6647 -0.5591
16679TIP3    H171528   4.031   6.830   0.434  1.7918  0.2318  1.5443
16679TIP3    H271529   3.953   6.701   0.448  1.1091  0.4096 -0.3474
16680TIP3   OH271530   5.365   0.624   3.130  0.5159  0.0579 -0.5821
16680TIP3    H171531   5.313   0.684   3.184 -0.3813 -0.6196 -0.6685
16680TIP3    H271532   5.456   0.652   3.143  0.4651 -0.8499  2.2314
16681TIP3   OH271533   1.844   5.894   1.679  0.5116 -0.2937 -0.6027
16681TIP3    H171534   1.841   5.988   1.700  1.2918 -0.2887 -0.4837
16681TIP3    H271535   1.767   5.880   1.624  0.1294  0.3223 -0.2424
16682TIP3   OH271536   1.860   0.846  12.681 -0.4337 -0.0980 -0.5852
16682TIP3    H171537   1.910   0.765  12.688 -1.2882 -0.7107 -1.4504
16682TIP3    H271538   1.812   0.852  12.764  2.7411  1.7110  1.3646
16683TIP3   OH271539   0.115   1.728   3.422  0.0204  0.2977  0.0154
16683TIP3    H171540   0.057   1.783   3.474  0.7362  1.9628 -0.8538
16683TIP3    H271541   0.204   1.753   3.448  0.3953  0.9255 -1.6928
16684TIP3   OH271542   4.809   6.584   5.542 -0.6519  0.0548 -0.0278
16684TIP3    H171543   4.841   6.632   5.467  0.0865  1.9499  1.4178
16684TIP3    H271544   4.739   6.640   5.578 -0.4852 -0.4378  1.1023
16685TIP3   OH271545   4.733   0.926  13.217  0.5047  0.1511 -0.5051
16685TIP3    H171546   4.755   0.994  13.153  1.1053  1.7361  1.2708
16685TIP3    H271547   4.771   0.958  13.299 -3.5192  0.1930  1.5801
16686TIP3   OH271548   1.467   2.031  17.008 -0.1074  0.5057  0.3688
16686TIP3    H171549   1.485   1.946  16.968  1.6063  0.7745  0.5130
16686TIP3    H271550   1.426   2.008  17.092  0.6405 -0.1881  0.5566
16687TIP3   OH271551   0.175   5.725   6.491 -0.2374 -0.3371 -0.0336
16687TIP3    H171552   0.218   5.661   6.434 -0.9571  0.8664 -1.9994
16687TIP3    H271553   0.230   5.803   6.487 -0.9125  0.1521 -0.0329
16688TIP3   OH271554   1.275   4.790   2.674  0.5068  0.6438  0.0316
16688TIP3    H171555   1.330   4.763   2.747 -0.0424  0.2192  0.3002
16688TIP3    H271556   1.295   4.728   2.603  0.2152  0.3428  0.2069
16689TIP3   OH271557   6.689   5.382  17.114  0.1353  0.3319 -0.0865
16689TIP3    H171558   6.661   5.426  17.034  0.2455 -0.0865 -0.3573
16689TIP3    H271559   6.769   5.336  17.090 -1.0395 -1.7138 -0.4087
16690TIP3   OH271560   5.990   3.203   5.097  0.2757  0.1079  0.5399
16690TIP3    H171561   6.027   3.122   5.061 -0.3602  0.1457 -0.2198
16690TIP3    H271562   6.062   3.243   5.145  0.7904 -0.5697  0.3504
16691TIP3   OH271563   1.376   5.875  16.603 -0.0314  0.1342  0.1563
16691TIP3    H171564   1.389   5.826  16.684  1.2457 -0.1933 -0.2228
16691TIP3    H271565   1.426   5.956  16.615  2.1790 -0.9330 -1.1484
16692TIP3   OH271566   1.693   0.320   4.322  0.2310  0.4655  0.2232
16692TIP3    H171567   1.718   0.229   4.341 -2.1744  0.2795  3.1838
16692TIP3    H271568   1.743   0.372   4.384  1.6725  1.3122 -1.5237
16693TIP3   OH271569   3.772   2.970  12.106 -0.2320  0.1944  0.9546
16693TIP3    H171570   3.740   3.027  12.176 -1.1815 -0.2958  0.9410
16693TIP3    H271571   3.719   2.993  12.030 -0.5698 -0.6185  0.9252
16694TIP3   OH271572   5.192   1.562  15.576  0.1763  0.4141 -0.3604
16694TIP3    H171573   5.172   1.592  15.664 -0.9712  1.9692 -1.1181
16694TIP3    H271574   5.174   1.468  15.578  1.0356  0.2510  1.2794
16695TIP3   OH271575   2.624   0.458  11.512  0.3052 -0.4478 -0.2911
16695TIP3    H171576   2.634   0.485  11.603 -1.8574 -0.3774 -0.0227
16695TIP3    H271577   2.691   0.390  11.500  3.1686  2.0759  0.1705
16696TIP3   OH271578   5.298   2.042  15.752 -0.1020 -0.0390  0.2129
16696TIP3    H171579   5.225   2.024  15.811 -0.7209  2.3685  0.2617
16696TIP3    H271580   5.287   1.977  15.682 -0.8872 -1.2286  1.3761
16697TIP3   OH271581   3.086   4.145   0.625 -0.0902  0.1238 -0.0788
16697TIP3    H171582   2.993   4.128   0.616  0.0483 -1.2202  0.7229
16697TIP3    H271583   3.106   4.125   0.716  0.7336  1.7664  0.1359
16698TIP3   OH271584   5.911   4.498   5.273 -0.4924  0.6065  0.3305
16698TIP3    H171585   5.881   4.498   5.181 -0.9780 -0.9491  0.4626
16698TIP3    H271586   5.923   4.406   5.294  1.6493  1.0503  1.2175
16699TIP3   OH271587   4.755   4.460  15.004 -0.3112 -0.5695 -0.9793
16699TIP3    H171588   4.804   4.378  14.997  0.1902 -0.2080 -1.9240
16699TIP3    H271589   4.676   4.445  14.951  0.0890 -0.2345 -1.6840
16700TIP3   OH271590   1.179   3.925  16.820  0.5200  0.4882  0.3461
16700TIP3    H171591   1.221   3.847  16.783 -1.8480 -1.2427  1.0609
16700TIP3    H271592   1.096   3.931  16.772  0.3969  2.2526  0.7340
16701TIP3   OH271593   3.392   1.318   3.195 -0.3370 -0.4873 -0.2006
16701TIP3    H171594   3.387   1.238   3.248  0.0253 -0.4597 -0.1221
16701TIP3    H271595   3.301   1.347   3.186 -0.3810 -0.3199  0.6798
16702TIP3   OH271596   1.218   1.610   1.885 -0.8634 -0.2720  0.4025
16702TIP3    H171597   1.202   1.537   1.826  0.9384 -0.0239 -0.4454
16702TIP3    H271598   1.219   1.687   1.828  0.7744 -0.0134  0.7300
16703TIP3   OH271599   6.380   6.264   6.314  0.3304 -0.3341  0.5881
16703TIP3    H171600   6.460   6.265   6.368  1.5520 -1.5363 -1.0813
16703TIP3    H271601   6.384   6.180   6.268 -1.7134 -0.2158  0.1291
16704TIP3   OH271602   1.407   2.858   6.610  0.3172 -0.2154  0.0684
16704TIP3    H171603   1.431   2.949   6.625 -4.0575  1.3514 -1.0638
16704TIP3    H271604   1.424   2.844   6.517 -1.0452  0.2480 -0.2736
16705TIP3   OH271605   1.114   1.610   3.470  1.1551  0.4546  0.6899
16705TIP3    H171606   1.161   1.604   3.553 -0.1810 -1.8053  1.3856
16705TIP3    H271607   1.022   1.609   3.495  0.7236  0.8311 -0.7856
16706TIP3   OH271608   2.224   5.711   1.310  0.0687  0.1315  0.2215
16706TIP3    H171609   2.289   5.640   1.320 -1.3852 -1.1588  1.0426
16706TIP3    H271610   2.227   5.733   1.217  2.1656  0.6143  0.3511
16707TIP3   OH271611   2.305   0.874   6.435 -0.4270 -0.0749  0.1372
16707TIP3    H171612   2.249   0.798   6.419  1.1707 -0.7330 -3.2488
16707TIP3    H271613   2.263   0.920   6.507 -2.1900 -3.4334  1.4983
16708TIP3   OH271614   0.372   5.208  12.330 -0.0567 -0.3782 -0.0571
16708TIP3    H171615   0.361   5.127  12.379  0.9863 -0.3897  0.1748
16708TIP3    H271616   0.441   5.255  12.376 -1.4169  1.1863  0.4974
16709TIP3   OH271617   2.157   3.794  13.961 -0.3666 -0.2097 -0.4975
16709TIP3    H171618   2.181   3.786  13.868  0.8318  0.4313 -0.2636
16709TIP3    H271619   2.220   3.857  13.996 -0.3911 -0.9344  0.9046
16710TIP3   OH271620   6.392   0.192  12.635 -0.3815  0.1355  0.3187
16710TIP3    H171621   6.449   0.116  12.630 -1.1523 -0.5619  1.6182
16710TIP3    H271622   6.404   0.237  12.552  1.7053 -0.2234  0.3832
16711TIP3   OH271623   6.273   1.496  13.708 -0.5360 -0.5897 -0.0761
16711TIP3    H171624   6.271   1.455  13.794  0.3514 -0.5719 -0.0402
16711TIP3    H271625   6.241   1.585  13.723  1.3318  0.0029  0.5754
16712TIP3   OH271626   0.749   5.182  15.379  0.2407  0.0178  0.8129
16712TIP3    H171627   0.694   5.113  15.343 -0.3564 -0.1242  1.9614
16712TIP3    H271628   0.799   5.214  15.304  0.4309 -1.5591  0.2369
16713TIP3   OH271629   5.488   0.275   1.665 -0.5698 -0.2134  0.2734
16713TIP3    H171630   5.473   0.299   1.757 -2.4190 -1.2271  0.2964
16713TIP3    H271631   5.401   0.250   1.633  0.3654 -1.7666 -1.1946
16714TIP3   OH271632   0.122   6.215  12.658  0.4915  0.0635  0.4673
16714TIP3    H171633   0.114   6.275  12.584 -0.2019 -1.3811 -0.6909
16714TIP3    H271634   0.046   6.235  12.713  1.9143  2.3059  1.7510
16715TIP3   OH271635   3.766   1.181   3.210  0.2947  0.4878  0.0280
16715TIP3    H171636   3.779   1.261   3.159  0.1583 -0.2581 -1.2210
16715TIP3    H271637   3.744   1.212   3.298 -2.9915  1.8969 -1.1436
16716TIP3   OH271638   4.454   3.590  16.611  0.2583 -0.0820  0.0150
16716TIP3    H171639   4.460   3.504  16.655  0.7929 -0.4170 -0.6943
16716TIP3    H271640   4.365   3.619  16.629 -0.7557 -1.8641 -1.6559
16717TIP3   OH271641   3.287   5.047   2.254 -0.8202  0.1358 -0.3693
16717TIP3    H171642   3.238   5.124   2.284  1.1132  0.4190  2.4281
16717TIP3    H271643   3.340   5.080   2.182 -0.3977  1.3247  0.4544
16718TIP3   OH271644   3.574   1.449   5.420  0.3795 -0.1221 -0.2437
16718TIP3    H171645   3.619   1.410   5.495 -0.7823 -0.7637  0.1452
16718TIP3    H271646   3.564   1.541   5.445 -1.5194 -0.6610  1.2066
16719TIP3   OH271647   1.703   6.467  12.338 -0.3663 -0.5047 -0.4323
16719TIP3    H171648   1.635   6.406  12.366 -0.1873 -1.1392 -1.3610
16719TIP3    H271649   1.779   6.443  12.390  0.1251 -2.0427 -1.7802
16720TIP3   OH271650   2.089   1.909  14.951 -0.0749 -0.7285 -0.3089
16720TIP3    H171651   2.114   1.874  15.037 -0.3065 -1.8052 -0.6636
16720TIP3    H271652   2.051   1.995  14.970 -0.5030 -1.1254  0.7158
16721TIP3   OH271653   0.565   3.452   1.278  0.1281  0.0745  0.1971
16721TIP3    H171654   0.547   3.538   1.240  1.9317 -0.1609 -1.3037
16721TIP3    H271655   0.487   3.433   1.331 -1.1290  1.7850 -0.9199
16722TIP3   OH271656   1.179   4.209  16.826  0.6784 -0.5427  0.2169
16722TIP3    H171657   1.271   4.189  16.841  0.2667 -2.4210  0.5079
16722TIP3    H271658   1.131   4.139  16.871 -0.8482 -0.4198 -1.1127
16723TIP3   OH271659   4.763   2.783  15.783 -0.4131  0.1853  0.6867
16723TIP3    H171660   4.707   2.861  15.780 -1.0076 -0.2638 -1.1301
16723TIP3    H271661   4.729   2.726  15.714  2.6361  0.1684 -0.9900
16724TIP3   OH271662   1.704   3.049   4.027  0.6263  0.6038  0.7519
16724TIP3    H171663   1.763   3.049   3.952 -0.1802 -0.7085  0.0577
16724TIP3    H271664   1.643   3.121   4.011  0.1358  0.0052 -0.1581
16725TIP3   OH271665   4.957   4.505  11.944  0.2123  0.1697 -0.5576
16725TIP3    H171666   5.012   4.486  12.020 -0.3695 -0.9620 -0.3927
16725TIP3    H271667   4.887   4.561  11.979 -0.5354 -1.0354 -0.0276
16726TIP3   OH271668   3.339   6.323   0.560  0.7605 -0.1608  0.4755
16726TIP3    H171669   3.384   6.362   0.635  0.0557  0.2384  0.7018
16726TIP3    H271670   3.346   6.389   0.491  2.0961 -0.8480 -0.0861
16727TIP3   OH271671   1.138   2.743   4.055 -0.8917 -0.2641 -0.7681
16727TIP3    H171672   1.119   2.834   4.034 -2.3808  0.2158  2.1564
16727TIP3    H271673   1.127   2.697   3.972 -2.5183  1.8862 -1.8611
16728TIP3   OH271674   6.798   1.155   3.258  0.1865  0.0703 -0.1445
16728TIP3    H171675   6.764   1.244   3.265  0.5069  0.3119 -1.3707
16728TIP3    H271676   6.839   1.138   3.343 -1.6027  0.3347  0.8102
16729TIP3   OH271677   6.052   4.584  12.767 -0.1451 -0.0682  0.0156
16729TIP3    H171678   6.010   4.670  12.762  1.3759  0.8303  1.6876
16729TIP3    H271679   6.064   4.558  12.675  0.1171  1.9013 -0.5536
16730TIP3   OH271680   4.527   5.012   1.025 -0.5608  0.6948 -0.2004
16730TIP3    H171681   4.613   5.018   1.067 -0.0564 -0.3262 -1.0639
16730TIP3    H271682   4.499   4.922   1.040 -1.0013  0.7222 -0.8352
16731TIP3   OH271683   3.487   2.588   3.495 -0.1490  0.1051  0.8351
16731TIP3    H171684   3.563   2.565   3.548 -2.2390 -2.6271  2.9388
16731TIP3    H271685   3.478   2.516   3.433  0.0569  1.4071 -0.7983
16732TIP3   OH271686   2.575   0.828  14.365 -0.1966  0.1184 -0.0671
16732TIP3    H171687   2.608   0.912  14.398  1.6912 -0.2255 -0.9428
16732TIP3    H271688   2.635   0.763  14.401 -1.1395 -0.7932 -0.0849
16733TIP3   OH271689   0.500   1.342  12.951  0.2875  0.0252  0.4230
16733TIP3    H171690   0.509   1.257  12.908 -0.7155  0.5257 -0.8343
16733TIP3    H271691   0.474   1.320  13.041 -0.7087 -0.9889 -0.0930
16734TIP3   OH271692   2.465   5.807  11.945  0.1277 -0.4240  0.1142
16734TIP3    H171693   2.476   5.716  11.973 -1.1645 -0.1532  1.6810
16734TIP3    H271694   2.397   5.803  11.877 -0.0565 -0.6249  0.3040
16735TIP3   OH271695   6.246   3.666  16.385 -0.5698  0.2898  0.2634
16735TIP3    H171696   6.284   3.753  16.399  0.2693  0.0096 -0.2039
16735TIP3    H271697   6.191   3.650  16.463 -1.5665  1.6571 -0.1216
16736TIP3   OH271698   1.480   2.023  15.274 -0.7327  0.2592  0.2003
16736TIP3    H171699   1.530   1.951  15.311  1.1961  2.3116  1.9198
16736TIP3    H271700   1.416   2.046  15.341  1.0297  2.2937  1.3458
16737TIP3   OH271701   4.138   6.596   5.939  0.3244 -0.5986  0.1163
16737TIP3    H171702   4.155   6.503   5.946 -1.7764 -0.9473  1.6366
16737TIP3    H271703   4.116   6.624   6.029 -0.9186  0.9253 -0.5997
16738TIP3   OH271704   2.737   6.140  10.357  0.3224  0.4990  0.1050
16738TIP3    H171705   2.819   6.105  10.324  0.1903  0.6124 -0.3481
16738TIP3    H271706   2.742   6.234  10.342 -0.3297  0.3819 -0.9100
16739TIP3   OH271707   2.011   0.498   5.268 -0.4487 -0.0163  0.4852
16739TIP3    H171708   2.048   0.414   5.240  0.1786  0.2378  0.5267
16739TIP3    H271709   2.049   0.562   5.208  0.0554  0.3950  1.2304
16740TIP3   OH271710   4.975   0.812   4.689 -0.1019 -0.3269  0.0207
16740TIP3    H171711   4.921   0.796   4.611  0.2739  0.4393 -0.4092
16740TIP3    H271712   5.060   0.837   4.654 -0.2177  1.0570  0.6448
16741TIP3   OH271713   0.456   5.112   4.937 -0.0651  0.2570 -0.4808
16741TIP3    H171714   0.526   5.051   4.961  0.1691  0.4853 -0.5852
16741TIP3    H271715   0.472   5.190   4.990  0.3046  0.6661 -1.1801
16742TIP3   OH271716   3.026   2.568  14.497  0.1459  0.2097  0.1929
16742TIP3    H171717   2.955   2.631  14.487 -0.8534 -0.8500  0.4441
16742TIP3    H271718   3.085   2.588  14.424  1.3809  3.2782  1.8390
16743TIP3   OH271719   6.702   5.004  16.627  0.2508 -0.0694 -0.0110
16743TIP3    H171720   6.796   5.017  16.642  0.1137  1.9187 -0.5226
16743TIP3    H271721   6.697   4.973  16.536  0.3662  1.3588 -0.5316
16744TIP3   OH271722   0.361   5.236   4.559 -0.0093 -0.6113  0.3492
16744TIP3    H171723   0.336   5.155   4.514  0.0783 -0.3136 -0.2335
16744TIP3    H271724   0.330   5.306   4.502 -2.1862 -0.1882  1.9402
16745TIP3   OH271725   1.170   3.692  12.391  0.0471  0.1635  0.3560
16745TIP3    H171726   1.252   3.678  12.343 -0.8076 -1.1440 -0.7972
16745TIP3    H271727   1.115   3.741  12.331 -0.7845 -0.8769  0.2385
16746TIP3   OH271728   5.594   0.399  16.030 -0.0991 -0.1580  0.0965
16746TIP3    H171729   5.544   0.335  15.979  0.3198  0.1893 -0.7627
16746TIP3    H271730   5.679   0.403  15.988  0.0172  0.6675  0.3887
16747TIP3   OH271731   5.491   4.983  14.729  0.0169 -0.5909  0.4731
16747TIP3    H171732   5.435   5.026  14.665 -0.7443  0.2095  1.6302
16747TIP3    H271733   5.484   4.889  14.709 -0.3214 -0.3622 -0.5002
16748TIP3   OH271734   0.567   0.063  14.284  1.0699 -0.0429 -0.4086
16748TIP3    H171735   0.654   0.029  14.305  0.9291 -0.1265  0.0508
16748TIP3    H271736   0.583   0.136  14.224  1.4190 -0.4393 -0.8016
16749TIP3   OH271737   6.710   1.692  11.832  0.1524  0.0421  0.3533
16749TIP3    H171738   6.706   1.601  11.805 -2.6135 -0.7722  2.9106
16749TIP3    H271739   6.783   1.696  11.894  0.1093 -0.4934  0.4359
16750TIP3   OH271740   5.430   1.006  15.471  0.3500  0.0103  0.2505
16750TIP3    H171741   5.435   1.050  15.556 -2.1154 -2.1784  1.6579
16750TIP3    H271742   5.389   0.922  15.490 -1.3950 -0.1036 -3.2770
16751TIP3   OH271743   1.600   5.384   3.658  0.4028 -0.0098  0.2543
16751TIP3    H171744   1.652   5.442   3.601 -0.5693  1.1087  0.4691
16751TIP3    H271745   1.510   5.399   3.631  0.1120 -1.3194  0.4489
16752TIP3   OH271746   0.937   4.093  12.812 -0.0348  0.7503 -0.7919
16752TIP3    H171747   0.901   4.161  12.869 -0.2017  0.7321 -0.8740
16752TIP3    H271748   0.926   4.126  12.723 -1.1256  0.1612 -0.9025
16753TIP3   OH271749   3.712   3.289  10.421  0.0172 -0.1263 -0.4080
16753TIP3    H171750   3.644   3.321  10.480 -1.1139 -1.9082 -0.6472
16753TIP3    H271751   3.712   3.351  10.348 -1.5799 -0.2320 -0.5329
16754TIP3   OH271752   4.654   5.490  15.974  0.2588 -0.4613 -0.0170
16754TIP3    H171753   4.643   5.395  15.982 -0.9635 -0.5078 -1.7464
16754TIP3    H271754   4.749   5.502  15.969  0.4570 -1.5413  0.7028
16755TIP3   OH271755   5.171   1.843  14.545  0.1344  0.0544 -0.4008
16755TIP3    H171756   5.144   1.764  14.593 -1.9742  0.6814 -0.4327
16755TIP3    H271757   5.185   1.909  14.614 -1.0185  0.4253 -0.4889
16756TIP3   OH271758   6.329   0.853   0.948 -0.9203 -0.0097 -0.2407
16756TIP3    H171759   6.337   0.788   0.879 -0.6327  0.5459 -0.7405
16756TIP3    H271760   6.418   0.889   0.958 -1.2907  1.0877 -0.7493
16757TIP3   OH271761   5.360   0.998   3.330  0.0818  0.1794 -0.0314
16757TIP3    H171762   5.409   0.922   3.360 -0.1727 -0.4067 -1.0367
16757TIP3    H271763   5.346   1.051   3.408 -0.8038 -1.4073  0.9267
16758TIP3   OH271764   4.642   0.181   2.730 -0.1552 -0.5411  0.0796
16758TIP3    H171765   4.558   0.146   2.701 -0.3107 -0.0586 -0.0537
16758TIP3    H271766   4.623   0.271   2.756  0.2827 -0.4916  0.2367
16759TIP3   OH271767   5.871   5.161  12.478  0.4382 -0.6135 -0.3651
16759TIP3    H171768   5.824   5.077  12.477 -0.0466 -0.3705  0.5492
16759TIP3    H271769   5.930   5.154  12.553 -0.1851  0.1663  0.2064
16760TIP3   OH271770   1.166   2.126  15.251 -0.4120  0.2488 -0.9835
16760TIP3    H171771   1.180   2.033  15.267 -1.0690  0.2029 -0.6291
16760TIP3    H271772   1.220   2.146  15.175  1.9771  0.2216  0.6158
16761TIP3   OH271773   5.162   2.096   5.264  0.2734 -0.2694 -0.0365
16761TIP3    H171774   5.152   2.144   5.182 -0.4847  3.0301  1.8280
16761TIP3    H271775   5.094   2.130   5.321  2.0647 -0.8373  2.6503
16762TIP3   OH271776   1.759   3.195   6.280  0.2169 -0.0013  0.3027
16762TIP3    H171777   1.775   3.178   6.187 -0.9051 -2.0629  0.4111
16762TIP3    H271778   1.845   3.211   6.317  0.6347  1.4311 -1.1669
16763TIP3   OH271779   5.798   4.989   3.635  0.2681 -0.4739 -0.1347
16763TIP3    H171780   5.878   4.947   3.668  0.7672  0.5511  0.0129
16763TIP3    H271781   5.729   4.926   3.650  0.7350 -0.6304  1.4992
16764TIP3   OH271782   0.926   0.705   1.357 -0.4278  0.0340 -0.2795
16764TIP3    H171783   0.960   0.694   1.268  2.0487  1.6544  0.3490
16764TIP3    H271784   0.921   0.800   1.368 -1.3419 -0.1502  1.0864
16765TIP3   OH271785   1.534   2.222   0.161  0.0426  0.2357 -0.5189
16765TIP3    H171786   1.439   2.228   0.158  0.1114  1.0215 -1.9718
16765TIP3    H271787   1.552   2.149   0.221 -1.4719 -0.1321 -0.4873
16766TIP3   OH271788   2.470   4.461  13.067  0.6041 -0.3428 -0.6666
16766TIP3    H171789   2.379   4.451  13.039 -0.1034 -0.2337  1.3805
16766TIP3    H271790   2.475   4.550  13.102  1.2945 -0.5722 -0.1421
16767TIP3   OH271791   6.136   0.105  17.015 -0.2278 -0.0786  0.3025
16767TIP3    H171792   6.222   0.146  17.006  0.4277 -1.2694  0.9566
16767TIP3    H271793   6.154   0.012  17.024 -1.5737 -0.3210  0.7319
16768TIP3   OH271794   2.905   1.303  11.164 -0.4138  0.4544 -0.1651
16768TIP3    H171795   2.906   1.374  11.100  0.6586 -0.1706 -0.8510
16768TIP3    H271796   2.918   1.224  11.113  0.9461 -0.0160  0.8616
16769TIP3   OH271797   4.324   5.704   5.203  0.0698  0.0483  0.0144
16769TIP3    H171798   4.323   5.709   5.298 -0.1695  1.0888 -0.0257
16769TIP3    H271799   4.378   5.627   5.183 -0.6846 -0.7572  0.9915
16770TIP3   OH271800   6.709   4.154  16.940 -0.1328 -0.0144  0.3456
16770TIP3    H171801   6.711   4.107  16.857  1.1635 -0.6383  0.6900
16770TIP3    H271802   6.792   4.202  16.942  1.7745 -2.9918  2.8370
16771TIP3   OH271803   0.687   6.081   2.415 -0.0398 -0.1920 -0.3295
16771TIP3    H171804   0.699   6.149   2.482  0.5412  0.0560 -0.6707
16771TIP3    H271805   0.763   6.024   2.425  0.6352  0.4638 -1.4699
16772TIP3   OH271806   4.230   5.613  13.872 -0.2034  0.5135  0.2853
16772TIP3    H171807   4.300   5.651  13.819 -0.2363  0.8157  0.4556
16772TIP3    H271808   4.274   5.553  13.931 -0.1490  0.2917  0.0200
16773TIP3   OH271809   4.898   0.832   2.697 -0.6395 -1.0493  0.4780
16773TIP3    H171810   4.932   0.912   2.737 -1.7682  0.7350 -1.8949
16773TIP3    H271811   4.942   0.826   2.613 -2.3708 -1.5134 -0.4507
16774TIP3   OH271812   4.035   3.459  12.536 -0.2779  0.0747  0.1658
16774TIP3    H171813   3.995   3.507  12.463 -0.4081  0.2078  0.3253
16774TIP3    H271814   3.980   3.381  12.546  0.2054 -0.3444 -0.3952
16775TIP3   OH271815   4.429   1.455   1.281  0.2071  0.0457  0.2129
16775TIP3    H171816   4.427   1.538   1.233 -1.8583  0.9962  1.7861
16775TIP3    H271817   4.467   1.477   1.366  2.4486 -1.3119 -0.3474
16776TIP3   OH271818   4.991   4.291  15.571  0.3000  0.8062  0.2807
16776TIP3    H171819   4.987   4.307  15.476  0.8546 -0.7307 -0.0265
16776TIP3    H271820   4.908   4.325  15.604  0.4261  2.0867 -0.6267
16777TIP3   OH271821   6.026   2.992  12.583 -0.1164 -0.2193  0.3239
16777TIP3    H171822   5.981   3.076  12.595  0.3961  0.3525 -1.4183
16777TIP3    H271823   6.108   3.015  12.539 -0.7474 -1.7711 -1.8373
16778TIP3   OH271824   6.739   4.669   2.065 -0.2384 -0.1755 -0.2060
16778TIP3    H171825   6.794   4.602   2.106  0.4306  0.6948  0.3797
16778TIP3    H271826   6.801   4.722   2.013 -0.7545 -0.0351 -0.6857
16779TIP3   OH271827   4.536   5.748   2.957  0.0069  0.5616  0.2327
16779TIP3    H171828   4.628   5.731   2.979 -0.5604 -0.9694  1.5731
16779TIP3    H271829   4.512   5.676   2.899  0.3708  2.4651 -2.5126
16780TIP3   OH271830   6.668   1.086  16.958 -0.7098 -0.2622 -0.0886
16780TIP3    H171831   6.710   1.171  16.966 -2.1710  0.5624 -0.8803
16780TIP3    H271832   6.738   1.023  16.977  1.2196  0.9970 -2.5203
16781TIP3   OH271833   1.799   0.374   5.865 -0.6466 -0.6239  0.5416
16781TIP3    H171834   1.744   0.352   5.789  0.3887  0.9338 -0.7259
16781TIP3    H271835   1.868   0.308   5.864 -0.4715 -0.4354 -0.0595
16782TIP3   OH271836   5.856   5.989   2.130 -0.2317  0.0177  1.1248
16782TIP3    H171837   5.950   5.980   2.116 -0.2045  1.2100  0.3762
16782TIP3    H271838   5.847   6.010   2.224  0.5454  2.7979  0.6825
16783TIP3   OH271839   5.492   3.002  12.223  0.4610 -0.4254 -0.4064
16783TIP3    H171840   5.577   2.964  12.245  1.0569  0.5181 -1.0161
16783TIP3    H271841   5.496   3.092  12.257  0.8358  0.5939 -2.9017
16784TIP3   OH271842   1.087   0.626  16.478  0.4843 -0.0503  0.0250
16784TIP3    H171843   1.054   0.556  16.533 -1.8917  1.5476  0.7708
16784TIP3    H271844   1.136   0.683  16.537  0.1530  0.2878 -0.0181
16785TIP3   OH271845   5.926   6.595   4.778  0.4065  0.1718 -0.2930
16785TIP3    H171846   5.932   6.641   4.694  0.8971  1.0584  0.2105
16785TIP3    H271847   5.994   6.528   4.775 -1.0333 -1.3327 -1.4820
16786TIP3   OH271848   4.571   0.267  12.805  0.3898  0.4334 -0.4347
16786TIP3    H171849   4.652   0.314  12.828  0.8545 -0.9742  1.0388
16786TIP3    H271850   4.515   0.278  12.883  0.4782 -1.3138 -0.0924
16787TIP3   OH271851   6.173   6.495   5.111 -0.4167  0.4529 -0.4356
16787TIP3    H171852   6.185   6.530   5.022  0.0818  0.0137 -0.5437
16787TIP3    H271853   6.195   6.568   5.168  1.5032  0.0945 -0.6477
16788TIP3   OH271854   4.614   1.417   3.692  0.8520 -0.3407  0.2997
16788TIP3    H171855   4.646   1.327   3.684 -0.9503 -0.9778 -0.1185
16788TIP3    H271856   4.645   1.461   3.613  1.2265 -0.7584  0.2129
16789TIP3   OH271857   4.092   6.173   0.426 -0.6807 -0.5937 -0.0527
16789TIP3    H171858   4.133   6.248   0.384 -0.3539 -0.8218 -0.1516
16789TIP3    H271859   4.050   6.208   0.504 -3.0917  0.2113 -1.6085
16790TIP3   OH271860   1.583   4.114   1.003  0.9555  0.0938 -0.6438
16790TIP3    H171861   1.622   4.028   1.022 -0.4620 -0.1290  1.6127
16790TIP3    H271862   1.489   4.101   1.016  0.6809  1.9251 -0.5641
16791TIP3   OH271863   1.452   4.566  11.382  0.5803  0.2732 -0.3822
16791TIP3    H171864   1.535   4.527  11.406  0.8253  0.1807 -1.3146
16791TIP3    H271865   1.454   4.570  11.286 -0.5526  0.1185 -0.4328
16792TIP3   OH271866   0.644   3.182   3.693  0.2861  0.0719 -0.0904
16792TIP3    H171867   0.685   3.206   3.610 -1.0576  0.6207 -0.6302
16792TIP3    H271868   0.551   3.205   3.681 -0.0807 -0.6163  1.2650
16793TIP3   OH271869   5.902   3.420  14.808  0.3062 -0.3915  0.1161
16793TIP3    H171870   5.818   3.388  14.776  0.5131 -0.7575 -0.0685
16793TIP3    H271871   5.925   3.359  14.879  0.6739 -0.6257 -0.1986
16794TIP3   OH271872   4.328   4.790  11.140  0.1004 -0.6010  1.0237
16794TIP3    H171873   4.299   4.734  11.067 -0.8055  0.6912  0.3599
16794TIP3    H271874   4.285   4.753  11.217  0.9866 -1.9230  0.9221
16795TIP3   OH271875   3.837   3.438   0.271 -0.4280  0.1422  0.3682
16795TIP3    H171876   3.875   3.350   0.265 -0.4557  0.2227 -2.3331
16795TIP3    H271877   3.757   3.433   0.218 -2.0295  1.0935  2.5318
16796TIP3   OH271878   4.533   3.981   3.106  0.4010 -0.2799 -0.4442
16796TIP3    H171879   4.568   3.892   3.105 -0.0523 -0.4709 -1.8737
16796TIP3    H271880   4.598   4.032   3.155  0.8838 -1.3031  0.0077
16797TIP3   OH271881   4.004   0.968   0.342 -0.3424  0.1854 -0.2850
16797TIP3    H171882   4.071   0.922   0.393 -0.1893  2.1575  1.4329
16797TIP3    H271883   4.029   1.060   0.347 -1.6096  0.6864 -2.0929
16798TIP3   OH271884   2.165   3.412   4.650  0.6786  0.3421 -0.0878
16798TIP3    H171885   2.182   3.427   4.557  0.0213  1.0093 -0.1047
16798TIP3    H271886   2.216   3.333   4.671  1.4062  0.6072 -0.8296
16799TIP3   OH271887   3.933   1.931  15.745  0.2747 -0.1467 -0.1636
16799TIP3    H171888   3.967   1.869  15.810  0.3638 -1.2676 -1.2566
16799TIP3    H271889   3.900   1.876  15.674  1.2842  1.0735 -1.6412
16800TIP3   OH271890   3.212   4.913   4.296 -0.2850 -0.3752  0.4555
16800TIP3    H171891   3.121   4.890   4.277 -0.4370 -0.7473  1.5236
16800TIP3    H271892   3.237   4.854   4.367  1.1981 -1.1327 -0.6323
16801TIP3   OH271893   2.328   1.111   4.944  0.3454  0.6348  0.7831
16801TIP3    H171894   2.339   1.098   5.038 -2.1070 -2.5797  0.7808
16801TIP3    H271895   2.399   1.060   4.904  0.8048  1.2097  0.8494
16802TIP3   OH271896   3.114   5.865   0.409  0.1689  0.5176  0.0799
16802TIP3    H171897   3.202   5.883   0.376 -0.3172  0.1064 -1.5291
16802TIP3    H271898   3.065   5.946   0.392  0.3069  0.8871  1.3268
16803TIP3   OH271899   3.244   1.375  12.464 -0.4020  0.3182 -0.4224
16803TIP3    H171900   3.225   1.464  12.496  2.6224  1.3395 -1.1706
16803TIP3    H271901   3.328   1.353  12.503  0.0926 -1.2006 -2.2314
16804TIP3   OH271902   1.059   0.163   5.291  0.4986  0.3612  0.0432
16804TIP3    H171903   1.122   0.131   5.356  0.3260  0.1288  0.0935
16804TIP3    H271904   1.086   0.121   5.210 -1.1754 -1.8379  0.5524
16805TIP3   OH271905   2.135   2.468   0.480 -0.5278  0.4164  0.3379
16805TIP3    H171906   2.184   2.516   0.414  0.9618 -1.3371  0.0962
16805TIP3    H271907   2.196   2.460   0.554 -0.6917 -1.1300  0.3353
16806TIP3   OH271908   1.742   4.564   3.202 -0.4634 -0.3893 -0.1233
16806TIP3    H171909   1.652   4.569   3.168  0.0036  0.6841 -1.2727
16806TIP3    H271910   1.788   4.507   3.140 -0.2960 -0.7958  0.3673
16807TIP3   OH271911   1.894   4.133  16.228 -0.2289  0.4436 -0.7872
16807TIP3    H171912   1.820   4.186  16.253 -0.2293 -0.6167  1.7884
16807TIP3    H271913   1.968   4.194  16.225 -0.3858  0.7950  1.2368
16808TIP3   OH271914   4.951   4.568  11.649 -0.0389 -0.3696 -0.0265
16808TIP3    H171915   4.992   4.574  11.563  0.0887  0.4465  0.0801
16808TIP3    H271916   4.960   4.476  11.674  1.4942 -0.2748 -0.1269
16809TIP3   OH271917   3.479   2.849  13.397  1.1628  0.0081  0.3543
16809TIP3    H171918   3.498   2.771  13.345  1.8318  1.2200 -1.3021
16809TIP3    H271919   3.400   2.826  13.446  0.5816 -1.2556 -1.0943
16810TIP3   OH271920   6.704   1.019  16.059  0.3752  0.2328 -0.7943
16810TIP3    H171921   6.766   0.948  16.077  0.9129  0.4974 -1.5525
16810TIP3    H271922   6.629   0.975  16.019 -0.8554 -0.3705  1.9526
16811TIP3   OH271923   0.091   4.701  15.950 -0.4628  0.0520  0.7283
16811TIP3    H171924   0.075   4.684  15.857  1.6644 -0.9912  0.5046
16811TIP3    H271925   0.139   4.625  15.981  0.3027  1.1121  2.2930
16812TIP3   OH271926   1.809   4.174   0.536 -0.2715 -0.0179  0.1439
16812TIP3    H171927   1.747   4.181   0.464 -1.9550  0.5046  1.5594
16812TIP3    H271928   1.756   4.190   0.615  1.5511 -0.1694  1.4711
16813TIP3   OH271929   6.170   1.562   4.675 -0.1712  0.3975  0.1617
16813TIP3    H171930   6.147   1.586   4.765 -1.5250 -0.9151  0.2133
16813TIP3    H271931   6.241   1.621   4.652  1.1819 -0.1593  2.5682
16814TIP3   OH271932   6.420   3.797   4.672  0.1807  0.3468 -0.1571
16814TIP3    H171933   6.339   3.745   4.668  0.4882 -0.0667 -1.5514
16814TIP3    H271934   6.412   3.860   4.601  2.5625 -2.0073 -2.7342
16815TIP3   OH271935   3.747   3.835   3.621 -0.1738 -0.5046 -0.3275
16815TIP3    H171936   3.737   3.742   3.602  1.5199 -0.9574  0.7425
16815TIP3    H271937   3.782   3.837   3.710 -2.0782  1.2592  0.4446
16816TIP3   OH271938   3.138   2.771   2.353  0.0630 -0.1489  0.1881
16816TIP3    H171939   3.120   2.708   2.422  0.9631 -2.4328 -1.5308
16816TIP3    H271940   3.217   2.817   2.382  0.5899 -1.2709  0.5722
16817TIP3   OH271941   3.182   1.067   3.838 -0.1208 -0.0560  0.0048
16817TIP3    H171942   3.202   0.987   3.790  0.0729 -0.9705  1.5408
16817TIP3    H271943   3.190   1.043   3.930  0.5674  1.8969  0.5155
16818TIP3   OH271944   6.467   0.497   6.024  0.1348 -0.2278 -0.3366
16818TIP3    H171945   6.506   0.529   6.106 -0.7119 -1.2296  0.4806
16818TIP3    H271946   6.542   0.471   5.971  0.6536 -1.9330  1.1302
16819TIP3   OH271947   3.770   3.924   0.841 -0.0413 -0.6350  0.2542
16819TIP3    H171948   3.842   3.964   0.891 -1.0906 -0.9090  2.0812
16819TIP3    H271949   3.767   3.975   0.760  1.9654 -0.3940  0.2617
16820TIP3   OH271950   6.174   4.941   4.269 -0.4428  0.4481 -0.0673
16820TIP3    H171951   6.239   5.003   4.235 -0.7627  0.9709  0.2604
16820TIP3    H271952   6.156   4.972   4.357 -1.1132  0.2836 -0.1432
16821TIP3   OH271953   6.330   5.815  13.801 -0.1550 -0.1888  0.5848
16821TIP3    H171954   6.397   5.865  13.754  1.2229  0.5338  3.1472
16821TIP3    H271955   6.370   5.795  13.886 -3.1898  0.4077  2.3031
16822TIP3   OH271956   5.764   4.210   6.036 -0.2146  0.1362  0.1284
16822TIP3    H171957   5.788   4.162   6.114 -0.2854  0.2204  0.2029
16822TIP3    H271958   5.668   4.212   6.038 -0.2012  0.7438  0.4127
16823TIP3   OH271959   5.511   2.564  16.215  0.0003  0.1459  0.7311
16823TIP3    H171960   5.547   2.506  16.282 -0.6474 -0.5922  0.4542
16823TIP3    H271961   5.494   2.646  16.261 -1.0697 -0.5618  1.6534
16824TIP3   OH271962   0.749   3.730   1.513  0.3197  0.3356  0.2687
16824TIP3    H171963   0.661   3.765   1.506 -0.4544 -1.6148 -0.5247
16824TIP3    H271964   0.807   3.804   1.494 -1.1840  1.2322 -1.0336
16825TIP3   OH271965   6.573   2.021  16.478 -0.9202  0.2991  0.5816
16825TIP3    H171966   6.661   2.057  16.470 -1.1960  0.5445 -2.4281
16825TIP3    H271967   6.566   1.957  16.407 -2.8217 -0.5274  1.4260
16826TIP3   OH271968   1.674   1.414  12.087  0.8084  0.1382  0.3164
16826TIP3    H171969   1.590   1.378  12.114 -0.2217  1.3237 -1.0895
16826TIP3    H271970   1.727   1.414  12.166 -1.4150  1.7821  1.9587
16827TIP3   OH271971   5.887   1.898   3.228  0.4438 -0.4417 -0.3590
16827TIP3    H171972   5.873   1.992   3.223  0.4664 -0.4550 -0.7533
16827TIP3    H271973   5.981   1.889   3.245  0.4842 -0.3928 -0.5460
16828TIP3   OH271974   3.788   3.773  12.677 -0.2132  0.1244  0.7578
16828TIP3    H171975   3.730   3.834  12.722 -0.2174  1.1494 -0.5817
16828TIP3    H271976   3.818   3.820  12.599  2.1987 -0.4681  1.2231
16829TIP3   OH271977   4.126   1.794   2.274 -0.2924 -0.4067 -0.0902
16829TIP3    H171978   4.036   1.787   2.305 -0.2744  1.4093  0.4984
16829TIP3    H271979   4.132   1.883   2.238  0.2498 -1.6807 -3.5429
16830TIP3   OH271980   0.820   0.443   4.693  0.0680 -0.1916 -0.2081
16830TIP3    H171981   0.729   0.442   4.666  0.2597 -1.7173 -0.8822
16830TIP3    H271982   0.822   0.501   4.769 -1.4401 -0.0932 -0.2165
16831TIP3   OH271983   1.915   1.848  10.899 -0.8558  0.5561 -0.0298
16831TIP3    H171984   1.959   1.765  10.881 -0.4013  0.9669 -0.8627
16831TIP3    H271985   1.852   1.828  10.968 -0.5147 -0.4051  0.0054
16832TIP3   OH271986   1.430   6.637   3.867  0.7809 -0.1569 -0.4074
16832TIP3    H171987   1.410   6.713   3.812 -0.1779  0.0695  0.2133
16832TIP3    H271988   1.356   6.633   3.929  1.7282 -0.5024  0.7392
16833TIP3   OH271989   3.212   2.070   3.291  0.0293  0.3266  0.3179
16833TIP3    H171990   3.269   2.058   3.367  0.6864  1.8781  0.1212
16833TIP3    H271991   3.244   2.007   3.226 -0.6053 -1.0857  1.3253
16834TIP3   OH271992   4.262   3.964   3.158 -0.1669  0.0893 -0.0211
16834TIP3    H171993   4.357   3.970   3.161 -0.1395  0.1967 -1.0363
16834TIP3    H271994   4.240   3.909   3.234  0.7468 -0.4734 -0.1460
16835TIP3   OH271995   3.011   6.436   2.489  0.4427  0.5583  0.0720
16835TIP3    H171996   2.919   6.458   2.503  0.6287  0.4560  1.7246
16835TIP3    H271997   3.013   6.385   2.408 -1.2805 -1.4817  1.2397
16836TIP3   OH271998   0.379   0.386  11.509 -0.3071  0.1487 -0.4979
16836TIP3    H171999   0.345   0.368  11.597  0.2655  0.7196 -0.1489
16836TIP3    H272000   0.307   0.364  11.451 -0.6416 -0.3898  0.1028
16837TIP3   OH272001   5.002   1.370  13.560 -0.1850  0.4122 -0.0823
16837TIP3    H172002   4.961   1.379  13.474  0.0938 -0.1546 -0.2745
16837TIP3    H272003   5.027   1.459  13.584  0.1553  0.5142 -0.7915
16838TIP3   OH272004   4.972   0.661   1.047  0.4358  0.0904 -0.1748
16838TIP3    H172005   4.943   0.570   1.057 -0.3924  0.2195 -1.1622
16838TIP3    H272006   5.068   0.656   1.045  0.4227 -1.2062 -3.4943
16839TIP3   OH272007   0.997   4.422  12.663  0.1989 -0.7739  0.2914
16839TIP3    H172008   1.010   4.497  12.721  0.2863  0.1265 -0.8569
16839TIP3    H272009   0.914   4.439  12.620 -0.6220 -2.1950  1.2243
16840TIP3   OH272010   6.289   6.337  13.342 -0.0576  0.4559 -0.2743
16840TIP3    H172011   6.338   6.283  13.280 -0.1438  1.3165 -1.1112
16840TIP3    H272012   6.348   6.408  13.365 -0.5510  0.9505 -0.5161
16841TIP3   OH272013   0.732   1.727   2.113 -0.1169 -0.6337 -0.0759
16841TIP3    H172014   0.688   1.644   2.093 -1.7550  0.3192 -0.5851
16841TIP3    H272015   0.823   1.702   2.129 -0.9572 -2.8481  1.9901
16842TIP3   OH272016   3.316   3.230   0.209  0.6417  0.2379  0.4373
16842TIP3    H172017   3.326   3.315   0.167 -1.2411 -0.0921 -0.8303
16842TIP3    H272018   3.304   3.250   0.302 -1.0841  1.5070 -0.0018
16843TIP3   OH272019   4.436   2.753   5.472  0.0534 -0.6696  0.0263
16843TIP3    H172020   4.503   2.760   5.540 -0.6837  1.0534  0.6373
16843TIP3    H272021   4.483   2.769   5.390  0.3427  0.9913  0.4872
16844TIP3   OH272022   6.698   4.590  14.886 -0.2116 -0.0680 -0.1393
16844TIP3    H172023   6.707   4.676  14.927 -0.7334  1.2112 -2.5702
16844TIP3    H272024   6.785   4.551  14.893  0.5879  1.5237 -0.7721
16845TIP3   OH272025   2.656   3.387  17.103 -0.4834  0.4785  0.2834
16845TIP3    H172026   2.584   3.341  17.059 -1.0453  0.0488  1.5903
16845TIP3    H272027   2.621   3.475  17.119  0.3470  1.2041 -1.6123
16846TIP3   OH272028   3.911   3.034  13.560  0.7645 -0.1370  0.3775
16846TIP3    H172029   3.830   3.085  13.566  1.3365  0.6729  1.7370
16846TIP3    H272030   3.890   2.963  13.500  0.2422  2.2291 -2.5106
16847TIP3   OH272031   6.320   2.878  16.861  0.2233  0.6178 -0.8869
16847TIP3    H172032   6.349   2.890  16.771 -0.0500  0.4565 -0.9962
16847TIP3    H272033   6.245   2.937  16.870  0.1471  0.5101 -0.8142
16848TIP3   OH272034   2.977   5.371   1.687 -0.4780 -0.2278  0.2662
16848TIP3    H172035   2.964   5.464   1.705 -1.2089 -0.4553  0.9869
16848TIP3    H272036   2.889   5.338   1.666  0.1225 -0.2599 -2.5768
16849TIP3   OH272037   1.163   2.263  15.503 -0.1836  0.5198 -0.1937
16849TIP3    H172038   1.146   2.226  15.416 -0.6547 -0.3434  0.2491
16849TIP3    H272039   1.216   2.196  15.547  0.0138  0.9291  0.1954
16850TIP3   OH272040   2.479   1.690   0.348  0.1464  0.3464 -0.1107
16850TIP3    H172041   2.428   1.638   0.285 -0.7418  1.4083 -0.3227
16850TIP3    H272042   2.513   1.626   0.410  0.6014 -0.6779 -1.3649
16851TIP3   OH272043   2.987   1.665  12.675  0.1103 -0.0988  0.1342
16851TIP3    H172044   3.021   1.647  12.588 -3.3528 -1.5209 -1.1193
16851TIP3    H272045   2.941   1.749  12.666  0.1578  0.0007  0.7598
16852TIP3   OH272046   0.972   1.399   3.665 -0.0031  0.4382  0.1057
16852TIP3    H172047   0.938   1.310   3.677 -0.2896  0.5311 -0.0027
16852TIP3    H272048   0.925   1.452   3.729 -0.0247  0.5585 -0.0087
16853TIP3   OH272049   1.743   1.640  12.972 -0.2640  0.4012  0.4868
16853TIP3    H172050   1.780   1.609  12.890 -0.8971 -1.2155  0.7854
16853TIP3    H272051   1.817   1.679  13.019  0.3691  0.1281 -0.2717
16854TIP3   OH272052   1.580   6.155  15.308  0.1779 -0.0525  0.3420
16854TIP3    H172053   1.656   6.207  15.336 -1.9101  3.4523  0.0660
16854TIP3    H272054   1.608   6.113  15.227  2.5329 -0.8735  1.4860
16855TIP3   OH272055   3.073   2.262  11.910  0.3391  0.4883 -0.4840
16855TIP3    H172056   2.994   2.217  11.938  1.3648 -1.5771 -0.6981
16855TIP3    H272057   3.078   2.340  11.966 -0.6227 -0.5469  1.1170
16856TIP3   OH272058   0.968   3.883   1.585  0.0919 -0.2047 -0.2205
16856TIP3    H172059   0.970   3.859   1.678 -1.8039  0.3686  0.0042
16856TIP3    H272060   0.962   3.978   1.585  2.3498  0.0078 -1.0231
16857TIP3   OH272061   3.739   5.209  10.422  0.0644 -0.1928  0.0948
16857TIP3    H172062   3.689   5.134  10.453  0.5069 -0.6660 -0.3145
16857TIP3    H272063   3.807   5.171  10.366  0.4047  0.4980  0.0291
16858TIP3   OH272064   3.961   0.189   5.629  0.2397  0.7662 -0.3424
16858TIP3    H172065   3.998   0.270   5.594  2.4420 -0.5783 -1.3232
16858TIP3    H272066   3.990   0.121   5.568 -2.0212 -0.7263  0.1260
16859TIP3   OH272067   3.171   1.548   1.890 -0.4117  0.1756  0.4275
16859TIP3    H172068   3.105   1.507   1.945  0.6090 -0.8644  0.9211
16859TIP3    H272069   3.141   1.532   1.800 -1.2790  0.4977  0.6554
16860TIP3   OH272070   5.117   0.851   4.381 -0.0965  0.2698  0.5756
16860TIP3    H172071   5.185   0.903   4.424 -0.5744  0.6191  0.9258
16860TIP3    H272072   5.035   0.894   4.407 -0.4231  0.1579 -0.2470
16861TIP3   OH272073   3.921   2.278  15.833  0.0705 -0.3631 -0.3281
16861TIP3    H172074   3.840   2.254  15.879 -1.0090  1.1964 -1.2940
16861TIP3    H272075   3.940   2.367  15.864  0.6405 -0.1913 -1.1397
16862TIP3   OH272076   6.100   2.898  12.062 -0.3284 -0.2707 -0.2474
16862TIP3    H172077   6.136   2.810  12.078 -0.5112 -0.1586  0.8474
16862TIP3    H272078   6.170   2.958  12.088 -0.3319 -0.0794 -0.6682
16863TIP3   OH272079   0.416   5.329   0.939  0.2906 -0.0727  0.4384
16863TIP3    H172080   0.474   5.385   0.991  0.2980 -0.9200  1.3676
16863TIP3    H272081   0.474   5.263   0.901  0.2953  0.5849 -0.7397
16864TIP3   OH272082   6.439   6.273  12.072  0.2582  0.2075  0.3824
16864TIP3    H172083   6.371   6.317  12.022  0.9267  0.7662 -0.0514
16864TIP3    H272084   6.520   6.319  12.049  0.5239  0.8831  2.4331
16865TIP3   OH272085   5.766   2.773  15.627  0.0239 -0.4406  0.0806
16865TIP3    H172086   5.693   2.748  15.684 -0.7400 -0.0276 -0.6737
16865TIP3    H272087   5.820   2.831  15.680  0.3195 -1.4868  0.9548
16866TIP3   OH272088   5.567   3.555  14.063 -0.0985  0.4870 -0.0837
16866TIP3    H172089   5.540   3.474  14.106 -0.5673  1.0978  0.7829
16866TIP3    H272090   5.570   3.620  14.133  1.3089  0.9890 -0.5735
16867TIP3   OH272091   2.389   2.425   3.785 -0.2575  0.0413 -0.4201
16867TIP3    H172092   2.483   2.425   3.768 -0.2854  0.3012 -0.5845
16867TIP3    H272093   2.382   2.422   3.880 -0.1049 -2.2841 -0.4370
16868TIP3   OH272094   4.931   2.293   3.333  0.5331 -1.0279 -0.2009
16868TIP3    H172095   4.965   2.382   3.321  0.7675 -1.1574 -0.5232
16868TIP3    H272096   5.009   2.240   3.347  0.2700 -0.7874  2.8088
16869TIP3   OH272097   3.865   0.289  13.740 -0.2722 -0.1331  0.4126
16869TIP3    H172098   3.949   0.321  13.707 -0.0659 -1.0190  0.0626
16869TIP3    H272099   3.801   0.315  13.674  0.0673 -1.4570 -0.4790
16870TIP3   OH272100   6.651   3.085   5.750 -0.2178 -0.2245 -0.0902
16870TIP3    H172101   6.617   3.038   5.826 -1.5131  0.7699 -0.0250
16870TIP3    H272102   6.573   3.110   5.700  0.5357  0.3589 -1.0185
16871TIP3   OH272103   5.660   4.423  17.159 -0.2446  0.4150  0.3062
16871TIP3    H172104   5.596   4.494  17.152  0.2246  0.7950 -0.2557
16871TIP3    H272105   5.660   4.381  17.073 -0.0776  0.1225  0.4462
16872TIP3   OH272106   2.880   1.418  15.490  0.2902 -0.4410 -0.1393
16872TIP3    H172107   2.942   1.491  15.488  1.0053 -0.9931  0.7306
16872TIP3    H272108   2.929   1.347  15.532 -0.4365 -1.3730 -0.8203
16873TIP3   OH272109   5.547   3.566  13.470 -0.0048 -0.0565 -0.1839
16873TIP3    H172110   5.581   3.654  13.483  0.7285 -0.6860  2.7760
16873TIP3    H272111   5.624   3.510  13.467 -0.4724 -0.6879 -1.7649
16874TIP3   OH272112   5.217   6.044  14.977 -0.1077  0.0602  0.8959
16874TIP3    H172113   5.139   5.994  15.000 -0.4050  0.8054  1.5770
16874TIP3    H272114   5.274   6.035  15.053 -0.4777  1.3354  1.3540
16875TIP3   OH272115   3.518   6.531  12.714  0.0789 -0.1287 -0.7282
16875TIP3    H172116   3.495   6.494  12.628 -0.4640 -0.9650 -0.2316
16875TIP3    H272117   3.605   6.496  12.732 -1.2171 -3.0142  0.6791
16876TIP3   OH272118   0.222   3.571   1.185  0.1620  0.5260  0.0167
16876TIP3    H172119   0.167   3.524   1.247  2.0230  0.8066  2.0222
16876TIP3    H272120   0.163   3.599   1.116 -1.6501 -1.5582  0.6155
16877TIP3   OH272121   2.626   0.554  16.357  0.2869  0.3064 -0.6726
16877TIP3    H172122   2.631   0.471  16.405  1.2371  1.4286  1.3169
16877TIP3    H272123   2.559   0.604  16.404  0.3179  0.9757 -1.3312
16878TIP3   OH272124   2.641   2.396   3.654 -0.3384  0.4528 -0.0871
16878TIP3    H172125   2.723   2.388   3.702 -0.8335 -0.5416  0.6195
16878TIP3    H272126   2.629   2.311   3.612 -2.1757 -0.3020  1.7712
16879TIP3   OH272127   3.347   6.519  13.108 -0.0762 -0.1432  0.6168
16879TIP3    H172128   3.358   6.480  13.194  0.1236  2.3335  1.8101
16879TIP3    H272129   3.378   6.609  13.118 -1.5504  0.7128 -1.6189
16880TIP3   OH272130   5.784   6.837  12.896  0.2399 -0.1275 -0.0728
16880TIP3    H172131   5.787   6.804  12.986  1.5639  0.3217  0.0654
16880TIP3    H272132   5.835   6.773  12.846 -0.4819 -0.3666 -0.5090
16881TIP3   OH272133   0.226   1.031  16.692 -0.1466 -0.0585  0.3476
16881TIP3    H172134   0.209   1.125  16.680 -0.1368 -0.0178  0.6452
16881TIP3    H272135   0.149   0.999  16.740  0.9938  0.3052  2.5266
16882TIP3   OH272136   2.609   0.497  13.308  0.4482 -0.8852  0.3181
16882TIP3    H172137   2.611   0.412  13.264 -0.7843 -0.1754 -1.2213
16882TIP3    H272138   2.694   0.536  13.287  0.7653 -1.4724  0.4860
16883TIP3   OH272139   4.512   0.203   0.713 -0.0064 -0.5862  0.0297
16883TIP3    H172140   4.578   0.266   0.745  0.6666  0.4453 -3.0931
16883TIP3    H272141   4.470   0.247   0.640 -1.3724 -2.8301 -0.6311
16884TIP3   OH272142   5.090   1.188   4.484 -0.6719 -0.1163  0.2592
16884TIP3    H172143   5.182   1.171   4.504 -0.5779  0.1339  0.0446
16884TIP3    H272144   5.084   1.283   4.480 -0.5356 -0.1476 -1.5598
16885TIP3   OH272145   5.249   4.443  15.543 -0.4745 -0.2918 -0.2807
16885TIP3    H172146   5.195   4.516  15.575  0.5647  0.1806  0.4804
16885TIP3    H272147   5.210   4.365  15.582  0.0151  0.1521  1.1961
16886TIP3   OH272148   4.504   1.889  15.389 -0.4923  0.1420  0.0821
16886TIP3    H172149   4.485   1.840  15.469 -0.6870  0.9751  0.5559
16886TIP3    H272150   4.442   1.856  15.325 -0.0849 -0.8044  0.1606
16887TIP3   OH272151   1.071   3.461   3.133  0.1908  0.8960 -0.1582
16887TIP3    H172152   1.142   3.400   3.151  1.3862  1.3383 -2.8547
16887TIP3    H272153   1.009   3.412   3.079 -0.1772  1.3183 -0.1281
16888TIP3   OH272154   0.325   1.699  16.031 -0.0666 -0.3187 -0.2227
16888TIP3    H172155   0.407   1.669  15.990 -0.9194  0.2215 -2.4483
16888TIP3    H272156   0.266   1.624  16.023  0.1029 -0.6225  1.1585
16889TIP3   OH272157   3.089   5.595  13.820 -0.3074  0.4261 -0.4034
16889TIP3    H172158   3.142   5.555  13.889 -0.5006  1.8839  0.6418
16889TIP3    H272159   3.131   5.567  13.739 -1.0258 -2.6571  0.1627
16890TIP3   OH272160   1.403   0.686  10.521 -0.0767 -0.5998 -0.5712
16890TIP3    H172161   1.423   0.638  10.441 -1.6940 -2.2822 -0.0237
16890TIP3    H272162   1.345   0.757  10.493 -0.3919 -0.9949 -0.9205
16891TIP3   OH272163   3.287   2.013  14.024 -0.0126 -0.1216  0.2496
16891TIP3    H172164   3.284   2.067  13.945 -2.4536 -2.0614 -1.0963
16891TIP3    H272165   3.232   2.060  14.087  0.7906  0.6953  0.3844
16892TIP3   OH272166   3.216   2.723  13.457 -0.1950 -0.6388  0.0228
16892TIP3    H172167   3.175   2.694  13.538  1.2518  1.0551  1.4299
16892TIP3    H272168   3.218   2.645  13.402 -0.5688 -2.0038  1.8597
16893TIP3   OH272169   0.171   4.124   4.647 -0.1316  0.2051  0.5125
16893TIP3    H172170   0.106   4.145   4.714 -0.7206  1.2728 -0.3488
16893TIP3    H272171   0.244   4.184   4.665  0.0065  0.0074  0.6146
16894TIP3   OH272172   3.973   1.239  12.868 -0.2834  0.6962 -0.3788
16894TIP3    H172173   4.019   1.177  12.924 -1.0032 -0.1913 -0.7579
16894TIP3    H272174   4.033   1.314  12.861  0.4907  0.1482  0.2624
16895TIP3   OH272175   1.982   1.382  11.474  0.2344 -0.8721  0.3233
16895TIP3    H172176   2.065   1.352  11.511 -0.0011  0.1838  1.8037
16895TIP3    H272177   1.969   1.468  11.513 -0.5456 -0.1120 -1.5154
16896TIP3   OH272178   0.794   6.834   5.142 -0.0169  0.4886  0.0408
16896TIP3    H172179   0.793   6.929   5.130  0.3555  0.5767  0.6848
16896TIP3    H272180   0.702   6.808   5.135 -0.6947  1.4013  3.6667
16897TIP3   OH272181   2.132   1.790  13.421 -0.4187  0.0309 -0.1125
16897TIP3    H172182   2.196   1.840  13.472 -1.0406 -0.2217  0.9259
16897TIP3    H272183   2.129   1.704  13.462 -3.0171  0.7000  1.2727
16898TIP3   OH272184   0.333   4.287  15.081 -0.2905  0.2191  0.2734
16898TIP3    H172185   0.393   4.231  15.130 -0.8363  0.9278  1.8178
16898TIP3    H272186   0.390   4.347  15.034  0.2880 -1.2600 -1.0167
16899TIP3   OH272187   3.305   2.750   2.070  0.3385 -0.6906  0.2004
16899TIP3    H172188   3.346   2.776   1.988  0.9435 -1.4330  0.2634
16899TIP3    H272189   3.279   2.833   2.111 -1.0871 -0.3381 -1.2792
16900TIP3   OH272190   2.055   6.163  13.423  0.4680 -0.1269 -0.2204
16900TIP3    H172191   2.105   6.084  13.406  0.0726 -0.6052  0.8159
16900TIP3    H272192   2.114   6.219  13.473  0.5271 -0.0209 -0.4070
16901TIP3   OH272193   0.516   1.081   1.602 -0.0085  0.4453 -0.2145
16901TIP3    H172194   0.452   1.043   1.662 -0.7356  0.6130 -0.8650
16901TIP3    H272195   0.470   1.155   1.562 -0.1384 -0.6611 -2.2201
16902TIP3   OH272196   2.246   3.716  16.061  0.5678  0.8052  0.1813
16902TIP3    H172197   2.238   3.761  16.145  1.3706  0.9403  0.1920
16902TIP3    H272198   2.156   3.709  16.029  0.3646  1.8591  0.4733
16903TIP3   OH272199   5.251   5.025   3.271  0.2304  0.2184 -0.0791
16903TIP3    H172200   5.221   4.998   3.184 -0.1149 -0.1665  0.1543
16903TIP3    H272201   5.342   4.997   3.275  0.1629 -0.0216 -0.2082
16904TIP3   OH272202   3.770   3.757  11.409 -0.0397 -0.1488  0.7549
16904TIP3    H172203   3.769   3.838  11.460 -1.2584  0.3179  0.0246
16904TIP3    H272204   3.854   3.760  11.363 -0.1653  0.8077  0.5686
16905TIP3   OH272205   4.412   6.451   2.656  0.1577 -0.1096 -0.2194
16905TIP3    H172206   4.318   6.463   2.650 -0.0140 -0.7010  0.9103
16905TIP3    H272207   4.441   6.517   2.719  0.2785 -0.8311  0.4945
16906TIP3   OH272208   5.611   3.024   5.068 -0.1273 -0.1883  0.1800
16906TIP3    H172209   5.676   3.004   5.136  0.5647  0.3250 -0.3255
16906TIP3    H272210   5.662   3.033   4.988 -0.8141  0.3114 -0.2094
16907TIP3   OH272211   1.922   1.255   1.995 -0.2236  0.1012  0.1298
16907TIP3    H172212   1.852   1.297   1.946  1.0560  0.0386 -1.8924
16907TIP3    H272213   1.930   1.168   1.956  1.7547  0.5419 -0.5690
16908TIP3   OH272214   2.357   1.333   4.359 -0.0880 -0.5257  0.0711
16908TIP3    H172215   2.353   1.315   4.265  0.0618 -0.9010  0.1340
16908TIP3    H272216   2.316   1.419   4.369  0.7385 -0.0555 -0.4610
16909TIP3   OH272217   0.951   3.264  16.349  0.3715 -0.3264 -0.4014
16909TIP3    H172218   0.934   3.296  16.260 -1.4172  1.3233  0.4778
16909TIP3    H272219   1.014   3.193  16.336  0.1347 -0.1823 -2.9883
16910TIP3   OH272220   3.732   5.414  13.053 -0.4846 -0.5523 -0.3246
16910TIP3    H172221   3.824   5.409  13.026 -0.1861 -1.5118  0.7664
16910TIP3    H272222   3.682   5.412  12.971  0.4173 -2.1104 -0.8775
16911TIP3   OH272223   5.524   1.365   1.371 -0.1222 -0.3543  0.0962
16911TIP3    H172224   5.593   1.316   1.327 -0.2072 -0.7292  0.3729
16911TIP3    H272225   5.509   1.317   1.452 -0.3827 -0.0089  0.2537
16912TIP3   OH272226   1.734   6.099   5.433  0.2574 -0.4493 -0.8610
16912TIP3    H172227   1.764   6.170   5.376  0.5754 -0.2042 -0.3896
16912TIP3    H272228   1.640   6.094   5.416 -0.1592  1.4127  0.5340
16913TIP3   OH272229   3.433   0.291   3.573  0.2651  0.0439  0.0761
16913TIP3    H172230   3.362   0.304   3.509 -0.6568 -1.8895  0.6035
16913TIP3    H272231   3.462   0.379   3.596 -3.0027  1.0472  0.9320
16914TIP3   OH272232   3.306   1.895   1.988 -0.1093 -0.1470 -0.4848
16914TIP3    H172233   3.374   1.962   1.974  0.4977 -0.4363  0.8504
16914TIP3    H272234   3.239   1.940   2.040 -0.3308 -0.2172 -0.7095
16915TIP3   OH272235   0.894   0.872   3.806 -0.3096 -0.5471  0.5225
16915TIP3    H172236   0.848   0.829   3.879 -1.0048 -1.6086 -0.5066
16915TIP3    H272237   0.936   0.800   3.759  0.2021  0.1374 -0.0714
16916TIP3   OH272238   3.562   1.469  14.024 -0.3620 -0.3227 -0.5302
16916TIP3    H172239   3.522   1.523  13.956 -0.6619  2.3981  1.6148
16916TIP3    H272240   3.492   1.451  14.086 -0.2070 -3.1360 -1.0608
16917TIP3   OH272241   4.145   4.199  12.171 -0.2625  0.1894  0.1728
16917TIP3    H172242   4.095   4.273  12.203  1.4293  0.7316  1.7237
16917TIP3    H272243   4.236   4.219  12.194  0.2453 -2.4163  0.8322
16918TIP3   OH272244   0.945   5.859   1.027  0.4165  0.3964 -0.2130
16918TIP3    H172245   0.984   5.872   0.941 -0.0885  0.1209 -0.4869
16918TIP3    H272246   1.020   5.846   1.086  0.7774  0.9141 -0.5488
16919TIP3   OH272247   2.204   5.533   5.492  0.1333 -0.2702 -0.7390
16919TIP3    H172248   2.161   5.590   5.428 -1.0733 -0.3920 -0.0811
16919TIP3    H272249   2.185   5.445   5.461  1.9600 -0.3427 -1.7318
16920TIP3   OH272250   0.514   5.590   4.328  0.2529 -0.1275  0.2734
16920TIP3    H172251   0.516   5.614   4.235  0.1842  1.0397  0.5569
16920TIP3    H272252   0.565   5.510   4.333  1.5202  0.5910 -0.5543
16921TIP3   OH272253   4.282   4.765  13.000  0.9040 -0.4736  0.2860
16921TIP3    H172254   4.220   4.703  12.962 -0.7460  1.6411 -0.7172
16921TIP3    H272255   4.258   4.772  13.092  0.9517 -1.1170  0.3493
16922TIP3   OH272256   3.275   6.127  13.960 -0.3791 -0.2697  0.6353
16922TIP3    H172257   3.338   6.185  13.917 -0.2869  0.0933  1.2429
16922TIP3    H272258   3.190   6.163  13.936 -0.3164  0.2902  1.2383
16923TIP3   OH272259   1.243   3.184  12.778  0.3555  0.3205 -0.5261
16923TIP3    H172260   1.234   3.259  12.837 -0.0942 -0.4317  0.3861
16923TIP3    H272261   1.158   3.178  12.733  0.1168 -0.1048 -0.0265
16924TIP3   OH272262   4.240   1.649  14.699  0.3742  0.0964 -0.5342
16924TIP3    H172263   4.212   1.740  14.709  0.4634  0.1143 -0.4391
16924TIP3    H272264   4.233   1.632  14.605 -0.3712 -0.0410 -0.4548
16925TIP3   OH272265   0.480   5.420  10.893 -0.8303 -0.6545 -0.6461
16925TIP3    H172266   0.423   5.428  10.816  0.0357 -2.5780 -1.5326
16925TIP3    H272267   0.473   5.506  10.935 -0.5650  0.8430 -3.4029
16926TIP3   OH272268   2.932   3.583   0.451 -0.1274  0.1407 -0.4635
16926TIP3    H172269   3.000   3.650   0.457 -0.7958  0.8304 -0.4175
16926TIP3    H272270   2.938   3.535   0.535  0.3341  0.1519 -0.4873
16927TIP3   OH272271   6.118   2.533  11.043  0.8554 -0.2720 -0.2070
16927TIP3    H172272   6.113   2.610  10.985  1.7986 -0.3986 -0.4758
16927TIP3    H272273   6.071   2.559  11.122  1.2203  0.6172 -0.2685
16928TIP3   OH272274   5.796   5.093   1.352  0.0039  0.4464 -0.2944
16928TIP3    H172275   5.812   5.168   1.409 -1.3139  0.6466 -0.1542
16928TIP3    H272276   5.735   5.039   1.401  2.0763 -1.5421  0.2761
16929TIP3   OH272277   1.243   6.312   2.639 -0.0153  0.3524 -0.1315
16929TIP3    H172278   1.237   6.231   2.589  2.0323  0.5039 -0.7194
16929TIP3    H272279   1.158   6.355   2.627 -0.5750 -0.9670 -1.0770
16930TIP3   OH272280   2.778   6.363  14.316 -0.0384 -0.1649  0.2662
16930TIP3    H172281   2.838   6.339  14.245  0.7367  0.3014  0.7420
16930TIP3    H272282   2.826   6.340  14.396 -0.5700  0.0565  0.6521
16931TIP3   OH272283   0.140   0.111  11.526 -0.2146 -0.5904  0.6497
16931TIP3    H172284   0.219   0.088  11.575  0.4702 -2.3026 -1.1030
16931TIP3    H272285   0.165   0.100  11.434 -1.4101  2.6047 -0.1668
16932TIP3   OH272286   1.817   2.396  13.397 -0.7393  0.3394 -0.1944
16932TIP3    H172287   1.880   2.376  13.328 -0.0111 -1.2002  0.8539
16932TIP3    H272288   1.748   2.445  13.353  0.6263  1.0954 -1.6112
16933TIP3   OH272289   2.139   2.585   2.393 -0.5006 -0.2766  0.5335
16933TIP3    H172290   2.083   2.615   2.465  1.8160 -1.8727  3.2088
16933TIP3    H272291   2.105   2.498   2.371 -0.1044 -0.5499  0.9919
16934TIP3   OH272292   2.106   0.745  16.200  0.7287  0.0798  0.2446
16934TIP3    H172293   2.080   0.837  16.198  0.0774 -0.0275  2.0764
16934TIP3    H272294   2.184   0.740  16.145  1.2248  1.8815  0.7416
16935TIP3   OH272295   1.147   6.298   5.405 -0.0015 -0.6608  0.2272
16935TIP3    H172296   1.115   6.388   5.397  0.7491 -0.4981 -1.1790
16935TIP3    H272297   1.100   6.263   5.481  1.2414  1.5847  2.1877
16936TIP3   OH272298   4.437   4.128   4.726 -0.0045  0.4828  0.6219
16936TIP3    H172299   4.394   4.160   4.646  1.1787  2.2678  0.6423
16936TIP3    H272300   4.424   4.198   4.790  1.5972  0.4029  1.0799
16937TIP3   OH272301   5.893   0.600  16.735  0.3028  0.3227 -0.1191
16937TIP3    H172302   5.938   0.661  16.676  0.8536 -1.7572 -2.0035
16937TIP3    H272303   5.964   0.554  16.781  0.0313 -0.7579 -0.7397
16938TIP3   OH272304   3.271   4.994  12.248 -0.5398 -0.3825  0.3874
16938TIP3    H172305   3.183   4.979  12.283 -0.8331  1.0251  0.3041
16938TIP3    H272306   3.257   5.026  12.159  0.0922 -0.8477  0.1082
16939TIP3   OH272307   4.972   2.824   5.629 -0.4869  0.1465 -0.7842
16939TIP3    H172308   4.922   2.784   5.558 -1.0159  0.4589 -0.5915
16939TIP3    H272309   4.971   2.758   5.699  1.4919 -0.8892 -1.6511
16940TIP3   OH272310   3.307   1.320   2.107  0.4708 -0.2429  0.1816
16940TIP3    H172311   3.283   1.406   2.139 -0.8951 -1.1698  1.7790
16940TIP3    H272312   3.402   1.325   2.093  0.1509  2.1610 -1.9948
16941TIP3   OH272313   4.344   6.339   4.233  0.2338  0.3595 -0.2562
16941TIP3    H172314   4.310   6.368   4.148  1.8625  1.6074 -0.5327
16941TIP3    H272315   4.294   6.391   4.297 -0.2031  0.2537 -0.5043
16942TIP3   OH272316   4.462   6.534   3.990 -0.4645 -0.1015  0.2573
16942TIP3    H172317   4.382   6.482   3.979 -1.8534  2.0612 -0.3479
16942TIP3    H272318   4.488   6.519   4.081 -1.6116 -0.7528  0.4931
16943TIP3   OH272319   0.491   2.141  15.777  0.3323 -0.5366 -0.6072
16943TIP3    H172320   0.480   2.097  15.862  1.8737  0.0292 -0.0875
16943TIP3    H272321   0.402   2.161  15.750 -0.1565  0.9705  1.7996
16944TIP3   OH272322   3.589   1.208  11.060  0.3536 -0.5381  0.5991
16944TIP3    H172323   3.566   1.292  11.099  0.6884 -0.2944  0.2703
16944TIP3    H272324   3.680   1.217  11.033 -0.1976 -0.2841 -1.3384
16945TIP3   OH272325   5.844   4.698   2.714  0.5036 -0.1748 -0.5224
16945TIP3    H172326   5.771   4.638   2.700 -0.1000  0.2172  0.7962
16945TIP3    H272327   5.813   4.782   2.679  0.3772 -0.0529 -0.1275
16946TIP3   OH272328   2.439   6.184   4.301  0.3933 -0.0578 -0.2206
16946TIP3    H172329   2.514   6.184   4.241  0.1048  1.0808 -0.6068
16946TIP3    H272330   2.445   6.100   4.346  0.3502 -1.1611 -2.1693
16947TIP3   OH272331   1.949   4.933   0.957 -0.3377  0.2009  0.2493
16947TIP3    H172332   1.859   4.952   0.985 -0.4600  0.0856 -0.0597
16947TIP3    H272333   1.940   4.858   0.898  0.0037 -0.0595  0.5241
16948TIP3   OH272334   0.394   4.395   5.225  0.5311 -0.9110 -0.2204
16948TIP3    H172335   0.473   4.382   5.278  1.2383 -0.8627 -1.2396
16948TIP3    H272336   0.325   4.414   5.289  0.8214 -3.2071  0.8938
16949TIP3   OH272337   1.716   3.780  11.124  0.3816 -0.3695 -0.7009
16949TIP3    H172338   1.686   3.838  11.194  1.6316  0.8532 -1.1436
16949TIP3    H272339   1.703   3.692  11.159  0.4950  0.2093  0.8742
16950TIP3   OH272340   6.047   2.778   5.810  0.2362 -0.5388  0.5847
16950TIP3    H172341   6.141   2.762   5.797  0.5414  0.3165  1.6060
16950TIP3    H272342   6.008   2.759   5.725  1.4994  0.1894 -0.1991
16951TIP3   OH272343   2.894   0.669  12.499  0.3050  0.0172  0.2684
16951TIP3    H172344   2.834   0.714  12.558 -0.0738 -2.0029  1.5559
16951TIP3    H272345   2.869   0.577  12.505  0.3966 -0.3404 -2.9414
16952TIP3   OH272346   2.417   2.075  14.002  0.0825  0.7595  0.1905
16952TIP3    H172347   2.381   2.163  14.003  1.0230  1.1640  1.3176
16952TIP3    H272348   2.430   2.053  14.094  2.0887  0.4235 -0.1133
16953TIP3   OH272349   5.180   4.503   5.233 -0.1042 -0.5021 -0.6567
16953TIP3    H172350   5.113   4.440   5.206 -1.8930  0.4001  1.4219
16953TIP3    H272351   5.166   4.578   5.175 -0.7160 -0.4326 -0.4247
16954TIP3   OH272352   1.938   0.865  15.951  0.1896  0.1053  0.4068
16954TIP3    H172353   1.893   0.792  15.992 -0.2872  0.6896  0.9567
16954TIP3    H272354   2.021   0.830  15.920  0.6162 -0.3183  1.9855
16955TIP3   OH272355   1.701   6.568  15.926 -0.5474 -0.4015  0.0686
16955TIP3    H172356   1.772   6.582  15.988 -0.5624  1.8070 -0.3303
16955TIP3    H272357   1.743   6.574  15.840 -1.1293  0.5071 -0.1637
16956TIP3   OH272358   5.798   5.111   5.194 -0.3643 -0.3870 -0.0574
16956TIP3    H172359   5.758   5.098   5.281 -1.3822  1.9145 -0.0819
16956TIP3    H272360   5.742   5.177   5.153  3.4260  3.2546 -0.0834
16957TIP3   OH272361   2.358   5.501   3.134 -0.1368 -0.2138 -0.0444
16957TIP3    H172362   2.324   5.498   3.224  0.7242  0.1500  0.3077
16957TIP3    H272363   2.287   5.467   3.080 -0.2434 -1.5877  0.8978
16958TIP3   OH272364   1.721   4.252  16.752  0.0698  0.2008  0.0074
16958TIP3    H172365   1.806   4.236  16.713  0.0905 -0.9087  0.4424
16958TIP3    H272366   1.660   4.201  16.699 -0.1419  0.0256  0.4121
16959TIP3   OH272367   6.232   6.428  11.160  0.1300  0.2691  0.5223
16959TIP3    H172368   6.197   6.510  11.126 -1.0574  1.1142  3.4605
16959TIP3    H272369   6.157   6.368  11.160  1.0935 -1.0433 -2.0277
16960TIP3   OH272370   3.144   6.055   4.395  0.1784  0.3479 -0.2261
16960TIP3    H172371   3.114   6.138   4.433  0.9777  0.6483 -0.2253
16960TIP3    H272372   3.065   6.002   4.389 -0.3171  1.0440 -0.0578
16961TIP3   OH272373   0.034   2.560   3.418  0.2029  0.0136  0.3440
16961TIP3    H172374   0.048   2.486   3.358  2.0368  0.9735 -0.5129
16961TIP3    H272375   0.112   2.560   3.473 -0.0386  0.9741  0.6945
16962TIP3   OH272376   3.568   4.574  13.724 -1.1288 -0.6237  0.0532
16962TIP3    H172377   3.511   4.584  13.647 -1.0019  0.5302  0.0897
16962TIP3    H272378   3.517   4.519  13.784 -1.9529 -0.1298 -0.1699
16963TIP3   OH272379   5.519   5.421   5.569  0.3545 -0.1494  0.9065
16963TIP3    H172380   5.471   5.407   5.651  0.4720 -1.2362  0.8067
16963TIP3    H272381   5.487   5.351   5.511  0.3757  0.5274  0.0712
16964TIP3   OH272382   1.099   5.476   5.111 -0.7400  0.8554  0.1757
16964TIP3    H172383   1.139   5.483   5.198 -0.3254  1.1313 -0.0334
16964TIP3    H272384   1.079   5.383   5.102 -3.0207  1.1400  1.5460
16965TIP3   OH272385   2.496   6.061  10.287  0.0046 -0.0217 -0.0952
16965TIP3    H172386   2.435   6.126  10.322  0.2375  1.2324 -1.9312
16965TIP3    H272387   2.582   6.102  10.295  0.4358 -1.0430  0.7892
16966TIP3   OH272388   0.289   2.690  15.429 -0.0405  0.5444 -0.3253
16966TIP3    H172389   0.345   2.616  15.403  0.3850  0.5429  0.5691
16966TIP3    H272390   0.201   2.654  15.429  0.3057 -0.4012  1.5497
16967TIP3   OH272391   2.154   3.089   5.125 -0.2214  0.3419  0.9061
16967TIP3    H172392   2.122   3.083   5.035  0.2258  0.4072  0.7381
16967TIP3    H272393   2.249   3.096   5.116 -0.1034 -0.4173  1.4123
16968TIP3   OH272394   3.768   0.770  13.392  0.1084 -0.2288 -0.0874
16968TIP3    H172395   3.768   0.771  13.297  0.5504 -2.0094 -0.1437
16968TIP3    H272396   3.854   0.804  13.417  0.3138 -0.5434 -0.3582
16969TIP3   OH272397   1.450   3.929   3.876 -0.1594 -0.3016 -0.1833
16969TIP3    H172398   1.406   3.995   3.928  0.7579  0.6733 -0.6072
16969TIP3    H272399   1.439   3.848   3.926 -0.6342  0.3102  0.7307
16970TIP3   OH272400   0.728   1.782  12.124 -0.3289 -0.2928 -0.2345
16970TIP3    H172401   0.779   1.828  12.190 -0.4044  0.1923 -0.5031
16970TIP3    H272402   0.642   1.825  12.127 -0.5719 -0.7869 -0.1092
16971TIP3   OH272403   1.279   5.722   5.979 -0.2615 -0.2387  0.0691
16971TIP3    H172404   1.320   5.796   6.023  0.9499 -0.3019 -0.9098
16971TIP3    H272405   1.209   5.695   6.038 -1.3378  2.2358  0.0408
16972TIP3   OH272406   3.578   1.685   5.566  0.1306  0.6171 -0.0185
16972TIP3    H172407   3.583   1.681   5.662  0.8759  3.0159  0.0870
16972TIP3    H272408   3.580   1.778   5.545  1.8288  0.1265 -2.4675
16973TIP3   OH272409   0.894   1.294   0.876 -0.1056 -0.0427  0.8317
16973TIP3    H172410   0.972   1.259   0.917 -0.4554 -0.3696  1.2221
16973TIP3    H272411   0.865   1.364   0.934 -0.4135 -0.2866  0.9750
16974TIP3   OH272412   2.035   3.545  12.709 -0.4638 -0.0307 -0.1294
16974TIP3    H172413   1.946   3.575  12.693  0.0675  0.9569 -1.3910
16974TIP3    H272414   2.084   3.624  12.730  1.1982  0.3966 -4.5217
16975TIP3   OH272415   0.940   2.844   0.581  0.1517  0.2237  0.3480
16975TIP3    H172416   0.999   2.813   0.513 -1.4399  1.2265 -1.5912
16975TIP3    H272417   0.974   2.930   0.606  0.5747 -0.0248  0.6430
16976TIP3   OH272418   1.562   0.467   0.160 -0.3675 -0.1329 -0.3352
16976TIP3    H172419   1.550   0.375   0.137 -0.5257 -0.2693  0.2788
16976TIP3    H272420   1.487   0.488   0.215  0.2791  0.0358  0.5007
16977TIP3   OH272421   4.566   5.299   2.049  0.2967 -0.0524 -0.4549
16977TIP3    H172422   4.544   5.295   2.142 -2.1273  0.1572 -0.9694
16977TIP3    H272423   4.561   5.392   2.027 -0.8549 -0.2729 -1.1612
16978TIP3   OH272424   4.590   3.324  11.671 -0.0220 -0.0534 -0.1237
16978TIP3    H172425   4.637   3.394  11.626 -1.6387  1.3315  0.2465
16978TIP3    H272426   4.656   3.285  11.729  1.4397 -0.2520 -1.8343
16979TIP3   OH272427   5.261   6.730   6.195 -0.7413 -0.3778  0.4941
16979TIP3    H172428   5.343   6.681   6.187  0.2106  1.3108 -0.9286
16979TIP3    H272429   5.230   6.739   6.105 -1.0486  1.3205  0.7478
16980TIP3   OH272430   2.281   0.527   1.850 -0.2139  0.5082 -0.5142
16980TIP3    H172431   2.248   0.459   1.908 -0.3146  0.4448 -0.6435
16980TIP3    H272432   2.308   0.598   1.908  0.3563  0.1634 -0.3488
16981TIP3   OH272433   3.424   0.696   0.402  0.4932  0.3113 -0.7140
16981TIP3    H172434   3.386   0.766   0.347  1.6367  0.8481 -0.8560
16981TIP3    H272435   3.362   0.686   0.474 -1.3665 -0.8229 -2.3672
16982TIP3   OH272436   5.211   3.238  13.121 -0.4912 -0.0787  0.7319
16982TIP3    H172437   5.196   3.210  13.031 -2.3420 -0.3545  1.0751
16982TIP3    H272438   5.131   3.285  13.145  0.1141  0.3047  2.1150
16983TIP3   OH272439   0.706   5.996   4.881  0.1901  0.2289 -0.3986
16983TIP3    H172440   0.719   6.003   4.786 -0.2650  2.3298 -0.3434
16983TIP3    H272441   0.794   5.979   4.916  0.3138 -0.8805 -1.2037
16984TIP3   OH272442   6.702   1.696  15.921  0.1366 -0.2494 -0.3550
16984TIP3    H172443   6.673   1.631  15.986 -4.1688  2.5444  0.9794
16984TIP3    H272444   6.642   1.684  15.847 -0.7303  2.0129 -0.0988
16985TIP3   OH272445   5.738   0.526   4.874 -0.1784  0.3475  0.2426
16985TIP3    H172446   5.807   0.492   4.817 -0.3939  0.1826  0.0792
16985TIP3    H272447   5.722   0.615   4.842  0.2175  0.5246  0.5188
16986TIP3   OH272448   1.414   0.367   4.363 -0.4281 -0.0629 -0.0721
16986TIP3    H172449   1.391   0.429   4.294 -0.2726 -1.7241 -1.6927
16986TIP3    H272450   1.504   0.342   4.344 -0.5508 -0.9358  0.4175
16987TIP3   OH272451   1.005   1.786   3.251 -0.2150 -0.8315  0.2078
16987TIP3    H172452   0.932   1.725   3.264 -0.0574 -1.2631 -0.8448
16987TIP3    H272453   1.005   1.840   3.329 -2.0940 -0.3891 -0.0566
16988TIP3   OH272454   4.232   1.323  12.857 -0.4116 -0.3147  0.0551
16988TIP3    H172455   4.229   1.293  12.766  1.2825  2.1283 -0.9201
16988TIP3    H272456   4.296   1.266  12.899 -0.0148 -0.4621 -0.7291
16989TIP3   OH272457   1.537   0.023  12.528  0.2114  0.3353  0.1613
16989TIP3    H172458   1.522   0.096  12.589 -0.2590 -1.5388  2.4745
16989TIP3    H272459   1.459  -0.031  12.537  1.3097 -1.3584 -0.0974
16990TIP3   OH272460   1.728   6.553  13.568 -0.1337  0.2817  0.9151
16990TIP3    H172461   1.798   6.573  13.630  0.9755 -0.2094 -0.1383
16990TIP3    H272462   1.759   6.476  13.521 -0.3188  1.4001 -1.1515
16991TIP3   OH272463   2.595   4.695   1.440  0.7001 -0.3380 -0.1036
16991TIP3    H172464   2.514   4.684   1.490  0.7484  0.8911  0.2914
16991TIP3    H272465   2.575   4.661   1.353  0.2600 -1.4770  0.4203
16992TIP3   OH272466   4.357   5.499  16.854 -0.4029  0.4213 -0.3291
16992TIP3    H172467   4.377   5.589  16.831 -2.1265  1.4242  1.7678
16992TIP3    H272468   4.413   5.480  16.929  0.2781 -0.4482 -1.0311
16993TIP3   OH272469   5.454   0.263  16.372 -0.0410  0.2203  0.0075
16993TIP3    H172470   5.390   0.260  16.301  2.1455  1.6043 -2.1613
16993TIP3    H272471   5.482   0.172  16.383  0.3026  0.0941 -1.6666
16994TIP3   OH272472   5.955   5.987  13.787  0.6060  0.8784  0.3827
16994TIP3    H172473   5.860   5.976  13.791  0.3118  3.1515  0.9339
16994TIP3    H272474   5.987   5.946  13.867 -0.2307  2.4238  1.5607
16995TIP3   OH272475   5.013   1.279   2.933  0.0401  0.4247  0.3428
16995TIP3    H172476   4.969   1.344   2.988  1.6963  1.9100 -0.0009
16995TIP3    H272477   5.000   1.309   2.844 -2.4518 -1.8706 -0.2046
16996TIP3   OH272478   0.857   3.369  12.197 -0.3900 -0.1856 -0.3491
16996TIP3    H172479   0.807   3.361  12.278 -0.7473  2.2193 -0.2464
16996TIP3    H272480   0.791   3.384  12.129  0.0394  0.5453 -0.6166
16997TIP3   OH272481   4.120   6.103  13.099  0.1756  0.2516  0.7827
16997TIP3    H172482   4.094   6.040  13.166  0.1705 -1.4490 -0.7343
16997TIP3    H272483   4.215   6.107  13.106  0.1402  0.4022  1.1728
16998TIP3   OH272484   1.083   4.954   2.568 -0.1618 -0.1545  0.0763
16998TIP3    H172485   1.152   4.907   2.615  2.0237  2.5113 -0.2225
16998TIP3    H272486   1.086   4.918   2.479 -1.4469 -2.2728  0.8196
16999TIP3   OH272487   4.051   1.962   2.638  0.1444  0.4229  0.1940
16999TIP3    H172488   4.128   1.919   2.676 -0.4675  0.8935  2.0326
16999TIP3    H272489   3.980   1.944   2.698 -0.7885  1.5454 -0.5175
17000TIP3   OH272490   1.019   5.916   2.653  1.6270 -0.1289  0.1568
17000TIP3    H172491   1.111   5.927   2.629  1.4234  1.8178  0.1378
17000TIP3    H272492   0.971   5.929   2.572  1.2684  0.4575  0.4498
17001TIP3   OH272493   3.563   6.284   1.525  0.1916 -0.6995 -0.4616
17001TIP3    H172494   3.595   6.363   1.480  0.7186 -0.2145  0.7193
17001TIP3    H272495   3.638   6.224   1.524  0.5398 -0.3008  0.6257
17002TIP3   OH272496   1.915   5.078  15.460  0.2491 -0.7878 -0.0544
17002TIP3    H172497   1.991   5.021  15.451 -0.1387 -1.5769  1.3663
17002TIP3    H272498   1.843   5.028  15.421 -0.2835 -1.7391  2.0357
17003TIP3   OH272499   2.212   4.955  14.908 -0.3319  0.2112 -0.4833
17003TIP3    H172500   2.256   5.035  14.878 -1.2243  0.4286 -1.2561
17003TIP3    H272501   2.133   4.986  14.952 -0.3601 -0.2239 -0.2187
17004TIP3   OH272502   0.328   5.093   0.271 -0.0971  0.4206  0.0002
17004TIP3    H172503   0.276   5.153   0.219 -1.0617  1.2456  1.8223
17004TIP3    H272504   0.318   5.008   0.228 -1.6526  0.8802 -0.6035
17005TIP3   OH272505   0.623   6.573   5.185  0.6737  0.1918 -0.1609
17005TIP3    H172506   0.661   6.487   5.167  1.7230  0.7244 -0.6014
17005TIP3    H272507   0.549   6.579   5.124 -1.7256 -1.8146  2.3113
17006TIP3   OH272508   0.515   1.748   6.296  0.1392 -0.2413 -0.8514
17006TIP3    H172509   0.435   1.724   6.343 -0.2456 -0.2064 -1.4857
17006TIP3    H272510   0.585   1.705   6.345 -0.3187 -0.7572 -0.6413
17007TIP3   OH272511   0.444   5.276   5.807 -0.0343  0.3751  0.2011
17007TIP3    H172512   0.521   5.220   5.801  0.2357  0.7899 -0.2972
17007TIP3    H272513   0.433   5.293   5.901  0.0595 -0.2550  0.3270
17008TIP3   OH272514   2.124   3.198  14.122  0.1582 -0.4279  0.1597
17008TIP3    H172515   2.100   3.201  14.029  0.7124  0.2403  0.0298
17008TIP3    H272516   2.041   3.201  14.168 -0.1872 -1.8674 -0.3173
17009TIP3   OH272517   6.617   0.193   0.417  0.4777 -0.3911  0.0051
17009TIP3    H172518   6.643   0.265   0.475  0.2788 -0.6825  0.4537
17009TIP3    H272519   6.545   0.150   0.462  0.0018 -0.3249 -0.6834
17010TIP3   OH272520   0.115   4.282  16.977  0.4106 -0.0780 -0.0009
17010TIP3    H172521   0.209   4.295  16.988 -0.1050  1.4348  4.3695
17010TIP3    H272522   0.084   4.361  16.934  0.9297  0.1123 -0.0249
17011TIP3   OH272523   0.547   5.612  11.640  0.5890  0.0010  0.0914
17011TIP3    H172524   0.554   5.567  11.724 -1.9244  0.3086  0.5469
17011TIP3    H272525   0.507   5.696  11.662  0.4105  0.3134 -1.3548
17012TIP3   OH272526   0.954   2.414  14.106 -0.0097 -0.2239 -0.6356
17012TIP3    H172527   0.935   2.409  14.199  1.0555 -0.2058 -0.4078
17012TIP3    H272528   0.964   2.508  14.088 -0.1037 -0.2346 -0.7476
17013TIP3   OH272529   4.357   1.475   5.218  0.0781  0.5125  0.0618
17013TIP3    H172530   4.360   1.539   5.147  1.2866 -0.5748 -0.8975
17013TIP3    H272531   4.397   1.396   5.182 -1.0788 -0.7106  1.3189
17014TIP3   OH272532   6.216   3.243  13.727 -0.1094  0.4199 -0.4245
17014TIP3    H172533   6.220   3.339  13.727 -0.5841  0.4761  1.4888
17014TIP3    H272534   6.276   3.216  13.796  0.1636 -0.6871 -1.0739
17015TIP3   OH272535   1.453   3.823  16.102 -0.1291  0.0890  0.3982
17015TIP3    H172536   1.477   3.797  16.013 -1.5841  0.2453 -0.0728
17015TIP3    H272537   1.533   3.861  16.138  0.7590 -0.8646 -0.4913
17016TIP3   OH272538   3.684   3.469  16.795  0.2202  0.1593  0.3229
17016TIP3    H172539   3.724   3.506  16.717  2.3596 -2.0369  0.2717
17016TIP3    H272540   3.609   3.419  16.762  1.8118 -1.7832 -0.6110
17017TIP3   OH272541   4.702   6.050   4.839  0.0885  0.3481 -0.4834
17017TIP3    H172542   4.647   6.114   4.885  0.8341  0.3548  0.4226
17017TIP3    H272543   4.641   6.002   4.783 -0.6064  1.3418 -0.6116
17018TIP3   OH272544   1.281   3.440   1.009 -0.3270  0.4164 -0.2107
17018TIP3    H172545   1.355   3.471   0.957 -0.9878  1.2598 -0.6764
17018TIP3    H272546   1.306   3.458   1.100  0.1693  0.3939 -0.3403
17019TIP3   OH272547   4.905   6.491   6.346  0.0777  0.4046 -0.0662
17019TIP3    H172548   4.984   6.440   6.327 -0.8277 -0.2977 -2.2807
17019TIP3    H272549   4.935   6.582   6.351  1.3549 -0.0600  1.5566
17020TIP3   OH272550   6.005   6.298  12.846 -0.2891  0.0298  0.2191
17020TIP3    H172551   5.980   6.379  12.890  0.5447  0.4732 -0.0940
17020TIP3    H272552   6.098   6.310  12.826 -0.4098 -0.5694 -0.7548
17021TIP3   OH272553   0.388   4.324  15.444  0.2611 -0.5558 -0.3762
17021TIP3    H172554   0.399   4.419  15.438 -2.5545 -0.0853  0.3291
17021TIP3    H272555   0.426   4.291  15.363 -1.2707  1.5015 -2.0453
17022TIP3   OH272556   4.955   0.567   0.597 -0.1874 -0.3566 -0.1760
17022TIP3    H172557   5.033   0.620   0.614  0.4095 -1.2241 -0.1357
17022TIP3    H272558   4.946   0.513   0.676 -1.5106  0.5396  0.3155
17023TIP3   OH272559   0.023   0.779  15.232 -0.3618  0.3757 -0.2138
17023TIP3    H172560  -0.006   0.741  15.149 -2.1908  2.2409 -0.5154
17023TIP3    H272561  -0.027   0.734  15.299  0.4575 -0.5054 -0.1727
17024TIP3   OH272562   2.957   1.180  14.780  0.3854  0.8044  0.0947
17024TIP3    H172563   2.867   1.154  14.759  0.2811  1.1888  0.0675
17024TIP3    H272564   3.003   1.174  14.696  0.6475 -0.4245  0.2995
17025TIP3   OH272565   2.983   0.521   4.917 -0.0134 -0.4532  0.5074
17025TIP3    H172566   3.048   0.537   4.985 -0.5546  0.1299  0.9055
17025TIP3    H272567   2.994   0.594   4.856  2.3769 -2.4187 -1.6108
17026TIP3   OH272568   2.993   2.969   5.929 -0.1534  0.3493 -0.4553
17026TIP3    H172569   2.993   2.942   6.021 -2.5301 -0.1022 -0.5081
17026TIP3    H272570   3.018   3.061   5.931 -0.6258  0.4731  0.7153
17027TIP3   OH272571   5.114   0.482   5.274 -0.4524 -0.1213 -0.4073
17027TIP3    H172572   5.205   0.502   5.251 -0.4531  0.2075 -0.1246
17027TIP3    H272573   5.079   0.437   5.197 -0.1675  0.0969 -0.6644
17028TIP3   OH272574   3.232   4.140   6.105 -0.2859 -0.3758 -0.4515
17028TIP3    H172575   3.316   4.137   6.150  0.0980 -1.4209 -1.2153
17028TIP3    H272576   3.190   4.219   6.139 -0.0249 -1.1040  1.7462
17029TIP3   OH272577   2.851   5.394  15.432  0.1095  0.0138  0.3421
17029TIP3    H172578   2.802   5.411  15.512  0.4826  1.3895  0.3124
17029TIP3    H272579   2.935   5.438  15.445  0.9438 -1.3915 -0.0395
17030TIP3   OH272580   4.000   0.068   2.656  0.2233  0.3846  0.6549
17030TIP3    H172581   4.069   0.134   2.661 -0.0562  0.8322 -0.7983
17030TIP3    H272582   3.951   0.091   2.577 -1.8167  0.2653  1.8413
17031TIP3   OH272583   5.888   6.760  14.612 -0.2584  0.0355 -0.3079
17031TIP3    H172584   5.810   6.785  14.662 -1.6096 -0.6779 -1.9639
17031TIP3    H272585   5.856   6.748  14.523  1.4680 -1.6740 -0.7572
17032TIP3   OH272586   4.310   3.783   4.499  0.0900  0.0187  0.0901
17032TIP3    H172587   4.285   3.791   4.591 -0.8698 -1.5161 -0.0038
17032TIP3    H272588   4.255   3.846   4.453 -0.3374 -0.1041  0.4263
17033TIP3   OH272589   2.803   1.426   2.275  0.2028 -0.1168  0.2415
17033TIP3    H172590   2.835   1.510   2.306  0.3404 -0.2324  0.4178
17033TIP3    H272591   2.852   1.361   2.326  1.3195 -0.3468 -1.0385
17034TIP3   OH272592   4.705   3.042   5.505  0.7956  0.0723 -0.0955
17034TIP3    H172593   4.767   3.110   5.480  1.1748  0.4354  1.7137
17034TIP3    H272594   4.621   3.071   5.468  1.5001 -0.0644 -1.9330
17035TIP3   OH272595   5.664   4.332   2.076 -0.6190  0.1149 -0.2901
17035TIP3    H172596   5.721   4.345   2.001  1.4427 -1.7069  0.8560
17035TIP3    H272597   5.607   4.259   2.052 -0.6462  0.1943 -0.4624
17036TIP3   OH272598   5.134   6.497  13.744 -0.0580 -0.1792  0.0900
17036TIP3    H172599   5.104   6.548  13.818 -1.1610  0.1413 -0.5535
17036TIP3    H272600   5.055   6.477  13.694  0.5366 -1.1932 -0.5018
17037TIP3   OH272601   0.341   4.974   2.149 -0.3432 -0.2383 -0.9860
17037TIP3    H172602   0.293   5.041   2.100 -1.7997 -1.0260 -0.6935
17037TIP3    H272603   0.397   4.933   2.084 -0.9515 -0.0932 -1.6173
17038TIP3   OH272604   5.349   5.066  12.973  0.3060  0.5602 -0.1540
17038TIP3    H172605   5.409   5.081  13.046  1.6415  0.8762 -1.2900
17038TIP3    H272606   5.404   5.068  12.895 -0.7696 -1.6102 -1.0760
17039TIP3   OH272607   5.634   1.323   5.439 -0.2308  0.2860 -0.0665
17039TIP3    H172608   5.671   1.396   5.488  0.4628  0.6503 -1.0928
17039TIP3    H272609   5.583   1.364   5.370 -0.1112 -0.1929 -0.4454
17040TIP3   OH272610   2.807   5.496  11.496  0.0495  0.1189  0.0253
17040TIP3    H172611   2.764   5.418  11.462  0.2441  0.7579 -1.7769
17040TIP3    H272612   2.801   5.487  11.592 -0.3992 -1.8095 -0.1505
17041TIP3   OH272613   5.300   6.518  14.452  0.1438  0.6563 -0.1624
17041TIP3    H172614   5.394   6.538  14.448  0.1256  1.0703  0.9512
17041TIP3    H272615   5.294   6.425  14.434  0.9075  0.3791  0.8790
17042TIP3   OH272616   4.284   1.863  12.705  0.5637  0.0775  0.4813
17042TIP3    H172617   4.248   1.941  12.746  0.2324  0.2627 -0.1487
17042TIP3    H272618   4.245   1.790  12.753  0.9728  0.2953  1.1549
17043TIP3   OH272619   5.021   6.184  15.684  0.5207  0.5174  0.1689
17043TIP3    H172620   5.008   6.262  15.630  0.3758  0.8671  0.7039
17043TIP3    H272621   5.064   6.216  15.763 -1.6960  0.4774  1.4809
17044TIP3   OH272622   3.230   0.846  14.691 -0.2709  0.1608 -0.3183
17044TIP3    H172623   3.166   0.776  14.702 -1.1334  0.8242 -1.0130
17044TIP3    H272624   3.189   0.908  14.631  0.4986  1.2500  0.2341
17045TIP3   OH272625   4.136   6.801  15.844 -0.1739 -0.5817 -0.1413
17045TIP3    H172626   4.086   6.819  15.924 -1.5265  0.4436 -1.1681
17045TIP3    H272627   4.078   6.746  15.792 -0.3436  0.7557 -1.4245
17046TIP3   OH272628   3.708   6.830   2.091 -0.0121 -0.5673 -0.0915
17046TIP3    H172629   3.709   6.772   2.014 -0.3392  1.3296 -1.6007
17046TIP3    H272630   3.782   6.801   2.144 -0.1829 -2.3764 -0.7650
17047TIP3   OH272631   5.981   5.555   1.686  0.3300 -0.0208  0.6323
17047TIP3    H172632   6.059   5.499   1.687 -0.0962 -0.7758 -1.7580
17047TIP3    H272633   5.938   5.539   1.770  1.2117 -1.8474  0.7729
17048TIP3   OH272634   2.602   2.534   3.412 -0.2366 -0.4470 -0.1105
17048TIP3    H172635   2.686   2.514   3.370  0.5766  0.5793  0.9332
17048TIP3    H272636   2.606   2.487   3.496 -0.3612  0.2229  0.2786
17049TIP3   OH272637   5.951   4.244  16.479 -0.0834  0.7391 -0.3897
17049TIP3    H172638   6.019   4.235  16.546 -0.1775 -0.3810 -0.4260
17049TIP3    H272639   5.999   4.253  16.397  0.0306 -0.3331 -0.4485
17050TIP3   OH272640   4.257   5.618   5.895  0.0130 -0.1087  0.0846
17050TIP3    H172641   4.307   5.691   5.859  0.4647  0.9481  2.6114
17050TIP3    H272642   4.284   5.542   5.843  1.4123  1.0766 -1.0133
17051TIP3   OH272643   5.857   3.501  14.254  0.5191  0.4857 -0.0074
17051TIP3    H172644   5.844   3.461  14.168  1.6829  1.2606 -0.5691
17051TIP3    H272645   5.899   3.433  14.307 -1.4298 -0.4657  0.4155
17052TIP3   OH272646   5.277   5.453   3.107 -0.0735  0.1092  0.3948
17052TIP3    H172647   5.222   5.481   3.034  1.5609  1.3197 -0.4418
17052TIP3    H272648   5.284   5.358   3.097 -0.2669  0.2004 -0.7653
17053TIP3   OH272649   1.727   0.457  16.670 -0.1185  0.0279  0.2508
17053TIP3    H172650   1.761   0.389  16.611  1.0051 -1.2894  2.2827
17053TIP3    H272651   1.752   0.427  16.757  2.9636  4.3450  1.2261
17054TIP3   OH272652   1.978   5.727   6.038  0.1953 -0.3078 -0.6888
17054TIP3    H172653   1.976   5.820   6.061 -1.2585 -0.1083 -1.4762
17054TIP3    H272654   1.938   5.723   5.951  0.5673 -1.6381 -0.8238
17055TIP3   OH272655   6.118   0.414  15.300 -0.2568 -0.5743  0.0357
17055TIP3    H172656   6.203   0.370  15.305 -1.4056 -2.9452 -0.1044
17055TIP3    H272657   6.083   0.410  15.389 -0.6782 -0.5329 -0.1258
17056TIP3   OH272658   0.508   4.224   2.150  0.0222 -0.5455 -0.4704
17056TIP3    H172659   0.594   4.181   2.146 -0.3044 -1.2237 -0.4380
17056TIP3    H272660   0.464   4.198   2.069 -0.5257 -1.0328 -0.0245
17057TIP3   OH272661   0.088   1.627   6.023 -0.0226  0.1880  0.0181
17057TIP3    H172662   0.004   1.630   5.978 -0.5821 -0.3604  0.9992
17057TIP3    H272663   0.105   1.717   6.049 -0.9499  0.1112  0.9488
17058TIP3   OH272664   4.278   1.967   3.071  0.6177  0.0711  0.2198
17058TIP3    H172665   4.346   1.907   3.038  2.2801 -0.1879  3.6277
17058TIP3    H272666   4.313   2.054   3.055 -0.0469  0.0790 -1.3523
17059TIP3   OH272667   0.587   5.335  11.775 -0.6139  0.0073 -0.0113
17059TIP3    H172668   0.504   5.293  11.754 -1.5594  0.3751  2.6638
17059TIP3    H272669   0.642   5.265  11.810 -1.1029  0.3883  1.5752
17060TIP3   OH272670   2.037   0.368  15.431  0.1543 -0.9281  0.5612
17060TIP3    H172671   1.972   0.436  15.413  2.1028  0.9000 -0.0345
17060TIP3    H272672   2.086   0.360  15.349  1.2676 -1.5630  1.2618
17061TIP3   OH272673   4.481   3.896   1.595 -0.5502 -0.3789  0.4694
17061TIP3    H172674   4.422   3.970   1.580 -1.2920 -0.4536  2.6784
17061TIP3    H272675   4.424   3.826   1.628  0.3015 -1.5773 -0.5051
17062TIP3   OH272676   1.123   0.422  16.291 -0.8091 -0.7455  0.2738
17062TIP3    H172677   1.135   0.483  16.364  4.3307 -1.5472  0.5114
17062TIP3    H272678   1.118   0.336  16.331 -2.5697 -0.9249 -0.2583
17063TIP3   OH272679   0.525   0.106   3.797 -0.7271 -0.3270  0.3299
17063TIP3    H172680   0.577   0.187   3.798 -0.2612 -0.5519  3.0925
17063TIP3    H272681   0.435   0.135   3.813 -0.8097 -0.2548 -0.2463
17064TIP3   OH272682   2.791   5.262  12.480  0.5497  0.0609 -0.4686
17064TIP3    H172683   2.823   5.178  12.446 -1.9821 -0.9854 -0.4338
17064TIP3    H272684   2.836   5.273  12.564 -0.1672 -2.0467  0.2502
17065TIP3   OH272685   0.300   5.003   1.026 -0.3148  0.3819 -0.5620
17065TIP3    H172686   0.374   5.063   1.026 -1.0655  1.3762  1.0110
17065TIP3    H272687   0.306   4.956   1.109 -2.1080  1.4242  0.2301
17066TIP3   OH272688   4.192   1.096  16.034  0.2167 -0.5024  0.2563
17066TIP3    H172689   4.171   1.114  16.125 -2.1255 -4.0050  0.5733
17066TIP3    H272690   4.273   1.046  16.037 -1.4505 -3.3617  0.8523
17067TIP3   OH272691   2.954   5.243  14.600 -0.0991  0.4165 -0.1778
17067TIP3    H172692   2.903   5.306  14.651 -0.3025 -0.8189  1.2311
17067TIP3    H272693   2.978   5.175  14.663  1.4137 -0.1579 -1.3029
17068TIP3   OH272694   5.083   5.469   4.381  0.1224 -0.5371  0.6190
17068TIP3    H172695   5.059   5.542   4.324  0.6922  0.5406  1.7245
17068TIP3    H272696   4.999   5.438   4.416 -0.2371 -1.2384 -0.8037
17069TIP3   OH272697   1.131   3.804  13.413  0.3489  0.4735  0.6925
17069TIP3    H172698   1.142   3.852  13.331  0.2723  1.6371  1.3421
17069TIP3    H272699   1.062   3.741  13.395  0.4453  0.6073 -0.1854
17070TIP3   OH272700   3.408   3.648  15.015 -0.3986 -0.0552  0.3068
17070TIP3    H172701   3.442   3.561  15.036  0.3888  0.2908  0.5008
17070TIP3    H272702   3.340   3.664  15.080 -0.8924 -0.7206 -0.0299
17071TIP3   OH272703   3.714   0.431  13.068 -0.3299 -0.9176 -0.2877
17071TIP3    H172704   3.662   0.498  13.022 -1.6342 -1.5324  0.2251
17071TIP3    H272705   3.779   0.404  13.004  1.5114  2.1504  0.0847
17072TIP3   OH272706   5.878   1.998  12.969  0.1866 -0.6863  0.0583
17072TIP3    H172707   5.964   2.035  12.949 -0.6170  0.4870 -1.4462
17072TIP3    H272708   5.861   1.937  12.898 -0.8034  0.1632 -0.4695
17073TIP3   OH272709   5.746   1.001   4.319  0.6393 -0.3248  0.0196
17073TIP3    H172710   5.796   0.996   4.238  0.8520  0.7905  0.0590
17073TIP3    H272711   5.657   0.975   4.294  0.5860  0.4974 -0.6966
17074TIP3   OH272712   1.143   3.694   3.987 -0.2120  0.1185  0.2271
17074TIP3    H172713   1.143   3.735   4.073 -0.7716  1.7548 -0.5123
17074TIP3    H272714   1.085   3.748   3.934  0.8584 -0.2672 -1.4430
17075TIP3   OH272715   3.108   2.992   3.010  0.0151  0.0669  0.1493
17075TIP3    H172716   3.039   3.057   3.027 -0.3048 -0.1837 -0.1910
17075TIP3    H272717   3.070   2.932   2.947  0.7525  0.2609 -0.4952
17076TIP3   OH272718   4.062   4.412  13.319  0.0317  0.2464  0.0303
17076TIP3    H172719   4.097   4.327  13.345 -0.4980  0.7577  2.6266
17076TIP3    H272720   3.998   4.390  13.250  0.1460 -1.4182  0.3956
17077TIP3   OH272721   2.054   3.191   1.603  0.4250 -0.3846 -0.1991
17077TIP3    H172722   2.020   3.280   1.615 -2.7574 -1.6684  1.5585
17077TIP3    H272723   2.041   3.173   1.510 -0.9284  0.2942 -0.1687
17078TIP3   OH272724   3.270   6.112  14.492  0.2318  0.0367  0.7027
17078TIP3    H172725   3.243   6.204  14.492  2.5158  0.7682  0.3259
17078TIP3    H272726   3.346   6.109  14.434  0.1226 -2.1389  0.5894
17079TIP3   OH272727   0.321   4.266   0.948 -0.9723  0.5962 -0.0165
17079TIP3    H172728   0.405   4.305   0.925 -0.8513  0.6806  0.5413
17079TIP3    H272729   0.287   4.230   0.866  0.2770 -0.7106 -0.0096
17080TIP3   OH272730   1.371   5.528  17.044  0.1909 -0.5303 -0.0375
17080TIP3    H172731   1.340   5.525  17.135  0.5206  0.3831  0.1106
17080TIP3    H272732   1.298   5.491  16.994 -1.0966  1.3286  0.3310
17081TIP3   OH272733   5.624   5.528   1.316  0.5206 -0.1579  0.0971
17081TIP3    H172734   5.688   5.507   1.248  1.1188  0.7231  0.3676
17081TIP3    H272735   5.649   5.472   1.390  1.3406  0.5820  0.3945
17082TIP3   OH272736   2.745   1.594  13.591  0.0407  0.0595 -0.1648
17082TIP3    H172737   2.771   1.623  13.503 -0.7061 -0.3935 -0.5409
17082TIP3    H272738   2.656   1.627  13.601  0.3987  0.8078  0.7546
17083TIP3   OH272739   2.340   6.358   4.555 -0.8057  0.7249 -0.4367
17083TIP3    H172740   2.385   6.435   4.520 -1.3936  0.5843 -1.5422
17083TIP3    H272741   2.398   6.284   4.535 -0.6725  0.7673 -0.2064
17084TIP3   OH272742   2.016   4.120  15.700  0.1208  0.0378  0.1677
17084TIP3    H172743   2.085   4.061  15.728 -0.8009 -1.1686 -0.0197
17084TIP3    H272744   2.042   4.206  15.734  2.1403 -0.2016 -0.6491
17085TIP3   OH272745   4.567   0.924   4.895 -0.1154 -0.3671 -0.0685
17085TIP3    H172746   4.486   0.925   4.946  1.0618 -0.1231  1.8733
17085TIP3    H272747   4.637   0.921   4.960  1.5358  1.6314 -1.6099
17086TIP3   OH272748   3.820   4.043  11.831  0.4363  0.8766 -0.4602
17086TIP3    H172749   3.754   4.109  11.855 -0.7340 -0.6200  0.6366
17086TIP3    H272750   3.901   4.074  11.872 -0.5481  0.6482  1.8325
17087TIP3   OH272751   4.975   0.920  14.975 -0.3678  0.2675 -0.3638
17087TIP3    H172752   4.894   0.881  14.943  0.5148 -1.1421 -1.0161
17087TIP3    H272753   5.013   0.852  15.032  0.5769  0.6963 -0.4590
17088TIP3   OH272754   1.398   1.020  16.273  0.3817 -0.3552  0.3889
17088TIP3    H172755   1.464   1.032  16.341 -0.0423 -0.1804  0.7761
17088TIP3    H272756   1.437   0.957  16.212  1.6695  1.0937 -0.3801
17089TIP3   OH272757   5.296   3.190   0.074 -0.2730  0.7172  0.2702
17089TIP3    H172758   5.201   3.179   0.072 -0.1840 -0.0472 -0.0292
17089TIP3    H272759   5.312   3.265   0.016 -0.4772 -1.0045 -2.1707
17090TIP3   OH272760   4.580   3.690   4.517  0.1147  0.1601 -0.2832
17090TIP3    H172761   4.555   3.622   4.580  0.8362  1.1512  1.1241
17090TIP3    H272762   4.499   3.740   4.503  0.3290  1.0406  1.3200
17091TIP3   OH272763   4.283   1.460   0.500 -0.2061 -0.0981 -0.3653
17091TIP3    H172764   4.256   1.547   0.470 -1.5285  0.1753  1.4932
17091TIP3    H272765   4.232   1.399   0.446 -0.2459  0.2899 -0.7781
17092TIP3   OH272766   3.688   6.607  13.354  0.0051 -0.3627 -0.7281
17092TIP3    H172767   3.753   6.667  13.391 -1.8977  1.1262  0.3668
17092TIP3    H272768   3.713   6.598  13.262 -0.1268  2.9046 -1.1789
17093TIP3   OH272769   2.677   2.922   3.636  0.1032  0.1583 -0.1889
17093TIP3    H172770   2.630   2.840   3.648  0.5984 -0.1042 -0.0341
17093TIP3    H272771   2.716   2.941   3.721  0.6897  0.1152 -0.4407
17094TIP3   OH272772   5.848   1.882  12.703  0.1020 -0.4221 -0.1687
17094TIP3    H172773   5.857   1.811  12.639  1.5526 -0.8208  0.4418
17094TIP3    H272774   5.933   1.925  12.703 -0.0351 -0.1243  1.1273
17095TIP3   OH272775   1.690   1.979   2.115  0.4510  0.0525  0.1976
17095TIP3    H172776   1.597   1.979   2.135  0.0176  0.5263 -1.6160
17095TIP3    H272777   1.707   1.893   2.076  0.0678  0.9654 -2.1711
17096TIP3   OH272778   4.103   0.867   2.121 -0.2932 -0.6173 -0.6835
17096TIP3    H172779   4.096   0.831   2.032 -0.0622 -1.7612 -0.2562
17096TIP3    H272780   4.193   0.849   2.148  1.0708  3.5053 -1.7317
17097TIP3   OH272781   5.887   0.205  11.131  0.1037  0.6399  0.6806
17097TIP3    H172782   5.894   0.229  11.038  0.4744 -0.3655  0.4295
17097TIP3    H272783   5.823   0.133  11.131 -0.0895  0.8103  1.2466
17098TIP3   OH272784   4.868   1.779   5.169 -0.1938 -0.2700  0.2755
17098TIP3    H172785   4.920   1.819   5.099  0.6942  0.1610  1.1589
17098TIP3    H272786   4.830   1.701   5.129  1.3747 -0.7577 -0.3211
17099TIP3   OH272787   6.600   6.177   1.593  0.9315  0.1789 -0.1423
17099TIP3    H172788   6.580   6.270   1.605  0.9293 -0.0113  1.4115
17099TIP3    H272789   6.641   6.150   1.675 -1.2837 -1.7747  0.4055
17100TIP3   OH272790   1.431   3.135   0.988 -0.6842  0.3730  0.0106
17100TIP3    H172791   1.377   3.209   0.959  0.5047  2.0426  1.7896
17100TIP3    H272792   1.521   3.168   0.983 -0.1734 -0.6760  1.5452
17101TIP3   OH272793   0.115   6.417   2.196  0.4314 -0.6262 -0.0723
17101TIP3    H172794   0.202   6.431   2.232  0.1355 -1.8628  1.1970
17101TIP3    H272795   0.089   6.503   2.161  2.3618 -0.3746 -1.0046
17102TIP3   OH272796   4.713   6.661   5.999  0.3371  0.0074 -0.0071
17102TIP3    H172797   4.786   6.599   5.994 -0.2772 -0.7909  0.7258
17102TIP3    H272798   4.641   6.617   5.955 -0.4877 -0.3826  1.6627
17103TIP3   OH272799   1.562   5.314  11.621 -0.0243 -0.0705  0.0460
17103TIP3    H172800   1.548   5.398  11.576 -0.2432  0.3816  0.9267
17103TIP3    H272801   1.485   5.262  11.598 -0.1069  0.1317 -0.1437
17104TIP3   OH272802   2.962   6.409   4.525 -0.1433  0.3465 -0.0298
17104TIP3    H172803   3.027   6.375   4.464  0.7163 -0.3990  1.2357
17104TIP3    H272804   2.920   6.331   4.561 -1.1663  0.7991 -0.2177
17105TIP3   OH272805   0.949   2.383   1.358 -0.0337 -0.3192  0.3828
17105TIP3    H172806   0.972   2.472   1.334 -0.9375  0.0745  0.9154
17105TIP3    H272807   1.001   2.365   1.437  0.1204 -0.2467  0.2975
17106TIP3   OH272808   0.907   5.080   0.591  0.0731 -0.4962 -0.3477
17106TIP3    H172809   0.867   5.068   0.505 -3.2362  0.8267  0.8574
17106TIP3    H272810   0.949   5.166   0.586  0.2986 -0.6241 -0.7427
17107TIP3   OH272811   6.579   5.353   2.718 -0.0237  0.4515  0.4515
17107TIP3    H172812   6.645   5.415   2.685 -1.1956  1.3880 -0.2098
17107TIP3    H272813   6.543   5.395   2.796 -1.1266  0.8433 -0.2410
17108TIP3   OH272814   2.987   5.540   5.146  0.4186  0.4355  0.4408
17108TIP3    H172815   2.906   5.490   5.149  1.0289 -0.5199  1.3648
17108TIP3    H272816   3.048   5.485   5.096  1.4283 -0.3095  2.3756
17109TIP3   OH272817   3.368   6.277   2.587 -0.3849  0.3593  0.2088
17109TIP3    H172818   3.321   6.218   2.529 -2.9462  0.8907  1.5605
17109TIP3    H272819   3.419   6.333   2.529 -1.9836  0.1844 -1.4635
17110TIP3   OH272820   1.956   3.858   2.026 -0.3407 -0.5722  0.3319
17110TIP3    H172821   1.878   3.817   1.988 -0.6347 -0.0464  0.3548
17110TIP3    H272822   2.013   3.875   1.951 -0.4299 -0.5719  0.2637
17111TIP3   OH272823   0.857   5.908   3.182  0.1019 -0.3845 -0.0220
17111TIP3    H172824   0.899   5.905   3.096 -0.1746 -1.3222 -0.1400
17111TIP3    H272825   0.892   5.831   3.228  0.2583  0.1167  0.7147
17112TIP3   OH272826   5.054   6.283   4.347  0.3441 -0.2215 -0.6505
17112TIP3    H172827   4.971   6.330   4.356 -0.5623 -1.6657 -1.0548
17112TIP3    H272828   5.074   6.253   4.435  1.0322  1.0381 -0.3528
17113TIP3   OH272829   6.599   2.908   5.164  0.0496 -0.7913 -0.1127
17113TIP3    H172830   6.658   2.856   5.219 -0.9992 -1.1326  0.7408
17113TIP3    H272831   6.643   2.992   5.153 -0.3404 -0.1283  2.5786
17114TIP3   OH272832   0.442   2.244  15.452 -0.6920 -0.0459 -0.2318
17114TIP3    H172833   0.439   2.219  15.360 -0.9146  0.4041 -0.3476
17114TIP3    H272834   0.529   2.218  15.481 -0.2415  0.7431 -0.8402
17115TIP3   OH272835   5.343   0.388  14.989 -0.5130  0.2847  0.3572
17115TIP3    H172836   5.328   0.296  15.012 -0.4776  0.5148  1.3333
17115TIP3    H272837   5.436   0.393  14.969 -0.7830 -0.1870 -1.1837
17116TIP3   OH272838   3.863   4.967  11.588  0.0226  0.3144 -0.6554
17116TIP3    H172839   3.892   4.891  11.537  1.9078  0.3480  0.2524
17116TIP3    H272840   3.852   4.933  11.677  1.4360  1.1599 -0.1202
17117TIP3   OH272841   1.582   1.066   0.129 -0.3373 -0.1418 -0.0458
17117TIP3    H172842   1.573   1.092   0.037  1.2977 -0.9042 -0.4484
17117TIP3    H272843   1.525   1.127   0.177 -1.7406 -0.1473 -1.6074
17118TIP3   OH272844   6.390   0.815  15.006  0.6376  0.0789  0.3068
17118TIP3    H172845   6.358   0.834  15.094  2.2611  1.3722  0.6567
17118TIP3    H272846   6.403   0.720  15.005 -1.2337 -0.2157  0.7804
17119TIP3   OH272847   4.991   2.634  12.703  0.3033 -0.4248  0.0134
17119TIP3    H172848   4.949   2.714  12.672  1.3294 -0.3255 -1.2025
17119TIP3    H272849   5.013   2.586  12.623  1.8332 -0.7973  0.6265
17120TIP3   OH272850   5.514   0.651  12.616 -0.2238  0.2115 -0.0005
17120TIP3    H172851   5.545   0.636  12.526 -1.9170 -1.9800 -0.2969
17120TIP3    H272852   5.574   0.599  12.670  0.0110  0.4830  0.0003
17121TIP3   OH272853   4.273   3.056  17.019  0.1149 -0.0551 -0.3919
17121TIP3    H172854   4.341   3.083  16.957  1.7065 -0.8882  0.9413
17121TIP3    H272855   4.284   3.113  17.094 -1.7481  0.8790 -0.7644
17122TIP3   OH272856   6.638   3.319   6.065 -0.0909  0.1767  0.0940
17122TIP3    H172857   6.716   3.263   6.067 -0.4078 -0.2810 -0.1887
17122TIP3    H272858   6.634   3.356   6.153  0.3359  0.0513  0.1716
17123TIP3   OH272859   6.455   1.988   5.356  0.2333  0.4653 -0.1075
17123TIP3    H172860   6.528   2.043   5.383  0.3828 -0.3246  1.1393
17123TIP3    H272861   6.496   1.910   5.319  0.0160  0.5286 -0.4908
17124TIP3   OH272862   2.754   3.675   5.155  0.3271  0.3690 -0.4670
17124TIP3    H172863   2.713   3.656   5.071  0.2044  2.3614 -0.8980
17124TIP3    H272864   2.687   3.656   5.220 -0.1352  0.4082 -0.9285
17125TIP3   OH272865   3.671   2.654  16.762  0.3812 -0.1658 -0.9574
17125TIP3    H172866   3.611   2.589  16.726  2.6797 -1.5886 -2.4730
17125TIP3    H272867   3.635   2.676  16.847 -1.8911 -1.4469 -1.5249
17126TIP3   OH272868   2.770   3.204  12.262 -0.6547  0.0718 -0.1839
17126TIP3    H172869   2.785   3.278  12.203 -1.3268 -0.5134 -1.1242
17126TIP3    H272870   2.857   3.173  12.284 -0.3657  1.1087  0.1822
17127TIP3   OH272871   1.237   3.111   3.350 -0.0072 -0.7167  0.8106
17127TIP3    H172872   1.191   3.038   3.309  0.3922 -0.9538  0.7793
17127TIP3    H272873   1.168   3.164   3.389 -0.7172  0.9477 -2.3598
17128TIP3   OH272874   3.258   5.565   5.705  0.5176  0.1068 -0.5277
17128TIP3    H172875   3.323   5.631   5.679  1.8621 -1.2913 -0.8471
17128TIP3    H272876   3.310   5.489   5.732 -0.9905 -0.9650 -0.5134
17129TIP3   OH272877   2.707   0.490  15.563 -0.5388  0.2659  0.2164
17129TIP3    H172878   2.718   0.554  15.633 -0.7464 -0.9911  1.4388
17129TIP3    H272879   2.695   0.543  15.484  1.9891  1.7527  0.7077
17130TIP3   OH272880   2.924   6.766   4.661 -0.2952 -0.3589  0.1105
17130TIP3    H172881   2.894   6.815   4.584  1.3938 -2.0740 -1.8001
17130TIP3    H272882   2.960   6.832   4.720  0.0306  0.8898 -1.4127
17131TIP3   OH272883   4.691   3.026   1.901 -0.2394  0.0488  0.1244
17131TIP3    H172884   4.750   2.958   1.931  1.6168  0.1550 -2.8652
17131TIP3    H272885   4.734   3.063   1.823 -3.3417  1.4404 -1.1104
17132TIP3   OH272886   1.316   5.665   5.715 -0.1506  0.0333 -0.3418
17132TIP3    H172887   1.311   5.687   5.808 -0.5110  1.4111 -0.6620
17132TIP3    H272888   1.409   5.652   5.699 -0.2118 -1.8934  0.5411
17133TIP3   OH272889   2.156   6.736  11.885  0.3866  0.0499 -0.1844
17133TIP3    H172890   2.196   6.655  11.853  1.6250  0.6907 -0.3190
17133TIP3    H272891   2.144   6.722  11.979  0.7970 -0.2160 -0.1700
17134TIP3   OH272892   3.146   3.732   4.097  0.8230 -0.3557  0.5218
17134TIP3    H172893   3.093   3.680   4.037 -0.4973  1.0569  0.4042
17134TIP3    H272894   3.148   3.681   4.178 -0.2768 -0.6977  0.3469
17135TIP3   OH272895   1.072   6.818  14.104 -0.7990 -0.4442 -0.1509
17135TIP3    H172896   1.137   6.875  14.146  0.7854 -2.2945  0.0731
17135TIP3    H272897   1.110   6.798  14.018 -1.3819 -1.0304 -0.2849
17136TIP3   OH272898   3.348   6.808   1.944  0.2029 -0.0662  0.2822
17136TIP3    H172899   3.373   6.844   2.029 -0.1982  0.8843  0.0055
17136TIP3    H272900   3.371   6.715   1.951  0.5399  0.0693  1.2835
17137TIP3   OH272901   0.330   2.409  13.304 -0.7864 -0.4838  0.1781
17137TIP3    H172902   0.235   2.413  13.320 -0.8327  0.3133 -0.2555
17137TIP3    H272903   0.339   2.358  13.224 -0.8127 -1.0238  0.5171
17138TIP3   OH272904   5.791   5.254  13.139 -0.7908  0.1289 -0.3721
17138TIP3    H172905   5.771   5.329  13.084  0.1147  0.8774  0.2951
17138TIP3    H272906   5.868   5.214  13.098 -0.4484  0.3682  0.0292
17139TIP3   OH272907   0.783   0.364  16.496 -0.2558  0.2794 -0.0294
17139TIP3    H172908   0.874   0.368  16.527 -0.3380  2.4680  0.0853
17139TIP3    H272909   0.786   0.396  16.406 -0.8550 -0.1382 -0.2069
17140TIP3   OH272910   6.769   4.979   6.085 -0.2088 -0.4366 -0.1863
17140TIP3    H172911   6.682   4.938   6.081  0.4346 -1.9954  0.7535
17140TIP3    H272912   6.829   4.906   6.102  1.4119  0.4618 -1.6487
17141TIP3   OH272913   2.973   2.433  15.383  0.0436 -0.0608  0.5808
17141TIP3    H172914   2.944   2.348  15.415 -1.2572  0.0880 -0.1415
17141TIP3    H272915   2.992   2.419  15.290  0.5903  0.2659  0.6351
17142TIP3   OH272916   1.921   0.273   5.639  0.2032 -0.1683 -0.4219
17142TIP3    H172917   1.981   0.212   5.681  2.1338  3.0531  1.9963
17142TIP3    H272918   1.975   0.349   5.617 -2.2272  1.2186 -2.1250
17143TIP3   OH272919   1.714   1.844   0.210  0.0215 -0.1089  0.2369
17143TIP3    H172920   1.774   1.879   0.276  0.1362 -0.3576  0.2640
17143TIP3    H272921   1.766   1.838   0.130 -0.4606  1.4303 -0.2277
17144TIP3   OH272922   5.248   6.570  13.319  0.8226  0.1304  0.6803
17144TIP3    H172923   5.305   6.634  13.277 -0.0714  1.2104  1.0796
17144TIP3    H272924   5.245   6.597  13.411  1.6898 -1.4222  1.2059
17145TIP3   OH272925   0.808   4.381  11.376  0.2316 -0.6007 -0.8388
17145TIP3    H172926   0.805   4.307  11.315 -1.8379 -2.1153  0.9352
17145TIP3    H272927   0.847   4.344  11.456  1.1582  0.8350 -0.5980
17146TIP3   OH272928   5.557   3.656  15.749 -0.3951 -0.6703 -0.1107
17146TIP3    H172929   5.606   3.710  15.811  0.5268 -0.0666 -1.3133
17146TIP3    H272930   5.497   3.605  15.803  0.6271 -0.4304  1.2907
17147TIP3   OH272931   2.186   4.914   1.619  0.0943  0.2293 -0.6726
17147TIP3    H172932   2.240   4.849   1.664 -1.8293 -1.1568 -0.2409
17147TIP3    H272933   2.171   4.876   1.532 -0.0086  0.6996 -0.8613
17148TIP3   OH272934   1.883   0.793   3.888 -0.2384 -0.2168 -0.0761
17148TIP3    H172935   1.926   0.713   3.919 -0.6337 -0.0147  1.0484
17148TIP3    H272936   1.954   0.843   3.848  0.1184 -0.8992 -0.3159
17149TIP3   OH272937   5.265   6.219   0.676 -0.4435 -0.2970 -0.3994
17149TIP3    H172938   5.314   6.167   0.613 -1.1833 -0.0059 -1.2434
17149TIP3    H272939   5.213   6.155   0.725 -0.7703 -0.4377 -0.9146
17150TIP3   OH272940   6.249   3.180  11.884  0.2027 -0.3305 -0.2719
17150TIP3    H172941   6.163   3.213  11.911  1.2140  1.1579  1.3549
17150TIP3    H272942   6.263   3.219  11.798 -1.1643 -1.4532 -1.0530
17151TIP3   OH272943   0.406   0.578   3.415 -0.3632 -0.5400  0.2666
17151TIP3    H172944   0.353   0.603   3.491 -0.5252 -1.0245  0.3121
17151TIP3    H272945   0.345   0.536   3.356 -0.2002 -0.3180 -0.0631
17152TIP3   OH272946   5.313   3.277   2.891  0.2009 -0.1524  0.1309
17152TIP3    H172947   5.342   3.335   2.962  0.8288  0.8736 -0.9176
17152TIP3    H272948   5.263   3.209   2.935 -0.1435  0.9117  1.4852
17153TIP3   OH272949   4.953   3.296   5.099  0.0400 -0.1271 -0.2240
17153TIP3    H172950   4.981   3.369   5.155  1.8736 -0.3565 -0.7493
17153TIP3    H272951   4.874   3.262   5.140 -1.9651  3.2337 -0.9104
17154TIP3   OH272952   2.261   4.325  11.023  0.1856  0.4623  0.1987
17154TIP3    H172953   2.321   4.287  11.087 -0.5392  1.1812  1.3419
17154TIP3    H272954   2.184   4.268  11.026  0.7071 -0.3614 -1.1429
17155TIP3   OH272955   4.985   4.500  13.539  0.0108  0.5257 -0.3634
17155TIP3    H172956   4.917   4.437  13.517  0.1921 -0.6350  2.0639
17155TIP3    H272957   4.977   4.568  13.472 -2.3523 -0.4417 -1.1831
17156TIP3   OH272958   3.739   1.650  16.224 -0.8779  0.1094 -0.0969
17156TIP3    H172959   3.687   1.650  16.143  0.8892  0.1414 -1.2961
17156TIP3    H272960   3.794   1.572  16.217 -0.9783 -0.1118  1.2962
17157TIP3   OH272961   0.688   6.627  13.408  0.9780  0.5980  0.3407
17157TIP3    H172962   0.605   6.650  13.449  1.1951 -0.1290  1.2366
17157TIP3    H272963   0.679   6.655  13.317 -0.0641  0.9559  0.5431
17158TIP3   OH272964   2.805   2.605   5.695  0.1719 -0.0017 -0.0188
17158TIP3    H172965   2.865   2.535   5.672 -1.0263 -1.4260  0.9982
17158TIP3    H272966   2.718   2.571   5.672 -0.5389  0.6728  1.5123
17159TIP3   OH272967   2.750   2.455  16.944 -0.3622 -0.0498  0.3208
17159TIP3    H172968   2.713   2.539  16.970 -0.6044  0.1822 -0.7024
17159TIP3    H272969   2.796   2.474  16.862  0.5149 -0.6981  0.6467
17160TIP3   OH272970   2.205   3.088  13.684  0.1675 -0.3655 -0.6125
17160TIP3    H172971   2.214   3.100  13.590 -0.0137 -0.1442 -0.6004
17160TIP3    H272972   2.291   3.110  13.719 -0.5084  2.3278 -0.4443
17161TIP3   OH272973   5.927   4.914  15.990  0.0079 -0.1685 -0.0246
17161TIP3    H172974   5.858   4.882  15.931  0.9783 -1.9665 -0.2582
17161TIP3    H272975   5.944   5.003  15.960 -0.9952 -0.3149 -1.1041
17162TIP3   OH272976   3.527   5.132   2.615  0.0815 -0.0424 -0.5552
17162TIP3    H172977   3.452   5.073   2.613 -0.4587  0.5707  0.8446
17162TIP3    H272978   3.491   5.218   2.592  0.1613  0.4326  1.0237
17163TIP3   OH272979   5.554   6.280   3.341  0.3884 -0.4310 -0.3206
17163TIP3    H172980   5.566   6.267   3.435 -0.0675  0.4219 -0.1269
17163TIP3    H272981   5.637   6.253   3.301 -0.0752 -2.6855  0.1122
17164TIP3   OH272982   4.980   3.677   3.150  0.5611  0.3829 -0.2376
17164TIP3    H172983   4.926   3.678   3.071 -1.2334 -1.2766  0.8823
17164TIP3    H272984   4.967   3.763   3.190  1.0191  1.0181 -1.4237
17165TIP3   OH272985   4.516   1.814  14.746  0.4306  0.2811  0.2185
17165TIP3    H172986   4.577   1.874  14.702 -1.3961  1.4266 -0.9004
17165TIP3    H272987   4.491   1.752  14.678  0.3075 -0.1479  0.6528
17166TIP3   OH272988   2.535   1.796  15.293 -0.2231 -0.0281 -0.4470
17166TIP3    H172989   2.536   1.835  15.206 -1.5911  1.8934  0.3122
17166TIP3    H272990   2.626   1.773  15.310  0.3653  1.1810 -1.7160
17167TIP3   OH272991   6.531   3.493   0.415 -0.3089 -0.3387 -0.0206
17167TIP3    H172992   6.476   3.466   0.489 -0.7837 -0.3488 -0.3714
17167TIP3    H272993   6.538   3.588   0.424  0.7998 -0.4764  0.8272
17168TIP3   OH272994   1.316   1.898  13.253 -0.7316 -0.2015 -0.6956
17168TIP3    H172995   1.396   1.875  13.300 -1.1266  1.4004  0.8886
17168TIP3    H272996   1.258   1.824  13.266 -0.5686 -0.0971  0.7973
17169TIP3   OH272997   5.767   4.478  12.410 -0.2573  0.0882 -0.4725
17169TIP3    H172998   5.822   4.524  12.347 -0.0021 -2.2174 -2.0737
17169TIP3    H272999   5.682   4.470  12.367 -0.1801 -1.2279 -0.4323
17170TIP3   OH273000   0.579   0.516  11.827 -0.2978  0.3327  1.2787
17170TIP3    H173001   0.528   0.503  11.908 -0.6546  0.8057  1.1341
17170TIP3    H273002   0.541   0.594  11.787  0.6973  0.8224  1.2713
17171TIP3   OH273003   2.897   1.527   3.071 -0.2706  0.1369  0.6582
17171TIP3    H173004   2.810   1.501   3.040  0.4364 -0.7278 -0.7266
17171TIP3    H273005   2.880   1.590   3.141 -2.0130 -0.5999  0.9494
17172TIP3   OH273006   4.583   6.300   2.216  0.2143 -0.4805  0.4906
17172TIP3    H173007   4.637   6.378   2.230 -0.4171 -0.1570  1.1720
17172TIP3    H273008   4.618   6.235   2.277  1.0690 -0.9232 -0.4296
17173TIP3   OH273009   3.187   1.342  13.881  0.0680  0.1785 -0.1430
17173TIP3    H173010   3.225   1.368  13.798 -0.7021 -2.1125 -1.2959
17173TIP3    H273011   3.094   1.367  13.874  0.2509  1.1094  0.5662
17174TIP3   OH273012   4.065   6.021   4.320  0.2329 -0.1259  0.0625
17174TIP3    H173013   3.989   6.048   4.372 -0.1167 -0.1077 -0.4464
17174TIP3    H273014   4.064   5.926   4.323  0.2166 -0.1245  0.1007
17175TIP3   OH273015   0.479   6.024  15.774 -0.4366 -0.4607  0.0798
17175TIP3    H173016   0.561   6.069  15.753 -0.7128  0.3594  0.7195
17175TIP3    H273017   0.500   5.931  15.766  1.0283 -0.3221  1.8984
17176TIP3   OH273018   6.359   4.695   4.448 -0.4610 -0.2066  0.1295
17176TIP3    H173019   6.373   4.782   4.485  0.0909  0.8614 -2.3553
17176TIP3    H273020   6.308   4.711   4.368 -0.7175 -2.2191 -0.1625
17177TIP3   OH273021   1.458   5.093   2.782  0.0094 -0.5131  0.2397
17177TIP3    H173022   1.434   5.085   2.874  1.0927 -1.2198  0.4797
17177TIP3    H273023   1.491   5.007   2.758 -2.5080 -1.0982 -1.5297
17178TIP3   OH273024   2.406   5.158   5.857 -0.4769  0.1682 -0.0112
17178TIP3    H173025   2.371   5.177   5.944  0.3572 -0.6581  0.5342
17178TIP3    H273026   2.352   5.086   5.825 -1.0802  0.7759 -0.3869
17179TIP3   OH273027   5.945   1.821  12.144 -0.1904  0.2549  0.7173
17179TIP3    H173028   5.901   1.753  12.093 -0.0633 -0.2898  1.3224
17179TIP3    H273029   5.901   1.819  12.229 -0.6201  1.3807  0.5377
17180TIP3   OH273030   1.203   0.875   4.210  0.2910  0.5821 -0.1155
17180TIP3    H173031   1.239   0.842   4.293  1.3415  1.6271 -0.1271
17180TIP3    H273032   1.108   0.870   4.222  0.3897  2.0146  1.7247
17181TIP3   OH273033   2.399   3.542   2.785  0.3211 -0.0841  0.3128
17181TIP3    H173034   2.444   3.460   2.765  0.3116  0.0423 -0.2414
17181TIP3    H273035   2.332   3.550   2.717  1.7157  1.4538 -0.9810
17182TIP3   OH273036   4.329   1.393  13.181 -0.2320 -0.3761 -0.0717
17182TIP3    H173037   4.245   1.354  13.205 -1.0817  0.1937 -1.9005
17182TIP3    H273038   4.351   1.350  13.098  0.2717  0.9008 -0.6167
17183TIP3   OH273039   3.511   3.106   3.256 -0.0141  0.2524 -0.2360
17183TIP3    H173040   3.457   3.085   3.333  0.8723  0.6952  0.5269
17183TIP3    H273041   3.542   3.020   3.226  2.6313  0.2069  2.1681
17184TIP3   OH273042   2.421   4.140   1.184 -0.1846  0.1411  0.0391
17184TIP3    H173043   2.382   4.076   1.125 -1.2067 -0.9198  1.8007
17184TIP3    H273044   2.511   4.108   1.198  0.0555  0.3854 -0.8730
17185TIP3   OH273045   4.036   4.588  12.430  0.0574  0.3187  0.2652
17185TIP3    H173046   4.110   4.528  12.435  1.2509  1.6459 -0.4325
17185TIP3    H273047   4.076   4.675  12.438 -1.6040  1.0440  1.3676
17186TIP3   OH273048   1.550   2.909   1.844  0.0962 -0.3159 -0.3610
17186TIP3    H173049   1.631   2.858   1.855  1.8226  1.2285 -3.9836
17186TIP3    H273050   1.485   2.844   1.815  1.3517 -0.9970 -1.8114
17187TIP3   OH273051   2.612   3.937  16.207  0.4403 -0.1962  0.2248
17187TIP3    H173052   2.607   3.939  16.112  2.0887  2.4526  0.0829
17187TIP3    H273053   2.703   3.912  16.226  0.0945 -0.8285  1.1137
17188TIP3   OH273054   0.452   5.515  16.306 -0.2812 -0.4668 -0.3428
17188TIP3    H173055   0.437   5.597  16.352 -1.8659 -1.2847  0.7042
17188TIP3    H273056   0.462   5.540  16.214 -3.1578  0.7658 -0.4277
17189TIP3   OH273057   4.266   3.431  13.550 -0.6876 -0.2363  0.3674
17189TIP3    H173058   4.240   3.339  13.557 -0.3601 -0.2063  3.4647
17189TIP3    H273059   4.189   3.480  13.580 -0.4797  0.4350 -0.1780
17190TIP3   OH273060   5.654   0.026  11.812  0.3559 -0.3599  0.3377
17190TIP3    H173061   5.650  -0.069  11.827  1.5735 -0.5444 -0.2906
17190TIP3    H273062   5.585   0.062  11.866 -0.0938 -1.6101  0.6394
17191TIP3   OH273063   6.303   0.785   4.780 -0.1737  0.2316  0.2633
17191TIP3    H173064   6.349   0.832   4.849 -1.3864  1.1856  0.4785
17191TIP3    H273065   6.213   0.777   4.812 -0.5078 -0.2638 -0.7355
17192TIP3   OH273066   4.705   0.194   1.727  0.5766 -0.3778  0.0492
17192TIP3    H173067   4.622   0.185   1.774  0.1546  1.3008 -0.3198
17192TIP3    H273068   4.710   0.287   1.702  2.6851 -0.3630  0.2826
17193TIP3   OH273069   0.954   4.276  15.894  0.0225  0.0621 -0.1310
17193TIP3    H173070   1.009   4.229  15.831 -0.5396 -1.2245  0.3136
17193TIP3    H273071   0.874   4.223  15.901 -0.9848  1.5125 -0.2147
17194TIP3   OH273072   3.655   6.139  12.289 -0.6236 -0.0439 -0.0748
17194TIP3    H173073   3.601   6.097  12.356 -0.6480  0.4473  0.2161
17194TIP3    H273074   3.718   6.191  12.337 -0.5230  0.1686 -0.4305
17195TIP3   OH273075   0.285   1.601  10.943  0.0411 -0.0410  0.2057
17195TIP3    H173076   0.285   1.697  10.945  1.4778 -0.0088 -0.1619
17195TIP3    H273077   0.315   1.579  10.855 -1.6517 -0.8536 -0.1945
17196TIP3   OH273078   4.003   6.296  13.390  0.8622  0.5728 -0.4795
17196TIP3    H173079   3.929   6.293  13.330  0.9665  1.4299 -0.6732
17196TIP3    H273080   3.964   6.286  13.477  0.7909 -1.4728 -0.7032
17197TIP3   OH273081   4.888   0.088   5.722 -0.2644 -0.5148 -0.6042
17197TIP3    H173082   4.912   0.007   5.766  0.2052 -0.9366 -1.5812
17197TIP3    H273083   4.917   0.075   5.631 -1.1638  0.3186 -1.0347
17198TIP3   OH273084   5.655   1.000  12.402  0.2765 -0.2274 -0.3407
17198TIP3    H173085   5.661   1.093  12.425 -1.7385 -0.2563  0.5063
17198TIP3    H273086   5.718   0.957  12.461  0.9872  0.5476 -0.5179
17199TIP3   OH273087   2.175   3.022  12.876  0.8775 -0.3694  0.5219
17199TIP3    H173088   2.115   2.952  12.901  1.2200 -1.3982 -1.3226
17199TIP3    H273089   2.258   2.997  12.917  1.1771 -1.4787 -0.6788
17200TIP3   OH273090   2.499   3.023  11.117  0.4164  0.2007 -0.0931
17200TIP3    H173091   2.417   3.072  11.127  0.4229  0.1124  0.4296
17200TIP3    H273092   2.561   3.069  11.175 -0.0706 -1.5344  1.9191
17201TIP3   OH273093   5.191   6.165  16.764  0.2451 -0.1990 -0.4906
17201TIP3    H173094   5.205   6.259  16.759 -0.3969  0.1397  2.2091
17201TIP3    H273095   5.160   6.150  16.854 -0.3892 -2.8929 -1.0575
17202TIP3   OH273096   1.213   1.262   1.293  0.2676 -0.8625  0.5370
17202TIP3    H173097   1.150   1.326   1.326 -0.5273 -0.8792 -0.8861
17202TIP3    H273098   1.205   1.188   1.353 -1.6774 -1.1905 -0.0566
17203TIP3   OH273099   5.347   4.682   4.358  0.3189 -0.8609  0.0611
17203TIP3    H173100   5.341   4.773   4.389 -0.9185 -1.0074  0.3006
17203TIP3    H273101   5.399   4.688   4.278 -0.9966  0.3037 -0.7523
17204TIP3   OH273102   5.229   0.683  16.042  0.2956  0.6133  0.2015
17204TIP3    H173103   5.264   0.707  16.128 -1.2014  1.6631  0.5457
17204TIP3    H273104   5.302   0.639  15.998  1.8374  2.0773  1.1600
17205TIP3   OH273105   2.363   1.219  13.144 -0.2612 -0.2470  0.4641
17205TIP3    H173106   2.311   1.294  13.171 -0.4594 -0.2939  0.2147
17205TIP3    H273107   2.446   1.258  13.115  0.0681 -0.2261  1.4274
17206TIP3   OH273108   0.974   2.039  12.119  0.8423 -0.7510 -0.1918
17206TIP3    H173109   0.925   1.979  12.175  0.6181  0.0497  0.4768
17206TIP3    H273110   1.065   2.008  12.125  0.6954 -1.1498 -0.0166
17207TIP3   OH273111   0.226   3.085  12.814  0.1970  0.2848 -0.4530
17207TIP3    H173112   0.318   3.108  12.829  0.0504  0.0727  0.8898
17207TIP3    H273113   0.220   2.992  12.838 -0.2175  0.0911 -1.2681
17208TIP3   OH273114   0.012   3.026  11.741  0.4674 -0.2301 -0.5858
17208TIP3    H173115   0.015   2.943  11.694  0.7120  0.4476 -1.8210
17208TIP3    H273116  -0.081   3.048  11.745  0.3960 -0.6234 -0.1614
17209TIP3   OH273117   6.023   5.861  17.092 -0.1006  0.7943 -0.0289
17209TIP3    H173118   6.070   5.939  17.062  1.3416  0.2062  0.5709
17209TIP3    H273119   6.078   5.827  17.164 -1.4160  0.0024  0.6303
17210TIP3   OH273120   5.181   5.145  16.554  0.1018  0.7913 -0.0115
17210TIP3    H173121   5.276   5.134  16.551  0.4182  2.4578  1.7772
17210TIP3    H273122   5.163   5.181  16.641 -2.2811 -0.2398  0.0237
17211TIP3   OH273123   0.227   5.526   5.848 -0.1572 -0.5628 -0.1146
17211TIP3    H173124   0.198   5.521   5.757 -0.0555  0.1074 -0.1839
17211TIP3    H273125   0.153   5.567   5.894  0.2938  0.2799 -0.1264
17212TIP3   OH273126   5.250   6.153  11.686 -0.3256 -0.5548  0.4073
17212TIP3    H173127   5.179   6.210  11.715  0.8991  1.3212 -0.1100
17212TIP3    H273128   5.210   6.066  11.683 -2.9012  0.5373 -0.7977
17213TIP3   OH273129   5.540   0.788   2.322 -0.5050  0.0358  0.0042
17213TIP3    H173130   5.625   0.787   2.278 -0.4545  1.4276  0.0063
17213TIP3    H273131   5.476   0.780   2.251 -0.4135 -2.6840  0.1231
17214TIP3   OH273132   1.586   6.569  14.669 -0.5475 -0.5085 -0.1799
17214TIP3    H173133   1.641   6.548  14.593 -0.8478 -2.3525  0.0775
17214TIP3    H273134   1.497   6.572  14.634 -0.8211 -2.5178  0.2712
17215TIP3   OH273135   5.077   5.543  15.489  0.0462 -0.5108 -0.1182
17215TIP3    H173136   5.106   5.477  15.551  0.2555  0.6210  1.0213
17215TIP3    H273137   5.027   5.605  15.542  0.1471  0.4296 -1.0980
17216TIP3   OH273138   6.056   3.969   3.527 -0.2088  0.0011  0.5781
17216TIP3    H173139   6.086   4.057   3.506 -1.3244 -0.0032 -1.1395
17216TIP3    H273140   5.972   3.982   3.571 -0.6874 -0.2272 -0.2652
17217TIP3   OH273141   1.218   2.055  14.102 -0.1555  0.1663  0.3408
17217TIP3    H173142   1.174   1.992  14.044 -0.5870  0.9131 -0.1584
17217TIP3    H273143   1.195   2.141  14.066  0.2229  0.6202  1.1581
17218TIP3   OH273144   5.300   0.283  14.704 -0.4029  0.0700 -0.1468
17218TIP3    H173145   5.301   0.227  14.781  0.6873  1.3604  0.8225
17218TIP3    H273146   5.357   0.238  14.641 -1.0710 -0.8466 -0.1162
17219TIP3   OH273147   2.347   1.947  10.959 -0.1253  0.4269 -0.2807
17219TIP3    H173148   2.308   1.861  10.946  0.5711  0.1976 -0.9045
17219TIP3    H273149   2.377   1.974  10.872  1.6298  0.3348  0.2572
17220TIP3   OH273150   1.505   6.343  13.762 -0.1133 -0.1741 -1.0158
17220TIP3    H173151   1.447   6.379  13.694 -1.4775  0.2292  0.3191
17220TIP3    H273152   1.450   6.337  13.840  1.4319 -0.5996  0.0825
17221TIP3   OH273153   5.261   6.232   5.489  0.3102  0.0182 -0.9292
17221TIP3    H173154   5.199   6.303   5.478  1.1002  0.6997 -1.0764
17221TIP3    H273155   5.296   6.216   5.402  1.3951  0.6384 -0.6368
17222TIP3   OH273156   0.041   2.294  13.016 -0.2063  0.4136  0.3393
17222TIP3    H173157  -0.000   2.376  12.988  0.5535  0.5491 -0.4252
17222TIP3    H273158   0.080   2.258  12.936 -1.5068 -1.2939  0.4001
17223TIP3   OH273159   0.702   3.649   2.540  0.1522  0.4111 -0.1879
17223TIP3    H173160   0.699   3.597   2.459  0.9862 -0.4271  0.2928
17223TIP3    H273161   0.792   3.639   2.571 -0.0558  1.0386  0.6437
17224TIP3   OH273162   4.163   6.668  16.808  0.2869  0.2849 -0.3073
17224TIP3    H173163   4.213   6.603  16.759 -0.1920  0.2923 -0.8236
17224TIP3    H273164   4.182   6.751  16.765  3.6941  1.1600  2.4546
17225TIP3   OH273165   0.835   0.859  11.740  0.4264  0.3463 -0.5000
17225TIP3    H173166   0.904   0.917  11.773  1.7724 -1.9185  0.9336
17225TIP3    H273167   0.879   0.775  11.727 -1.9154 -1.0014 -0.2106
17226TIP3   OH273168   6.541   0.927  11.396  0.1109  0.4006 -0.3888
17226TIP3    H173169   6.595   0.968  11.464  1.2233 -1.1854 -0.2458
17226TIP3    H273170   6.585   0.950  11.314  1.0430 -0.8798 -0.2729
17227TIP3   OH273171   5.259   4.227  12.972  0.0028 -0.1861 -0.9541
17227TIP3    H173172   5.280   4.259  13.059  0.8751  0.8224 -1.4995
17227TIP3    H273173   5.310   4.284  12.913 -1.2405 -0.2646 -2.1593
17228TIP3   OH273174   6.232   1.145   4.991 -0.1142 -0.7127 -0.1395
17228TIP3    H173175   6.270   1.134   5.078 -0.6597 -1.0006  0.0660
17228TIP3    H273176   6.165   1.076   4.985 -2.3137  1.2343  0.4406
17229TIP3   OH273177   0.698   4.878   4.815  0.3980 -0.5266 -0.2491
17229TIP3    H173178   0.760   4.805   4.807  0.0859 -1.0921  1.9506
17229TIP3    H273179   0.614   4.836   4.831  0.1556  0.3108  0.7309
17230TIP3   OH273180   4.564   2.650   2.447  0.0271  0.3154  1.0727
17230TIP3    H173181   4.581   2.673   2.539 -1.2698 -0.7916  1.6314
17230TIP3    H273182   4.649   2.630   2.410  0.5768  0.8514  2.0209
17231TIP3   OH273183   5.726   5.122  15.174  0.4969  0.4802 -0.3977
17231TIP3    H173184   5.742   5.028  15.170  1.1143  0.5386  0.3417
17231TIP3    H273185   5.684   5.143  15.091  0.2505 -0.4648 -0.5234
17232TIP3   OH273186   3.231   0.172   1.369 -0.3151  0.4363 -0.2209
17232TIP3    H173187   3.244   0.116   1.293 -0.2950  2.2144 -1.5851
17232TIP3    H273188   3.191   0.251   1.334  0.6999  1.7516  1.4407
17233TIP3   OH273189   6.284   5.728   4.573 -0.0384  0.3433 -0.4601
17233TIP3    H173190   6.364   5.677   4.586 -0.4420  0.2697  2.2689
17233TIP3    H273191   6.312   5.805   4.523  1.1273 -1.0806 -2.1120
17234TIP3   OH273192   2.141   6.828  13.124 -0.3516  0.1889 -0.3788
17234TIP3    H173193   2.197   6.765  13.169  1.4768  2.1502  0.2650
17234TIP3    H273194   2.190   6.853  13.046 -2.3985 -1.3355 -2.2703
17235TIP3   OH273195   2.529   4.032   3.352 -0.8094  0.5004  0.0165
17235TIP3    H173196   2.439   4.029   3.384 -0.5262  0.4803  0.8284
17235TIP3    H273197   2.573   4.095   3.409 -0.1813  0.1241 -0.0422
17236TIP3   OH273198   4.870   0.499  14.476  0.0049 -0.2703  0.3356
17236TIP3    H173199   4.878   0.488  14.381  0.2538  0.0824  0.3114
17236TIP3    H273200   4.954   0.469  14.511  0.7809  1.6059  0.2502
17237TIP3   OH273201   5.690   4.645  11.397  0.2022  0.1384  0.5049
17237TIP3    H173202   5.622   4.621  11.334  0.7234 -1.2825  0.4355
17237TIP3    H273203   5.772   4.623  11.352  0.5857 -0.7959  1.6280
17238TIP3   OH273204   1.197   6.260  14.520 -0.1055  0.4001  0.2488
17238TIP3    H173205   1.106   6.231  14.518 -0.1752 -0.0426  3.8992
17238TIP3    H273206   1.248   6.181  14.539  0.8138  1.0036  0.3809
17239TIP3   OH273207   0.946   1.947  13.207  0.5167  0.1130 -0.3441
17239TIP3    H173208   0.976   1.968  13.295  0.9085  0.8357 -0.6379
17239TIP3    H273209   1.007   1.880  13.176  1.9070  1.6032 -0.9533
17240TIP3   OH273210   6.772   2.655  11.617  0.1473  0.0096 -0.0150
17240TIP3    H173211   6.830   2.581  11.598 -0.2558 -0.2348 -0.3278
17240TIP3    H273212   6.818   2.732  11.584  0.3441 -0.1706 -0.1605
17241TIP3   OH273213   1.685   6.790   2.468 -0.1353 -0.7265  0.0243
17241TIP3    H173214   1.736   6.833   2.537 -0.0146  0.9168 -1.0418
17241TIP3    H273215   1.602   6.768   2.510  0.6257 -1.4907  1.1925
17242TIP3   OH273216   3.396   4.161  14.432  0.0730  0.6816  0.3550
17242TIP3    H173217   3.331   4.231  14.434 -0.2283  0.4203 -0.1126
17242TIP3    H273218   3.477   4.203  14.458  0.0080  1.3297 -0.4599
17243TIP3   OH273219   4.028   0.061   0.977 -0.5704 -0.5675 -0.4321
17243TIP3    H173220   3.982   0.001   0.918 -0.1956  0.2777 -1.6083
17243TIP3    H273221   4.098   0.099   0.924 -1.5715  1.8946 -0.1444
17244TIP3   OH273222   5.056   2.902  14.856 -0.1580  0.5164  0.1580
17244TIP3    H173223   4.982   2.908  14.796 -1.3187  0.5035  1.5350
17244TIP3    H273224   5.026   2.846  14.927  1.3230  0.1719  0.5638
17245TIP3   OH273225   4.380   4.655   3.492  0.2081  0.0364 -0.1280
17245TIP3    H173226   4.350   4.627   3.405 -0.2660  1.4281 -0.4381
17245TIP3    H273227   4.433   4.733   3.475  0.5968 -0.0268  0.7805
17246TIP3   OH273228   0.399   6.274  15.952 -0.0858 -0.2429 -0.2403
17246TIP3    H173229   0.439   6.252  15.868  1.7822  0.4021  0.4154
17246TIP3    H273230   0.428   6.364  15.969 -2.7711  0.7144 -0.1966
17247TIP3   OH273231   6.521   0.643   0.061 -0.2451  0.1077  0.0022
17247TIP3    H173232   6.514   0.600   0.146  1.9071  1.0702  0.7379
17247TIP3    H273233   6.453   0.710   0.062 -2.2570 -1.8040 -0.3309
17248TIP3   OH273234   4.323   2.661   2.957  0.1498  0.5559 -0.3580
17248TIP3    H173235   4.342   2.742   3.005  1.2838 -0.0730  0.3072
17248TIP3    H273236   4.265   2.613   3.015  0.8221  0.1737  0.0074
17249TIP3   OH273237   3.155   5.891  16.562 -0.3594  0.1008 -0.1785
17249TIP3    H173238   3.163   5.983  16.537 -1.5036  0.0742 -0.7115
17249TIP3    H273239   3.105   5.851  16.491  0.1756 -0.9511  0.0184
17250TIP3   OH273240   0.731   6.616  11.606 -0.0384 -0.2987 -0.3229
17250TIP3    H173241   0.698   6.623  11.516 -0.5690 -1.5099 -0.2476
17250TIP3    H273242   0.825   6.633  11.598  0.0631 -1.1565 -1.2541
17251TIP3   OH273243   0.326   6.439   2.843 -0.1493  0.3111 -0.4560
17251TIP3    H173244   0.395   6.379   2.871 -1.8317 -1.1301  0.8340
17251TIP3    H273245   0.367   6.493   2.776  1.9871 -1.0162 -0.3126
17252TIP3   OH273246   0.579   5.232   1.429 -0.0167 -0.0457  0.3617
17252TIP3    H173247   0.536   5.318   1.427 -0.7567 -0.4252 -0.5568
17252TIP3    H273248   0.667   5.251   1.463 -0.7394  0.8047  1.8697
17253TIP3   OH273249   1.653   2.133  12.084  0.4590 -0.0367  0.0965
17253TIP3    H173250   1.592   2.186  12.032 -0.7384  0.4017  1.8773
17253TIP3    H273251   1.602   2.107  12.160  2.1401 -0.7524  1.0029
17254TIP3   OH273252   3.458   3.876   5.744 -0.2983 -0.0677  0.3166
17254TIP3    H173253   3.538   3.828   5.766  0.3085  0.7839  0.0177
17254TIP3    H273254   3.467   3.959   5.790 -0.3892  0.5599 -0.7652
17255TIP3   OH273255   4.310   3.506   1.041 -0.0019  0.5809  0.6409
17255TIP3    H173256   4.254   3.482   0.967  0.6369  0.1675  0.2865
17255TIP3    H273257   4.295   3.600   1.052 -0.0491  0.6637 -0.0666
17256TIP3   OH273258   2.310   2.661   3.024  0.3470 -0.1526 -0.0743
17256TIP3    H173259   2.286   2.577   2.986 -0.2033 -0.0965  0.1377
17256TIP3    H273260   2.253   2.724   2.980  0.5432  0.0694 -0.0104
17257TIP3   OH273261   4.329   2.261   2.189 -0.0976 -0.0720 -0.5800
17257TIP3    H173262   4.424   2.246   2.192 -0.1193 -0.2410 -0.7164
17257TIP3    H273263   4.321   2.353   2.163  0.0440  0.4558  1.1031
17258TIP3   OH273264   6.464   1.446  16.310  0.0128 -0.7362  0.3606
17258TIP3    H173265   6.368   1.444  16.308  0.0319 -2.2212  0.0146
17258TIP3    H273266   6.487   1.400  16.391  0.4447 -0.7204  0.2501
17259TIP3   OH273267   2.229   2.132  11.631  0.3974  0.0831 -0.2683
17259TIP3    H173268   2.209   2.085  11.550 -2.8782  0.2715  0.3118
17259TIP3    H273269   2.188   2.080  11.700  0.8535  1.2965  0.9624
17260TIP3   OH273270   3.406   5.662  14.881  0.2464  0.3497 -0.8295
17260TIP3    H173271   3.412   5.758  14.881  2.5463  0.2679 -1.1111
17260TIP3    H273272   3.465   5.634  14.811  0.8254 -1.2894  0.2481
17261TIP3   OH273273   5.158   3.466   0.444  0.4886 -0.2199  0.0658
17261TIP3    H173274   5.103   3.418   0.506  0.3638  1.1683  1.0871
17261TIP3    H273275   5.206   3.398   0.397 -0.3705 -1.3661  0.7962
17262TIP3   OH273276   5.232   6.617   3.689  0.2742  0.1694 -0.1383
17262TIP3    H173277   5.136   6.608   3.688 -0.0133  2.5373  0.0035
17262TIP3    H273278   5.261   6.569   3.612 -0.8903 -1.6523  0.4942
17263TIP3   OH273279   3.844   4.841   5.758  0.3356 -0.1981  0.1200
17263TIP3    H173280   3.885   4.756   5.743  2.1143  0.5364  0.6247
17263TIP3    H273281   3.902   4.886   5.820  0.3730  2.0256 -1.3860
17264TIP3   OH273282   4.870   4.111   4.925  0.4672  0.2546 -0.4143
17264TIP3    H173283   4.859   4.057   5.004 -2.4946 -1.3247 -1.7534
17264TIP3    H273284   4.935   4.063   4.873  0.7254  0.0643  0.0751
17265TIP3   OH273285   4.314   1.397  11.757  0.4025  0.2659  0.3360
17265TIP3    H173286   4.226   1.401  11.794 -0.2799 -1.1708 -1.0371
17265TIP3    H273287   4.305   1.435  11.670  0.7035 -1.5375 -0.5231
17266TIP3   OH273288   4.198   1.219   1.265  0.4707  0.0907 -0.1752
17266TIP3    H173289   4.121   1.163   1.278  0.8214 -0.0593  1.4829
17266TIP3    H273290   4.166   1.307   1.284  0.6428  0.0565  0.2859
17267TIP3   OH273291   2.446   4.722   6.125  1.3490  0.5855  0.1557
17267TIP3    H173292   2.448   4.712   6.030  1.5760  0.1543  0.2040
17267TIP3    H273293   2.365   4.770   6.142  1.0358  0.1928 -0.2104
17268TIP3   OH273294   4.430   6.753  16.401  0.0067  0.3672 -0.1936
17268TIP3    H173295   4.485   6.689  16.445 -0.2496  0.2898  0.0155
17268TIP3    H273296   4.346   6.708  16.387  0.7984 -0.4099 -2.8518
17269TIP3   OH273297   1.288   1.005   5.126 -0.5887  0.6448 -0.2221
17269TIP3    H173298   1.217   1.028   5.066 -0.4630  0.6416 -0.3735
17269TIP3    H273299   1.315   0.917   5.098 -0.3700  0.7400 -0.3143
17270TIP3   OH273300   5.635   0.509   2.681 -0.0175  0.7349 -0.1576
17270TIP3    H173301   5.590   0.464   2.752  0.5688  1.0947  0.4553
17270TIP3    H273302   5.568   0.522   2.614  0.0385 -2.0264 -0.8581
17271TIP3   OH273303   3.559   5.601  14.655 -0.4051 -0.0085 -0.2194
17271TIP3    H173304   3.561   5.565  14.566  2.3874  2.3489 -1.2932
17271TIP3    H273305   3.640   5.570  14.695  0.3833  2.1500 -0.0036
17272TIP3   OH273306   0.998   3.231   3.971 -0.4029  0.4167 -0.0105
17272TIP3    H173307   1.009   3.211   4.063 -0.5227  0.0372 -0.0775
17272TIP3    H273308   1.038   3.158   3.925 -3.2134 -1.0953 -0.2557
17273TIP3   OH273309   5.435   2.176   3.568  0.4505  0.7289  0.2558
17273TIP3    H173310   5.502   2.169   3.636  0.8736  1.9031 -0.0004
17273TIP3    H273311   5.481   2.215   3.494 -0.3415  0.8482 -0.1839
17274TIP3   OH273312   6.196   6.773   5.146 -0.5378 -0.3475 -0.1554
17274TIP3    H173313   6.199   6.765   5.050 -0.0706 -0.4806 -0.1349
17274TIP3    H273314   6.110   6.809   5.165 -0.4926  0.0302 -0.6556
17275TIP3   OH273315   4.022   5.889   3.000  0.3949 -0.2902  0.3230
17275TIP3    H173316   3.943   5.844   3.032  0.6364 -1.6838 -0.9498
17275TIP3    H273317   4.007   5.981   3.023 -1.6630 -0.4927  0.0526
17276TIP3   OH273318   5.065   2.250  10.992  0.0928  0.6489 -0.9623
17276TIP3    H173319   5.137   2.313  10.997  0.7116  0.0961 -2.2292
17276TIP3    H273320   5.019   2.275  10.912 -0.0946 -0.0517 -1.0727
17277TIP3   OH273321   3.564   2.569   5.592 -0.2545 -0.4549  0.0677
17277TIP3    H173322   3.513   2.627   5.536 -1.2979 -0.7998  0.6360
17277TIP3    H273323   3.584   2.622   5.669 -0.8859 -0.7130  0.4197
17278TIP3   OH273324   3.186   2.558   1.284 -0.6437 -0.1979  0.2129
17278TIP3    H173325   3.235   2.612   1.346  0.2509  0.4564 -1.0176
17278TIP3    H273326   3.253   2.504   1.241 -1.1603 -0.2036 -0.6032
17279TIP3   OH273327   4.538   2.116   4.316 -0.7452 -0.0026 -0.0588
17279TIP3    H173328   4.477   2.074   4.377 -0.0151 -0.7660  0.1526
17279TIP3    H273329   4.506   2.091   4.229 -0.4648 -0.8066  0.0603
17280TIP3   OH273330   0.567   5.583  13.444 -0.2430  0.0993 -0.1682
17280TIP3    H173331   0.558   5.673  13.412  0.7727 -0.0908 -1.0166
17280TIP3    H273332   0.611   5.593  13.529 -0.0725  0.4029 -0.2885
17281TIP3   OH273333   4.595   5.985  13.036  0.4761  0.6131 -0.7471
17281TIP3    H173334   4.562   5.957  12.951  0.0229  1.4656 -0.8613
17281TIP3    H273335   4.595   5.906  13.089 -1.6286  0.5317 -0.7835
17282TIP3   OH273336   5.485   0.406   2.931 -0.3712 -0.1481 -0.0515
17282TIP3    H173337   5.507   0.426   3.021  0.5276  0.4231 -0.3880
17282TIP3    H273338   5.415   0.468   2.909 -0.0331  0.2509  0.0023
17283TIP3   OH273339   2.910   5.266   2.673 -0.1166  0.1103  0.2248
17283TIP3    H173340   2.904   5.171   2.677 -0.7727  0.1698  0.7963
17283TIP3    H273341   3.004   5.285   2.674  0.0169 -0.5272  0.0547
17284TIP3   OH273342   6.308   6.329  12.630 -0.8320  0.0080 -0.0859
17284TIP3    H173343   6.314   6.293  12.718 -2.5631 -0.2737 -0.0481
17284TIP3    H273344   6.312   6.424  12.642  1.8540 -0.0401 -0.0182
17285TIP3   OH273345   1.300   3.298   3.124  0.3986  0.7381 -0.1821
17285TIP3    H173346   1.346   3.381   3.139  0.0345  0.8631  0.2668
17285TIP3    H273347   1.304   3.253   3.208 -1.0159  1.1159  0.1136
17286TIP3   OH273348   6.557   1.120   2.292 -0.0076 -0.3522 -0.4660
17286TIP3    H173349   6.483   1.068   2.262 -0.2687 -0.6655  0.6650
17286TIP3    H273350   6.590   1.073   2.369  0.7981  0.2602 -0.4255
17287TIP3   OH273351   3.991   3.621   3.431  0.2244  0.3779 -0.3674
17287TIP3    H173352   3.955   3.616   3.520  0.9431  2.2125  0.0620
17287TIP3    H273353   4.029   3.534   3.416 -0.7711 -0.2783  0.7290
17288TIP3   OH273354   2.091   5.414  14.992  0.2763 -0.3586  0.4747
17288TIP3    H173355   2.063   5.505  14.981  2.5360  0.3224 -0.1504
17288TIP3    H273356   2.025   5.364  14.943  0.9141  1.2703 -2.3012
17289TIP3   OH273357   1.116   0.261   5.747 -0.1616  0.4679  0.4656
17289TIP3    H173358   1.147   0.212   5.823 -1.7992 -0.0876  0.8001
17289TIP3    H273359   1.066   0.197   5.696  0.5670  0.9334 -0.9005
17290TIP3   OH273360   2.845   3.095  11.254 -0.4390 -0.5416 -0.4110
17290TIP3    H173361   2.902   3.049  11.192  1.6148  0.5287  0.5884
17290TIP3    H273362   2.878   3.070  11.340 -1.3217  0.3557  0.2081
17291TIP3   OH273363   1.812   4.469  16.991  0.1313  0.0761  0.1745
17291TIP3    H173364   1.742   4.465  16.925  1.5103 -1.9473 -1.2871
17291TIP3    H273365   1.878   4.526  16.953  0.8773 -1.0028 -0.2237
17292TIP3   OH273366   1.383   6.420   4.195 -0.3032 -0.0914  0.3179
17292TIP3    H173367   1.350   6.466   4.272  0.7178 -1.4075  1.5931
17292TIP3    H273368   1.466   6.382   4.223  0.6420  0.2944 -1.7774
17293TIP3   OH273369   3.715   1.743  12.951  0.1715  0.3443  0.3563
17293TIP3    H173370   3.797   1.785  12.925  0.9320 -0.7973  0.8301
17293TIP3    H273371   3.723   1.731  13.046  0.1468 -1.1735  0.1871
17294TIP3   OH273372   5.464   0.126   2.975 -0.4470  0.0985 -0.4323
17294TIP3    H173373   5.465   0.213   2.935  0.7638  0.6465  0.6694
17294TIP3    H273374   5.441   0.143   3.067  0.5896 -0.6108 -0.0180
17295TIP3   OH273375   4.368   1.710   5.059 -0.1480 -0.2935 -0.1809
17295TIP3    H173376   4.445   1.692   5.004 -1.1317 -1.6635 -1.1794
17295TIP3    H273377   4.392   1.788   5.108  1.7861 -0.5349 -0.6471
17296TIP3   OH273378   3.053   4.417  13.963  0.4559 -0.5943  0.5338
17296TIP3    H173379   3.103   4.336  13.952 -0.1503 -0.8287 -0.7553
17296TIP3    H273380   3.013   4.432  13.877  2.8364  2.6304 -0.1937
17297TIP3   OH273381   1.862   3.965  11.827  0.1052  0.1639  0.4743
17297TIP3    H173382   1.774   3.942  11.798 -0.5027 -0.4029  2.5870
17297TIP3    H273383   1.907   3.881  11.835 -0.1912  0.1358  2.3699
17298TIP3   OH273384   2.955   1.789   3.663 -0.1270  0.6065  0.1215
17298TIP3    H173385   2.882   1.732   3.639 -0.1980  1.2696 -1.3118
17298TIP3    H273386   2.917   1.877   3.662  0.7101  0.9764 -0.7793
17299TIP3   OH273387   4.373   6.778   1.280  0.6000 -0.1878  0.2108
17299TIP3    H173388   4.315   6.713   1.321  0.9193 -0.3064  0.4757
17299TIP3    H273389   4.417   6.820   1.353  1.2569 -0.4769 -0.0108
17300TIP3   OH273390   2.044   3.848   5.368  0.5567  0.1232 -0.2092
17300TIP3    H173391   2.087   3.883   5.445  1.3693 -0.0310 -0.5865
17300TIP3    H273392   1.966   3.903   5.356  0.0311 -0.3002  1.1270
17301TIP3   OH273393   3.328   0.164  11.893  0.2290  0.1761 -0.3088
17301TIP3    H173394   3.288   0.151  11.807  2.1468 -0.9299 -1.1278
17301TIP3    H273395   3.420   0.185  11.873  0.7724 -0.3248  1.4636
17302TIP3   OH273396   6.804   3.282  12.136 -0.2870  0.2205 -0.2708
17302TIP3    H173397   6.824   3.346  12.067  0.1938  1.2282  0.7598
17302TIP3    H273398   6.821   3.329  12.218  0.8295 -1.4513  0.5307
17303TIP3   OH273399   6.481   3.961  16.844 -0.5011  0.3096 -0.5271
17303TIP3    H173400   6.548   3.904  16.882 -1.0931  0.3569  0.6455
17303TIP3    H273401   6.514   3.983  16.757  0.6030 -0.3398 -0.2893
17304TIP3   OH273402   5.285   4.709  14.221  0.3507 -0.1867  0.0892
17304TIP3    H173403   5.268   4.803  14.210 -1.1386 -0.3928  0.3591
17304TIP3    H273404   5.335   4.684  14.144  0.5013  0.7702 -0.1368
17305TIP3   OH273405   0.576   3.201  13.740  0.1598  0.4957  0.0131
17305TIP3    H173406   0.550   3.109  13.735 -0.5178  0.5371  2.0008
17305TIP3    H273407   0.613   3.220  13.654  0.9779 -1.8245 -0.2122
17306TIP3   OH273408   6.014   5.345  14.377  1.0365  0.1770 -0.1593
17306TIP3    H173409   6.080   5.333  14.309  1.8771  0.8763  0.5183
17306TIP3    H273410   5.952   5.273  14.363  1.8859 -0.4369 -0.8584
17307TIP3   OH273411   0.552   3.717  13.456  0.0519 -0.7747  0.7387
17307TIP3    H173412   0.624   3.780  13.466 -0.0054 -0.3142 -1.3499
17307TIP3    H273413   0.592   3.642  13.411 -0.1919 -1.6972  1.9962
17308TIP3   OH273414   2.865   4.245   2.148  0.3870 -0.3696  0.1218
17308TIP3    H173415   2.831   4.278   2.231  1.4721 -1.5656  1.0852
17308TIP3    H273416   2.958   4.231   2.163  0.7230 -0.1108 -1.4760
17309TIP3   OH273417   3.648   0.490  15.807  0.6937  0.8448 -0.2659
17309TIP3    H173418   3.730   0.456  15.770 -0.1590 -0.9440 -0.6403
17309TIP3    H273419   3.639   0.445  15.891 -0.8522 -0.5955 -1.1199
17310TIP3   OH273420   2.667   5.640   6.672  0.3226  0.5367 -0.4825
17310TIP3    H173421   2.745   5.616   6.623  0.9558  2.4524 -0.4976
17310TIP3    H273422   2.675   5.592   6.755  1.7197  0.9698 -0.3356
17311TIP3   OH273423   6.609   0.243  15.868  0.7344  0.2710  0.3654
17311TIP3    H173424   6.691   0.213  15.827  1.9992  2.1801  1.3741
17311TIP3    H273425   6.633   0.265  15.958 -1.1487 -0.1161  1.0115
17312TIP3   OH273426   3.513   2.639   2.774 -0.7340  0.4251 -0.2750
17312TIP3    H173427   3.483   2.551   2.796  1.5961 -1.1238 -2.5940
17312TIP3    H273428   3.491   2.649   2.682  0.0006  1.8269 -0.3156
17313TIP3   OH273429   3.445   5.884   1.213 -0.6857  0.0523 -0.7923
17313TIP3    H173430   3.462   5.829   1.137 -1.3677 -0.4154 -0.6096
17313TIP3    H273431   3.369   5.845   1.256 -0.2555  0.2460  0.1911
17314TIP3   OH273432   2.666   5.113   3.967 -0.2488  0.0639 -0.3739
17314TIP3    H173433   2.722   5.049   4.010 -1.0056 -1.0260 -0.9644
17314TIP3    H273434   2.722   5.190   3.954  0.4655 -0.1774  1.0273
17315TIP3   OH273435   2.678   3.631   4.103 -0.0814  0.4140  0.2051
17315TIP3    H173436   2.743   3.699   4.084 -1.1456  0.9334 -1.8583
17315TIP3    H273437   2.604   3.651   4.046 -0.8121 -1.9729  0.1874
17316TIP3   OH273438   5.156   3.867  10.704  0.6590 -0.3859  0.2050
17316TIP3    H173439   5.240   3.910  10.719 -0.1388  0.6331  2.0986
17316TIP3    H273440   5.104   3.933  10.658 -0.2578  0.4024  2.2749
17317TIP3   OH273441   3.476   6.756  15.669  0.1559  0.0834 -0.2641
17317TIP3    H173442   3.503   6.804  15.591 -1.0922  1.7629  0.3027
17317TIP3    H273443   3.382   6.741  15.658  0.2173 -0.8587  0.3089
17318TIP3   OH273444   2.851   3.423   5.378 -0.1941 -0.1150  0.5098
17318TIP3    H173445   2.771   3.373   5.360  0.1705 -1.1891  1.6863
17318TIP3    H273446   2.821   3.505   5.416 -0.7884  0.3112 -0.8273
17319TIP3   OH273447   0.705   0.572   5.712  0.3253  0.2814  0.9811
17319TIP3    H173448   0.778   0.519   5.745 -1.1748 -2.1127  0.7334
17319TIP3    H273449   0.631   0.548   5.768 -1.1595 -0.3039 -1.0999
17320TIP3   OH273450   5.733   0.177  13.592 -0.0257 -0.1907 -0.0049
17320TIP3    H173451   5.677   0.216  13.525 -0.3202  2.1026  1.4853
17320TIP3    H273452   5.690   0.094  13.614 -0.4961 -0.4706 -1.8337
17321TIP3   OH273453   6.388   5.098  12.761  0.0517  0.6495  0.5900
17321TIP3    H173454   6.399   5.077  12.854  0.6997  2.4229  0.9619
17321TIP3    H273455   6.420   5.188  12.753  0.8946  0.2262 -1.5324
17322TIP3   OH273456   6.351   2.969   3.357 -0.6747 -0.1367 -0.4385
17322TIP3    H173457   6.277   2.909   3.349  0.0161 -0.7862 -2.8238
17322TIP3    H273458   6.428   2.912   3.352 -0.0104  0.8273 -2.4802
17323TIP3   OH273459   2.561   1.491   1.665 -0.2077 -0.4374 -0.0083
17323TIP3    H173460   2.625   1.482   1.594  0.0473  1.3441 -0.0669
17323TIP3    H273461   2.606   1.545   1.730 -1.2295 -0.1595  0.4898
17324TIP3   OH273462   3.451   6.518   5.103  0.4716 -0.5641  0.3083
17324TIP3    H173463   3.447   6.483   5.014  0.6301 -2.3476  0.9647
17324TIP3    H273464   3.541   6.501   5.131  0.7229  0.9164  0.4774
17325TIP3   OH273465   6.349   1.947  14.397 -0.3361  0.1589  0.2331
17325TIP3    H173466   6.396   1.946  14.313  0.6538 -0.1289  0.7737
17325TIP3    H273467   6.315   1.858  14.406 -1.8161  0.6041 -0.5864
17326TIP3   OH273468   3.846   5.028   5.407  0.3833 -0.2381 -0.5919
17326TIP3    H173469   3.787   5.077   5.349  1.6854  1.1859 -0.7798
17326TIP3    H273470   3.788   4.978   5.464 -0.9633 -0.6716 -2.2432
17327TIP3   OH273471   1.976   6.783   5.133  0.1050  0.1118  0.4170
17327TIP3    H173472   1.909   6.850   5.144  2.1294  2.1178  1.4622
17327TIP3    H273473   1.942   6.726   5.064 -1.4900  2.5846 -0.9980
17328TIP3   OH273474   0.788   1.221  14.888 -0.3834  0.0568  0.3998
17328TIP3    H173475   0.785   1.273  14.968 -0.1497 -1.6426  1.5644
17328TIP3    H273476   0.823   1.136  14.915 -2.1333 -1.2362 -1.1257
17329TIP3   OH273477   5.033   1.102   1.910 -0.2934 -0.2047 -0.0828
17329TIP3    H173478   5.120   1.070   1.886 -0.9853 -2.3087  0.0444
17329TIP3    H273479   4.989   1.116   1.826 -0.2024 -0.2022 -0.1301
17330TIP3   OH273480   3.518   0.063   5.021  0.3642 -0.1240  0.3705
17330TIP3    H173481   3.523   0.025   4.933 -0.5427 -0.4077  0.4298
17330TIP3    H273482   3.563   0.001   5.077 -1.3331 -1.3127  0.5140
17331TIP3   OH273483   5.166   1.111  13.255  0.1522  0.0444  0.6992
17331TIP3    H173484   5.086   1.165  13.253  0.3097  0.3396  1.5646
17331TIP3    H273485   5.138   1.025  13.226  0.3935  1.1346 -3.2746
17332TIP3   OH273486   5.303   4.626   2.758  0.0589  0.0022  0.0976
17332TIP3    H173487   5.337   4.642   2.670  0.2132 -0.4420  0.0760
17332TIP3    H273488   5.324   4.535   2.776  0.4513  0.2213  0.7806
17333TIP3   OH273489   0.812   6.804  12.739  0.2000  0.0825 -0.0235
17333TIP3    H173490   0.735   6.843  12.781 -1.0280 -0.4571 -1.6848
17333TIP3    H273491   0.832   6.727  12.792 -0.2039  0.4063  0.6107
17334TIP3   OH273492   4.210   1.137  13.866 -0.2354  0.0699 -0.1356
17334TIP3    H173493   4.188   1.221  13.906  1.0818  0.1926  0.3707
17334TIP3    H273494   4.131   1.083  13.877 -1.0797  1.2041 -0.4204
17335TIP3   OH273495   1.031   6.742   4.424  0.1828  0.7690 -0.1886
17335TIP3    H173496   1.026   6.794   4.343  2.6612  2.9628  0.9253
17335TIP3    H273497   0.996   6.800   4.491 -0.7876 -0.6125  0.5424
17336TIP3   OH273498   5.067   3.170  14.961 -0.1738 -0.2968  0.3521
17336TIP3    H173499   5.001   3.140  15.023  0.8208 -1.6631  0.7768
17336TIP3    H273500   5.070   3.102  14.894 -0.9134  0.9401 -1.0091
17337TIP3   OH273501   4.250   5.804  12.646  0.3675 -0.0150 -0.1750
17337TIP3    H173502   4.260   5.817  12.552  0.8542 -2.0513 -0.4461
17337TIP3    H273503   4.156   5.809  12.661  0.2372 -0.2284 -0.8746
17338TIP3   OH273504   0.161   5.387  12.318  0.0965  0.4588  0.1305
17338TIP3    H173505   0.242   5.338  12.334 -0.2175  0.2721  1.2322
17338TIP3    H273506   0.163   5.406  12.225  0.9254 -0.4159 -0.0476
17339TIP3   OH273507   6.179   6.650   4.097 -0.0570 -0.4252 -0.7226
17339TIP3    H173508   6.220   6.565   4.082  0.5461 -0.1689 -0.5469
17339TIP3    H273509   6.107   6.631   4.157 -0.4177 -0.9316 -1.3089
17340TIP3   OH273510   4.560   3.608   3.567 -0.2331 -0.2296 -0.2044
17340TIP3    H173511   4.596   3.536   3.618  0.9183  1.0140  0.8067
17340TIP3    H273512   4.572   3.686   3.622 -2.8198  0.5559 -0.6125
17341TIP3   OH273513   3.125   4.682  13.359  0.2008  0.1514  0.8443
17341TIP3    H173514   3.132   4.687  13.455  2.9409  0.7684  0.6856
17341TIP3    H273515   3.197   4.735  13.327 -0.3635 -0.4467 -1.5893
17342TIP3   OH273516   0.625   0.411   0.488 -0.5941  0.1663 -0.2907
17342TIP3    H173517   0.700   0.353   0.477 -0.1250  0.4671  1.1231
17342TIP3    H273518   0.661   0.500   0.481 -0.5962  0.3356  1.4251
17343TIP3   OH273519   6.083   3.122  11.458 -0.0104 -0.3337  0.1522
17343TIP3    H173520   6.008   3.173  11.489 -0.0434 -0.1318 -0.2520
17343TIP3    H273521   6.132   3.184  11.404 -0.0639 -0.7471 -0.3643
17344TIP3   OH273522   1.150   4.843   2.959 -0.1735  0.5645  0.1878
17344TIP3    H173523   1.245   4.827   2.958 -0.2848 -0.1770  0.9964
17344TIP3    H273524   1.111   4.761   2.930 -0.5550  1.1093 -0.8933
17345TIP3   OH273525   1.733   0.785   3.150  0.2506  0.0577 -0.4471
17345TIP3    H173526   1.638   0.794   3.149  0.3610  1.7518 -2.3449
17345TIP3    H273527   1.764   0.854   3.208  0.3580  0.3224 -0.8133
17346TIP3   OH273528   0.784   6.190   2.828 -0.0338 -0.0003 -0.5342
17346TIP3    H173529   0.846   6.259   2.854 -1.7280  0.9067  1.3451
17346TIP3    H273530   0.831   6.108   2.846  0.7370  0.6593  0.5849
17347TIP3   OH273531   2.690   0.081  11.703 -0.4377 -0.0490  0.2575
17347TIP3    H173532   2.731   0.104  11.786  0.3696 -1.4761  0.2824
17347TIP3    H273533   2.742   0.127  11.637 -1.1414  1.1683  0.5206
17348TIP3   OH273534   3.796   0.204  11.352 -0.5849 -0.2453 -0.1982
17348TIP3    H173535   3.850   0.130  11.380  0.3434 -0.8851 -3.2849
17348TIP3    H273536   3.852   0.253  11.292 -1.7621  2.0779  0.4724
17349TIP3   OH273537   3.936   1.305   5.504  0.1023  0.4306  0.1231
17349TIP3    H173538   3.912   1.236   5.566  2.9043  0.2709  1.1464
17349TIP3    H273539   4.027   1.325   5.523  1.2688  0.1877 -4.1645
17350TIP3   OH273540   1.959   0.111   1.684  0.3459 -0.2368 -0.1279
17350TIP3    H173541   1.933   0.071   1.602 -0.2242  0.8069 -0.4734
17350TIP3    H273542   1.882   0.104   1.740 -0.6973  2.5631 -1.0411
17351TIP3   OH273543   5.208   3.775   1.659  0.0942 -0.5025 -0.4210
17351TIP3    H173544   5.140   3.774   1.593  0.5087  1.7168 -0.9592
17351TIP3    H273545   5.277   3.829   1.622  1.4466 -1.2997  0.8037
17352TIP3   OH273546   6.047   2.827   0.880 -0.3400 -0.2912  0.7091
17352TIP3    H173547   6.105   2.811   0.805  0.2334  0.3074  1.0145
17352TIP3    H273548   6.106   2.850   0.952 -0.9889  3.1971  0.3384
17353TIP3   OH273549   0.258   1.095  14.242  0.1903 -0.0311  0.3226
17353TIP3    H173550   0.349   1.111  14.267  0.4247 -0.5456 -0.1823
17353TIP3    H273551   0.214   1.072  14.324 -0.0444  2.4894  1.0124
17354TIP3   OH273552   4.252   0.191  11.025  0.3749  0.2387 -0.5057
17354TIP3    H173553   4.294   0.277  11.018 -2.1065  1.4689 -1.7333
17354TIP3    H273554   4.222   0.173  10.936 -1.6637 -0.5265  0.3011
17355TIP3   OH273555   5.608   1.153  10.262 -0.5100  0.1397  0.3553
17355TIP3    H173556   5.562   1.141  10.345 -1.2187 -1.2821 -0.2053
17355TIP3    H273557   5.561   1.226  10.220  0.0436  1.0658  1.3016
17356TIP3   OH273558   3.059   2.138  15.910  0.0664  0.0397  0.3283
17356TIP3    H173559   3.089   2.129  15.819  1.5339 -0.6223  0.8461
17356TIP3    H273560   2.966   2.116  15.906  0.2829 -0.8093 -0.8969
17357TIP3   OH273561   5.189   3.984   0.237 -0.4062 -0.4627 -0.5733
17357TIP3    H173562   5.249   3.926   0.189 -0.6655 -0.7355 -0.5711
17357TIP3    H273563   5.115   3.928   0.259 -0.0917 -0.4710  0.5578
17358TIP3   OH273564   4.799   3.021  16.846 -0.0806 -0.0302 -0.1133
17358TIP3    H173565   4.870   2.959  16.864 -0.8336 -1.6098 -2.2120
17358TIP3    H273566   4.812   3.091  16.910  2.0794 -1.3036  0.9625
17359TIP3   OH273567   1.900   5.346   5.964 -0.2838  0.1054  0.1794
17359TIP3    H173568   1.969   5.348   5.899 -0.3451 -0.0973  0.1066
17359TIP3    H273569   1.917   5.422   6.020  0.9562 -0.8275  1.1430
17360TIP3   OH273570   3.006   5.184  14.902 -0.1918 -0.7613  0.4092
17360TIP3    H173571   3.075   5.244  14.929  0.2504 -0.9997 -0.1715
17360TIP3    H273572   3.052   5.108  14.867 -0.7483 -1.1317  0.4543
17361TIP3   OH273573   6.568   2.935  13.832  0.0644 -0.6107 -0.2328
17361TIP3    H173574   6.623   2.857  13.818 -0.2666 -0.4438 -3.1222
17361TIP3    H273575   6.505   2.932  13.760  0.1780  2.4280 -0.5855
17362TIP3   OH273576   1.512   6.641   1.586 -0.6784 -0.0035  0.3020
17362TIP3    H173577   1.492   6.554   1.621  1.4207 -0.0330  1.6065
17362TIP3    H273578   1.509   6.630   1.491  0.2186 -1.7027  0.4309
17363TIP3   OH273579   2.314   0.486   5.419  0.2987 -0.1993  0.0338
17363TIP3    H173580   2.394   0.534   5.442 -0.1605  0.7598 -0.3209
17363TIP3    H273581   2.275   0.538   5.348 -0.1964 -1.1249 -0.3843
17364TIP3   OH273582   3.634   2.410   2.336 -0.4581  0.0570  0.7571
17364TIP3    H173583   3.672   2.377   2.255 -0.6860  0.9098  0.2882
17364TIP3    H273584   3.702   2.396   2.403 -0.7051 -1.6970  0.6678
17365TIP3   OH273585   2.795   2.059  12.299 -0.5542 -0.1082 -0.6195
17365TIP3    H173586   2.820   2.006  12.224  0.3712  0.7508 -0.9449
17365TIP3    H273587   2.865   2.124  12.307 -0.2850 -0.5614  1.3762
17366TIP3   OH273588   4.899   0.535  14.994  0.2442  0.5844 -0.3872
17366TIP3    H173589   4.973   0.572  14.946  0.4885  0.0299 -0.4474
17366TIP3    H273590   4.939   0.477  15.059 -0.1328  0.3175 -0.3875
17367TIP3   OH273591   3.764   5.205   5.697 -0.2570  0.1413 -0.4132
17367TIP3    H173592   3.851   5.213   5.736  0.6852 -0.9414 -2.1533
17367TIP3    H273593   3.770   5.254   5.615 -1.2492 -0.0559 -0.6151
17368TIP3   OH273594   6.829   5.743   2.751  0.4503 -0.5922 -0.2727
17368TIP3    H173595   6.845   5.830   2.786 -0.1271 -0.6439  0.1265
17368TIP3    H273596   6.899   5.729   2.687 -1.1993  1.4242 -2.6952
17369TIP3   OH273597   1.278   1.299   0.573 -0.7030 -0.0184  0.2664
17369TIP3    H173598   1.266   1.299   0.668 -0.9541  0.5354  0.2380
17369TIP3    H273599   1.371   1.278   0.561 -0.6307  0.0793  0.6375
17370TIP3   OH273600   3.107   1.235  15.373  0.3861  0.8463  0.5681
17370TIP3    H173601   3.051   1.157  15.379  0.9291  0.5299  1.8899
17370TIP3    H273602   3.196   1.201  15.382  0.5924  1.6639  1.8597
17371TIP3   OH273603   2.250   6.668  16.550  0.5380  0.6258 -0.5179
17371TIP3    H173604   2.307   6.598  16.581  1.6453  2.1595  1.1279
17371TIP3    H273605   2.294   6.701  16.471  0.7455  0.3822 -0.5069
17372TIP3   OH273606   4.045   2.004   1.339 -0.2262  0.3906 -0.3026
17372TIP3    H173607   4.083   1.992   1.252 -0.1406  1.3912 -0.4149
17372TIP3    H273608   3.985   1.930   1.349 -0.5664  0.4935 -1.3914
17373TIP3   OH273609   3.924   0.399  16.742  0.7139 -0.4002  0.4339
17373TIP3    H173610   3.863   0.329  16.762 -1.5665  1.0865 -0.8915
17373TIP3    H273611   3.918   0.411  16.647  0.3814  2.0916  0.6938
17374TIP3   OH273612   5.188   4.220   0.383 -0.1093 -0.0380  0.1146
17374TIP3    H173613   5.273   4.263   0.393 -0.9280  1.4910  0.7284
17374TIP3    H273614   5.195   4.173   0.300  1.5092 -0.3803  0.4059
17375TIP3   OH273615   2.966   1.310   5.826 -0.5140 -0.2710  0.7107
17375TIP3    H173616   3.058   1.284   5.829 -0.3587  0.2760  0.9381
17375TIP3    H273617   2.962   1.377   5.757 -0.4217  0.8369  1.7399
17376TIP3   OH273618   0.146   4.051  10.799 -0.1222  0.1493  0.0603
17376TIP3    H173619   0.083   4.110  10.758  0.9043  0.7017 -0.8098
17376TIP3    H273620   0.112   3.963  10.782  0.3135  0.3445 -2.2029
17377TIP3   OH273621   4.684   5.030   6.094 -0.0567 -0.1700 -0.1884
17377TIP3    H173622   4.730   4.957   6.052 -1.5612  0.4707 -3.1886
17377TIP3    H273623   4.748   5.101   6.094  0.9752 -1.0302  1.5527
17378TIP3   OH273624   3.069   6.384  11.872  0.0671  0.1078  0.5545
17378TIP3    H173625   3.112   6.345  11.948  1.3758 -1.4110 -0.9144
17378TIP3    H273626   3.013   6.315  11.838 -1.1069  1.0279  0.5243
17379TIP3   OH273627   5.931   5.768  14.199  0.1621 -0.1939 -0.1083
17379TIP3    H173628   5.911   5.846  14.146  0.9679 -0.0702 -0.2468
17379TIP3    H273629   5.943   5.699  14.134 -0.3092 -0.3813  0.0016
17380TIP3   OH273630   2.363   6.406   6.021 -0.6312 -0.3691 -0.1612
17380TIP3    H173631   2.349   6.497   6.046  2.1456 -0.1793  1.0945
17380TIP3    H273632   2.407   6.410   5.937  1.2170 -0.3834  0.7531
17381TIP3   OH273633   1.102   1.916  12.500  0.3859  0.1655  0.1117
17381TIP3    H173634   1.181   1.962  12.527  0.7553 -0.5803  0.3164
17381TIP3    H273635   1.128   1.825  12.494 -0.4838 -0.1016  0.2764
17382TIP3   OH273636   5.078   0.385  12.174 -0.2000 -0.1418 -0.4037
17382TIP3    H173637   5.166   0.386  12.211 -0.1192 -1.6186 -0.4989
17382TIP3    H273638   5.020   0.373  12.249 -0.3474  0.9230 -0.3299
17383TIP3   OH273639   4.630   5.214   0.799  0.2649  0.5692  0.4828
17383TIP3    H173640   4.707   5.159   0.813  1.2112  2.0000  1.1608
17383TIP3    H273641   4.622   5.221   0.703  0.1463 -0.6824  0.3919
17384TIP3   OH273642   4.128   0.919  16.948 -0.0550  0.0290  0.3713
17384TIP3    H173643   4.056   0.863  16.977 -0.3979  0.8668  1.1741
17384TIP3    H273644   4.187   0.860  16.901 -0.4325 -0.9925  1.1421
17385TIP3   OH273645   4.850   0.380  11.402 -0.1584  0.2499 -0.4311
17385TIP3    H173646   4.857   0.458  11.348  2.4357  1.1178  0.9716
17385TIP3    H273647   4.856   0.412  11.492  0.3786 -1.4914  0.2056
17386TIP3   OH273648   3.064   0.516   3.678 -0.0296 -0.5768 -0.2260
17386TIP3    H173649   3.102   0.450   3.736 -0.9293  0.5037  1.6535
17386TIP3    H273650   3.079   0.599   3.723 -2.7752  0.0926 -0.3999
17387TIP3   OH273651   4.677   1.631   2.111 -0.6482  0.5534 -0.4570
17387TIP3    H173652   4.705   1.687   2.184 -0.9563 -1.5131  1.3340
17387TIP3    H273653   4.600   1.585   2.144  0.3906 -1.9476 -1.2990
17388TIP3   OH273654   4.539   5.368   4.475  0.1715 -0.0404 -0.0989
17388TIP3    H173655   4.494   5.361   4.391  1.0942  0.4445 -0.6557
17388TIP3    H273656   4.547   5.278   4.505  0.5900 -0.3016 -0.9523
17389TIP3   OH273657   0.533   6.045  14.214  0.4316 -0.2425  0.0385
17389TIP3    H173658   0.452   5.996  14.199 -0.1944  0.6372  0.4370
17389TIP3    H273659   0.504   6.127  14.256  1.7001 -0.7822  2.1356
17390TIP3   OH273660   4.043   6.127   4.065  0.4373  0.7415 -0.0542
17390TIP3    H173661   3.974   6.189   4.088  0.6588  0.3875  1.7498
17390TIP3    H273662   4.074   6.094   4.149  0.8849 -1.2078 -0.9276
17391TIP3   OH273663   0.466   2.357   5.273 -0.1653  0.0032  0.0757
17391TIP3    H173664   0.426   2.380   5.357 -0.6081  0.2516 -0.2000
17391TIP3    H273665   0.396   2.313   5.225  0.4521 -1.2810  0.3116
17392TIP3   OH273666   6.113   6.307   5.313  0.2735  0.3546 -0.1246
17392TIP3    H173667   6.164   6.238   5.271 -0.9986 -0.5910 -0.1685
17392TIP3    H273668   6.132   6.386   5.263  2.5154  0.2929  0.5103
17393TIP3   OH273669   4.640   0.809  12.731 -0.0520 -0.2414  0.1983
17393TIP3    H173670   4.632   0.788  12.824 -1.9402  0.1725  0.1638
17393TIP3    H273671   4.641   0.905  12.728  0.3464 -0.2510 -0.2006
17394TIP3   OH273672   6.479   6.663   3.965  0.1129  0.2626 -0.6627
17394TIP3    H173673   6.442   6.752   3.973  1.8646  1.0375 -0.6907
17394TIP3    H273674   6.487   6.633   4.056 -1.8997 -0.5428 -0.6910
17395TIP3   OH273675   5.139   2.183  11.951  0.4339 -0.1424 -0.0121
17395TIP3    H173676   5.217   2.131  11.970  0.1002 -0.7558 -0.2941
17395TIP3    H273677   5.129   2.177  11.856  1.5402  2.1041 -0.3245
17396TIP3   OH273678   1.462   3.301   5.089 -0.4254  0.7083  0.4748
17396TIP3    H173679   1.518   3.375   5.068  0.8103  0.2444  1.9651
17396TIP3    H273680   1.481   3.236   5.020 -0.6842  1.3239 -0.1912
17397TIP3   OH273681   2.080   1.276   0.052  0.4212  0.5942 -0.2895
17397TIP3    H173682   2.065   1.329   0.130  0.5133  2.0242 -1.2062
17397TIP3    H273683   2.109   1.339  -0.015 -0.6234 -0.4335 -1.7657
17398TIP3   OH273684   0.220   2.116   0.808  0.2174  0.7259  0.2109
17398TIP3    H173685   0.247   2.109   0.900 -0.4917  0.2096  0.3901
17398TIP3    H273686   0.184   2.204   0.800 -2.8168 -0.2704  1.3284
17399TIP3   OH273687   5.814   0.640  14.646 -0.1136 -0.2445 -0.5396
17399TIP3    H173688   5.870   0.652  14.723 -0.3937  1.1713 -0.5376
17399TIP3    H273689   5.870   0.596  14.582  1.1516  1.4946 -0.6785
17400TIP3   OH273690   0.568   1.045  16.288 -0.2716 -0.0838  0.4057
17400TIP3    H173691   0.494   0.999  16.326 -0.1971  0.1008  0.7764
17400TIP3    H273692   0.641   1.029  16.348  0.1043 -0.6204 -0.1690
17401TIP3   OH273693   6.115   0.853   5.286  0.2943  0.5163  0.1643
17401TIP3    H173694   6.171   0.893   5.219  0.5552  0.8151  0.5627
17401TIP3    H273695   6.044   0.812   5.236 -0.4311  2.1680 -0.2136
17402TIP3   OH273696   3.406   4.701   0.381  0.3408 -0.8241 -0.2101
17402TIP3    H173697   3.465   4.732   0.450  0.3079 -1.1753 -0.0227
17402TIP3    H273698   3.323   4.685   0.426  1.3096 -4.7693  0.5098
17403TIP3   OH273699   6.354   5.788   0.207 -0.4464 -0.1377 -0.4574
17403TIP3    H173700   6.395   5.825   0.286 -0.8895  0.1352 -0.3523
17403TIP3    H273701   6.405   5.825   0.135 -0.3553  0.0151 -0.3178
17404TIP3   OH273702   6.669   1.867  11.586  0.0884 -0.0535 -0.2961
17404TIP3    H173703   6.677   1.801  11.655  1.7221 -1.3038 -1.5867
17404TIP3    H273704   6.592   1.918  11.610 -0.3291 -1.4536  1.5753
17405TIP3   OH273705   1.435   1.751  14.185  0.2316 -1.1707 -0.6177
17405TIP3    H173706   1.430   1.685  14.255  0.5173 -2.2159 -1.5531
17405TIP3    H273707   1.345   1.764  14.157  0.1396 -0.9091 -0.2064
17406TIP3   OH273708   5.035   3.656   3.474  0.2375 -0.3169 -0.0474
17406TIP3    H173709   4.950   3.613   3.482  0.7327 -1.2222  0.5506
17406TIP3    H273710   5.080   3.606   3.405  0.4004 -0.0304 -0.1506
17407TIP3   OH273711   0.111   6.815   3.011 -0.1603  0.3427 -0.2725
17407TIP3    H173712   0.196   6.836   3.049  0.6715 -2.7819 -0.1271
17407TIP3    H273713   0.048   6.833   3.081  0.7378 -0.0566  0.6584
17408TIP3   OH273714   1.115   0.924  14.989 -0.0396  0.0283  0.0403
17408TIP3    H173715   1.113   0.988  14.918 -1.1389 -1.3410 -1.2381
17408TIP3    H273716   1.037   0.870  14.975  0.4307 -1.0985  1.5089
17409TIP3   OH273717   2.917   0.385   1.800 -0.1603  0.4964  0.5862
17409TIP3    H173718   2.987   0.450   1.788  1.7656 -1.6022 -0.2501
17409TIP3    H273719   2.937   0.343   1.883 -0.5373 -0.0376  0.4085
17410TIP3   OH273720   0.544   3.790   6.512  0.0269 -0.1516  0.4553
17410TIP3    H173721   0.455   3.768   6.541  0.4941 -1.7561  0.7785
17410TIP3    H273722   0.600   3.726   6.557  1.3010  0.5517 -0.0934
17411TIP3   OH273723   0.769   0.597   2.384 -0.0828  0.0473  0.2880
17411TIP3    H173724   0.693   0.652   2.405 -0.6390 -1.1744  1.6185
17411TIP3    H273725   0.845   0.651   2.407 -0.5193  1.1323 -0.6720
17412TIP3   OH273726   6.710   0.495   5.384 -0.0284 -0.0357  0.0084
17412TIP3    H173727   6.681   0.581   5.416 -1.2294 -0.7070  0.8050
17412TIP3    H273728   6.630   0.443   5.379  0.6763 -1.1131 -0.4939
17413TIP3   OH273729   3.251   6.298   3.825 -0.3746 -0.0140 -0.2614
17413TIP3    H173730   3.328   6.277   3.771 -1.0263  0.0092 -1.2146
17413TIP3    H273731   3.235   6.391   3.808 -0.3787  0.0756  0.2378
17414TIP3   OH273732   5.378   1.557  14.095 -0.1368 -0.1230  0.5401
17414TIP3    H173733   5.441   1.513  14.152 -0.8341  0.1316  1.5265
17414TIP3    H273734   5.336   1.622  14.151 -1.1209 -0.1326 -0.1640
17415TIP3   OH273735   4.874   0.240  15.899  0.0045 -0.4100 -0.1997
17415TIP3    H173736   4.862   0.181  15.974 -0.2851 -2.2127 -1.6044
17415TIP3    H273737   4.830   0.195  15.826  0.9521  0.9153 -1.6328
17416TIP3   OH273738   2.816   6.507   5.325 -0.0119 -0.1464 -0.4411
17416TIP3    H173739   2.808   6.596   5.291  0.2369 -0.1881 -0.6060
17416TIP3    H273740   2.910   6.492   5.330 -0.0180 -1.2720 -2.6643
17417TIP3   OH273741   6.047   3.294  10.839  0.4663 -0.2649 -0.4136
17417TIP3    H173742   6.074   3.318  10.750  0.4313  0.2065 -0.2967
17417TIP3    H273743   6.097   3.215  10.859 -0.7532 -1.3633 -1.5044
17418TIP3   OH273744   5.458   5.084  15.297 -0.4694  0.1460 -0.5392
17418TIP3    H173745   5.458   5.137  15.217  1.5732  0.4743 -0.3650
17418TIP3    H273746   5.435   5.147  15.367  0.1778  0.4042 -0.5579
17419TIP3   OH273747   0.341   5.014   2.610  0.8225 -0.0249 -0.3035
17419TIP3    H173748   0.406   4.985   2.674 -1.0066 -3.4696  0.2360
17419TIP3    H273749   0.383   5.002   2.525  1.8484  0.5964  0.1061
17420TIP3   OH273750   6.201   3.255   5.463  0.3935 -0.0791 -0.0912
17420TIP3    H173751   6.196   3.314   5.388  1.8406  0.7002  0.4019
17420TIP3    H273752   6.160   3.303   5.534 -1.4062 -1.0022 -0.4441
17421TIP3   OH273753   1.025   2.182  16.567 -0.8819  0.0836 -0.1200
17421TIP3    H173754   0.978   2.207  16.487 -2.8345 -2.9084 -0.0805
17421TIP3    H273755   1.078   2.106  16.540 -1.3530 -0.7959  1.3318
17422TIP3   OH273756   2.706   5.868  12.058  0.3936 -0.1171  0.2160
17422TIP3    H173757   2.707   5.783  12.102  0.9936 -0.4054 -0.3346
17422TIP3    H273758   2.616   5.878  12.025  0.6449 -1.1308 -0.8302
17423TIP3   OH273759   4.229   5.110  16.875 -0.1988 -0.3808  0.2224
17423TIP3    H173760   4.209   5.147  16.961  0.9089 -0.7495  0.6653
17423TIP3    H273761   4.242   5.016  16.892  2.5122 -0.1184  0.1787
17424TIP3   OH273762   6.084   5.083   2.639  0.6212  0.3740 -0.0247
17424TIP3    H173763   6.027   5.134   2.697  0.3299 -0.7678  0.7201
17424TIP3    H273764   6.169   5.081   2.684  0.3506 -0.6519  0.4643
17425TIP3   OH273765   0.971   3.089  16.954  0.2521  0.1365 -0.5444
17425TIP3    H173766   1.019   3.037  17.019 -0.0804  0.1104 -0.3190
17425TIP3    H273767   0.889   3.112  16.997 -0.6349 -1.1337 -1.4632
17426TIP3   OH273768   6.561   2.500   4.737  0.8049 -0.2830 -0.0127
17426TIP3    H173769   6.589   2.575   4.789  1.5178  0.0290 -0.8202
17426TIP3    H273770   6.505   2.537   4.669 -0.9102 -0.7988  1.0567
17427TIP3   OH273771   4.177   1.260   2.441  0.7338  0.0660 -0.4694
17427TIP3    H173772   4.190   1.221   2.354  0.7479 -0.0393 -0.4191
17427TIP3    H273773   4.086   1.240   2.463  0.7338  0.0835 -0.4543
17428TIP3   OH273774   6.431   0.104  17.000 -0.2721  0.7870 -0.6627
17428TIP3    H173775   6.450   0.075  17.089  1.7317  0.3421 -1.1721
17428TIP3    H273776   6.431   0.024  16.948 -1.2081  1.0624 -1.1021
17429TIP3   OH273777   5.474   5.607   2.286  0.2561 -0.3503  0.2842
17429TIP3    H173778   5.489   5.578   2.376  0.5263 -0.8988  0.0641
17429TIP3    H273779   5.501   5.699   2.286 -2.8848  0.7169  1.5929
17430TIP3   OH273780   5.404   4.092   5.969 -0.3923  0.3974  0.0673
17430TIP3    H173781   5.439   4.181   5.973 -0.2145  0.3171  0.3541
17430TIP3    H273782   5.373   4.074   6.058 -1.1980  0.4790 -0.1920
17431TIP3   OH273783   1.880   4.439   0.667  0.4177  0.2627  0.1198
17431TIP3    H173784   1.852   4.399   0.749  0.0126 -2.4091 -1.2020
17431TIP3    H273785   1.960   4.392   0.643  0.0415  0.3299 -1.4098
17432TIP3   OH273786   1.884   1.812   5.925 -0.4452 -0.0801 -0.1228
17432TIP3    H173787   1.864   1.793   5.834 -1.9922  0.3595  0.1020
17432TIP3    H273788   1.890   1.727   5.967 -1.8561 -0.2391 -0.2161
17433TIP3   OH273789   2.584   0.367  16.105 -0.3198 -0.1174 -0.0483
17433TIP3    H173790   2.541   0.451  16.086 -0.5859 -0.6075 -1.8792
17433TIP3    H273791   2.525   0.323  16.167  0.0995  1.2280  1.3611
17434TIP3   OH273792   5.543   3.022  14.949 -0.1548 -0.3058  0.0079
17434TIP3    H173793   5.609   2.980  15.004  0.5640  0.4527 -0.2510
17434TIP3    H273794   5.532   2.963  14.875 -1.7389 -1.7637  1.3025
17435TIP3   OH273795   1.673   4.344  12.090 -0.1943 -0.0067  0.2433
17435TIP3    H173796   1.587   4.312  12.065  0.5177 -0.0795 -2.4132
17435TIP3    H273797   1.655   4.408  12.159 -2.3483 -0.1368 -0.1233
17436TIP3   OH273798   3.825   2.916   2.256  0.6872  0.6013  0.2059
17436TIP3    H173799   3.918   2.941   2.257  0.9035  0.2659 -2.5221
17436TIP3    H273800   3.822   2.830   2.297  1.8985 -0.1008 -1.0881
17437TIP3   OH273801   4.802   1.914   5.978 -0.2767 -0.4121 -0.1490
17437TIP3    H173802   4.728   1.972   5.958  0.2045 -0.0452 -0.8809
17437TIP3    H273803   4.770   1.826   5.956 -1.3407 -0.5934  1.8365
17438TIP3   OH273804   6.623   4.326   3.318 -0.2609 -0.4820 -0.1830
17438TIP3    H173805   6.614   4.418   3.343 -0.3057 -0.3450 -0.6889
17438TIP3    H273806   6.609   4.325   3.224  0.8480 -0.8481 -0.3657
17439TIP3   OH273807   0.795   3.868   5.441  0.2980  0.1384  0.4223
17439TIP3    H173808   0.711   3.912   5.430  0.1838  0.0393  0.8844
17439TIP3    H273809   0.856   3.918   5.386  0.3621  1.4323  1.6203
17440TIP3   OH273810   1.166   0.113   5.972 -0.2848 -0.6605  0.4717
17440TIP3    H173811   1.210   0.126   6.056 -0.0228 -1.1132  0.4098
17440TIP3    H273812   1.220   0.048   5.927 -0.0742  0.0280 -0.2991
17441TIP3   OH273813   5.317   4.178   1.187  0.0280  0.6934  0.2348
17441TIP3    H173814   5.400   4.134   1.205  1.8733  3.8192  0.1907
17441TIP3    H273815   5.251   4.122   1.227  1.8494 -2.9364 -1.3461
17442TIP3   OH273816   1.566   5.753  11.300 -0.4271  0.1726  0.1631
17442TIP3    H173817   1.660   5.769  11.312 -0.3851  0.6149 -0.6632
17442TIP3    H273818   1.557   5.732  11.207 -0.9490 -1.3971  0.5495
17443TIP3   OH273819   3.151   2.600   1.659 -0.6788  0.0523  0.0319
17443TIP3    H173820   3.194   2.671   1.611 -0.5664  0.1007  0.2044
17443TIP3    H273821   3.096   2.646   1.723 -2.9051  0.0981 -1.7624
17444TIP3   OH273822   5.216   4.224   4.889 -0.2943  0.1651  0.0828
17444TIP3    H173823   5.284   4.290   4.903  0.3287 -0.8450  2.2458
17444TIP3    H273824   5.264   4.146   4.860 -0.7683  0.0454 -0.3802
17445TIP3   OH273825   4.614   6.434   1.235 -0.2380 -0.2719 -0.2428
17445TIP3    H173826   4.598   6.493   1.310  0.9634  1.8459 -1.5575
17445TIP3    H273827   4.615   6.347   1.274 -2.5405  0.4582  1.7523
17446TIP3   OH273828   5.420   2.750   4.168  0.0185  0.1392 -0.1000
17446TIP3    H173829   5.422   2.708   4.253  2.3396  0.6117  0.1231
17446TIP3    H273830   5.337   2.797   4.167 -0.4824 -0.6406  1.4933
17447TIP3   OH273831   0.912   4.055   4.072 -0.8353 -0.5225 -0.4417
17447TIP3    H173832   0.951   4.006   4.000 -1.3313 -0.7406 -0.5650
17447TIP3    H273833   0.828   4.012   4.087 -0.1666 -1.3646  1.1706
17448TIP3   OH273834   5.104   3.338   0.893 -0.1757 -0.2990 -0.6488
17448TIP3    H173835   5.117   3.250   0.926  0.0869 -1.0981 -2.7561
17448TIP3    H273836   5.192   3.375   0.887 -0.2941  0.1838  0.3501
17449TIP3   OH273837   4.864   2.201   1.741  0.1722  0.1188  0.2326
17449TIP3    H173838   4.789   2.168   1.791  1.4429  0.9856  2.8550
17449TIP3    H273839   4.865   2.147   1.662 -3.0712 -0.0427  0.1586
17450TIP3   OH273840   4.941   1.035  12.860  0.1722  0.0765  0.1591
17450TIP3    H173841   4.971   1.109  12.807 -0.8834 -0.2725 -0.9569
17450TIP3    H273842   4.998   0.962  12.835  0.5861  0.2494  0.5626
17451TIP3   OH273843   6.305   6.495  12.259 -0.1441  0.3677 -0.2457
17451TIP3    H173844   6.336   6.541  12.181 -0.7639 -0.4562 -0.9953
17451TIP3    H273845   6.225   6.451  12.231 -0.4220  0.1118  0.8800
17452TIP3   OH273846   3.771   3.433   2.712 -0.0907  0.2278 -0.2904
17452TIP3    H173847   3.783   3.338   2.708 -0.7401  0.0280  1.5951
17452TIP3    H273848   3.830   3.467   2.644 -0.7809 -1.5523 -1.8792
17453TIP3   OH273849   4.028   5.226   1.935  0.1216 -0.5048  0.4790
17453TIP3    H173850   4.119   5.254   1.949  0.3370 -0.6731 -0.4909
17453TIP3    H273851   3.982   5.306   1.909 -0.1707 -0.2841  1.6409
17454TIP3   OH273852   1.670   3.622  16.061 -0.0688 -0.6718 -1.2116
17454TIP3    H173853   1.756   3.653  16.089  1.7482 -3.6256 -2.9851
17454TIP3    H273854   1.643   3.684  15.993  0.8073  0.1219 -0.8566
17455TIP3   OH273855   4.517   5.748   0.095  0.3278 -0.4441  0.2057
17455TIP3    H173856   4.450   5.697   0.050  3.4295 -2.7202 -2.3661
17455TIP3    H273857   4.523   5.829   0.044  0.3359 -0.7856 -0.3546
17456TIP3   OH273858   1.284   2.567   6.524 -0.0480 -0.2387  0.3248
17456TIP3    H173859   1.203   2.526   6.554 -0.5331 -0.0196 -0.6554
17456TIP3    H273860   1.319   2.610   6.603 -1.9368  1.3946  0.3603
17457TIP3   OH273861   2.191   3.884   2.213  0.6097  0.7395  0.1225
17457TIP3    H173862   2.133   3.958   2.232  0.5131  0.4309  1.1003
17457TIP3    H273863   2.137   3.826   2.159 -0.0802  0.3696  1.1745
17458TIP3   OH273864   0.791   6.040   3.751  0.4294  0.2960 -0.1152
17458TIP3    H173865   0.730   6.114   3.756  0.8080  0.5769  0.4790
17458TIP3    H273866   0.875   6.077   3.778  0.2850 -0.7189  1.8868
17459TIP3   OH273867   0.866   0.423  15.414  0.5752  0.3904 -0.0883
17459TIP3    H173868   0.941   0.458  15.364 -0.1084 -0.0852 -1.4943
17459TIP3    H273869   0.888   0.331  15.428  1.1032  0.6827  1.1964
17460TIP3   OH273870   2.963   1.764  14.748  0.2808 -0.5586  0.0496
17460TIP3    H173871   2.975   1.805  14.834 -0.8998 -1.5504  0.7255
17460TIP3    H273872   2.999   1.827  14.686 -0.9721  1.2386  1.0829
17461TIP3   OH273873   1.710   3.430  12.260  0.4269  0.3815  0.1639
17461TIP3    H173874   1.628   3.402  12.300  0.7608 -1.0188 -0.0908
17461TIP3    H273875   1.778   3.404  12.322  0.6006  3.8220  1.6182
17462TIP3   OH273876   2.840   2.463   2.206  0.2919 -0.5838 -0.2363
17462TIP3    H173877   2.767   2.435   2.260 -0.5522 -0.3967 -1.2558
17462TIP3    H273878   2.805   2.535   2.152  1.5786  0.4030  0.1745
17463TIP3   OH273879   3.973   6.080   1.465 -0.1827 -0.2384  0.6099
17463TIP3    H173880   3.973   6.163   1.418  0.4483 -0.3361  0.4387
17463TIP3    H273881   4.020   6.097   1.546  0.6680 -0.6306  0.2073
17464TIP3   OH273882   0.708   5.096   4.662 -0.1025  0.3566  0.4232
17464TIP3    H173883   0.691   5.023   4.721 -1.4354  0.7875  0.6094
17464TIP3    H273884   0.711   5.173   4.718 -1.0222  0.7238 -0.0039
17465TIP3   OH273885   5.571   0.065  15.369 -0.1412 -0.4959  0.0098
17465TIP3    H173886   5.499   0.126  15.387  2.4680  2.2256  2.4595
17465TIP3    H273887   5.637   0.120  15.327  1.3032 -2.3697 -0.2552
17466TIP3   OH273888   0.270   0.876   5.796 -0.6952  0.0094  0.1503
17466TIP3    H173889   0.363   0.870   5.819 -0.6150  1.2615  0.1870
17466TIP3    H273890   0.231   0.799   5.837  0.4321 -0.9038 -0.4370
17467TIP3   OH273891   1.734   4.691  15.598 -0.0569 -0.2138 -0.1749
17467TIP3    H173892   1.679   4.711  15.674  0.3470 -2.5344  0.8138
17467TIP3    H273893   1.713   4.759  15.535 -2.7099  0.0510  0.8612
17468TIP3   OH273894   1.315   5.047   4.543  0.3157  0.1124  0.2911
17468TIP3    H173895   1.305   5.130   4.497 -0.2149 -0.4344 -0.6153
17468TIP3    H273896   1.388   5.003   4.497  1.3431  0.5311  1.4739
17469TIP3   OH273897   3.570   1.167  12.497  0.0156  0.0274 -0.2327
17469TIP3    H173898   3.525   1.092  12.536 -1.7669  1.4329  0.5412
17469TIP3    H273899   3.579   1.230  12.568  1.7254  0.4950 -0.8049
17470TIP3   OH273900   6.755   0.812  14.839 -0.3716  0.2291 -0.2746
17470TIP3    H173901   6.732   0.903  14.859  0.5320  0.1270  1.4297
17470TIP3    H273902   6.687   0.783  14.778 -2.5407  1.1049  1.5620
17471TIP3   OH273903   4.875   5.217   6.033 -0.2644  0.5796  0.1531
17471TIP3    H173904   4.876   5.221   5.937  0.8454 -1.8518 -0.0285
17471TIP3    H273905   4.964   5.239   6.059  0.7314 -2.9053  0.2162
17472TIP3   OH273906   1.320   6.308  14.280  0.4097  0.1121  0.4608
17472TIP3    H173907   1.282   6.281  14.363  0.1086  0.4573  0.4407
17472TIP3    H273908   1.248   6.353  14.234  1.0753  1.6225  0.8200
17473TIP3   OH273909   5.867   3.096   5.502 -0.2821  0.0922 -0.3968
17473TIP3    H173910   5.959   3.069   5.505 -0.0690  0.8211  2.1776
17473TIP3    H273911   5.819   3.020   5.535 -0.2324  0.7816  1.3760
17474TIP3   OH273912   0.812   4.095  16.836  0.1709  0.0205  0.4143
17474TIP3    H173913   0.785   4.178  16.798 -0.6625 -0.1843  0.5369
17474TIP3    H273914   0.908   4.095  16.829  0.1381  0.7116 -0.1513
17475TIP3   OH273915   3.405   4.045  16.644 -0.1741  0.0353 -0.6123
17475TIP3    H173916   3.490   4.046  16.687 -0.3219 -2.2040 -0.1617
17475TIP3    H273917   3.385   4.137  16.628  0.8949  0.8389  2.1420
17476TIP3   OH273918   3.476   4.137   6.244 -0.1586 -0.0642  0.3054
17476TIP3    H173919   3.572   4.138   6.248  0.0192  0.2563 -2.3330
17476TIP3    H273920   3.453   4.047   6.266  1.0117 -0.9636 -1.8173
17477TIP3   OH273921   0.751   4.400   5.041 -0.0918 -1.0098  0.3029
17477TIP3    H173922   0.724   4.314   5.009 -0.4797 -1.4734  1.7734
17477TIP3    H273923   0.805   4.380   5.118  3.3629 -0.0805 -1.6446
17478TIP3   OH273924   6.012   1.059   4.720  0.1853 -0.2237  0.5574
17478TIP3    H173925   5.951   1.010   4.665  2.0699 -1.9999 -0.1238
17478TIP3    H273926   6.012   1.012   4.803  0.0018  0.2784  0.8431
17479TIP3   OH273927   4.845   6.613  17.036 -0.2672 -0.4405  0.3566
17479TIP3    H173928   4.831   6.578  17.124  2.6474 -0.8208  0.7697
17479TIP3    H273929   4.877   6.702  17.050 -2.1709  0.4386 -0.4869
17480TIP3   OH273930   2.532   0.237  16.818 -0.1141  0.2842 -0.2406
17480TIP3    H173931   2.475   0.210  16.890  0.1139  1.8939  0.6012
17480TIP3    H273932   2.561   0.325  16.843 -0.0391  0.8934 -2.3180
17481TIP3   OH273933   2.978   1.439  11.728  0.1362 -0.2426  0.5970
17481TIP3    H173934   2.933   1.523  11.721  3.2447  1.5196  0.1173
17481TIP3    H273935   2.954   1.393  11.647 -0.2947  0.8929  0.0496
17482TIP3   OH273936   0.047   6.234   1.709  0.3390 -0.3658  0.8521
17482TIP3    H173937   0.001   6.163   1.754 -1.5242 -0.1546 -0.5589
17482TIP3    H273938   0.043   6.211   1.617  0.8565  0.9336  0.4747
17483TIP3   OH273939   3.823   0.900   1.664  0.0516 -0.1084  0.8435
17483TIP3    H173940   3.738   0.867   1.635  0.2981 -0.6941  0.7851
17483TIP3    H273941   3.872   0.915   1.583  0.0985 -0.0215  0.8879
17484TIP3   OH273942   5.242   3.776  15.044 -0.4286 -0.0443 -0.4501
17484TIP3    H173943   5.334   3.784  15.067 -0.3641 -0.6327 -0.4965
17484TIP3    H273944   5.236   3.695  14.993 -1.1630 -0.6731  0.5767
17485TIP3   OH273945   0.133   1.799   2.329 -0.0626 -0.1371  0.2093
17485TIP3    H173946   0.216   1.829   2.365 -0.2079 -0.5490  0.9080
17485TIP3    H273947   0.099   1.737   2.394 -1.7622  1.3251  0.8046
17486TIP3   OH273948   4.607   1.225  13.320  0.0136  0.5855  0.2343
17486TIP3    H173949   4.539   1.158  13.313 -1.5749  2.2262 -1.1439
17486TIP3    H273950   4.559   1.306  13.336  1.8616  1.4511  1.7787
17487TIP3   OH273951   3.797   3.675   4.293  0.0082  0.5575 -0.0209
17487TIP3    H173952   3.745   3.737   4.344  0.8115  1.5264 -0.3259
17487TIP3    H273953   3.828   3.611   4.356 -0.8657  0.4469  0.3020
17488TIP3   OH273954   5.401   2.972   3.963 -0.2206  0.6866  0.4097
17488TIP3    H173955   5.448   2.991   4.044 -2.3612 -0.6873  2.0902
17488TIP3    H273956   5.409   2.877   3.953 -0.2155  0.8026 -0.8762
17489TIP3   OH273957   3.810   3.616  12.212  0.1422  0.6566  0.5913
17489TIP3    H173958   3.872   3.614  12.140 -0.5012  0.7412  0.0255
17489TIP3    H273959   3.771   3.703  12.209  1.3110  1.2895  2.0997
17490TIP3   OH273960   1.027   1.135   4.412 -0.0537  0.2017  0.2829
17490TIP3    H173961   0.935   1.154   4.432 -0.7856 -0.6977 -1.9832
17490TIP3    H273962   1.069   1.125   4.498 -1.8913  1.3383  1.3701
17491TIP3   OH273963   6.624   6.659   1.110  0.6491  0.1675 -0.5569
17491TIP3    H173964   6.591   6.677   1.022 -1.4908 -0.7614 -0.0238
17491TIP3    H273965   6.657   6.570   1.106  2.9179  0.9810 -1.0001
17492TIP3   OH273966   6.486   5.246  13.904 -0.4653 -0.4006  0.4925
17492TIP3    H173967   6.545   5.278  13.836  0.3911 -0.2348  1.2962
17492TIP3    H273968   6.400   5.279  13.878  0.0030  0.4779 -0.0073
17493TIP3   OH273969   2.252   5.402   3.619 -0.2193  0.4488 -0.3616
17493TIP3    H173970   2.267   5.490   3.585 -1.0960  1.3574  1.4964
17493TIP3    H273971   2.253   5.346   3.541 -1.8976  2.3758 -1.8726
17494TIP3   OH273972   5.070   6.638  13.951  0.5867 -0.3396  0.6752
17494TIP3    H173973   5.022   6.719  13.966 -1.7429 -1.3048 -1.0010
17494TIP3    H273974   5.139   6.639  14.017  1.3136  3.4337  0.1275
17495TIP3   OH273975   2.000   5.317  15.570  0.3332  0.3718  0.3014
17495TIP3    H173976   1.967   5.395  15.526  2.5858  1.0792 -0.2579
17495TIP3    H273977   1.983   5.246  15.508 -0.3410  0.6583  0.1467
17496TIP3   OH273978   1.009   6.545   4.614  0.2976  0.2472 -0.2809
17496TIP3    H173979   0.999   6.599   4.692 -3.4833  0.1510 -0.5197
17496TIP3    H273980   1.021   6.608   4.543  1.3891  0.4353  0.0453
17497TIP3   OH273981   4.848   4.055  11.831  0.1901 -0.0416  0.0474
17497TIP3    H173982   4.874   4.138  11.872 -4.3987  1.2162  1.0182
17497TIP3    H273983   4.859   3.990  11.900 -0.7643  0.7552  1.0008
17498TIP3   OH273984   2.231   3.733  12.809 -0.8619 -0.6600  0.3569
17498TIP3    H173985   2.276   3.656  12.777 -3.6030 -1.7481 -1.1926
17498TIP3    H273986   2.258   3.804  12.751  1.8485 -0.2844  1.9314
17499TIP3   OH273987   4.546   2.861   2.253 -0.1270  0.2614 -0.0449
17499TIP3    H173988   4.587   2.804   2.318 -1.8469  0.8836  1.6905
17499TIP3    H273989   4.618   2.914   2.218  0.8603 -0.1764  1.2619
17500TIP3   OH273990   2.080   5.402  13.141 -0.1836 -0.0734  0.1143
17500TIP3    H173991   2.119   5.329  13.191 -0.1777 -0.4823 -0.4815
17500TIP3    H273992   2.155   5.447  13.102 -0.3157 -1.4783 -1.8894
17501TIP3   OH273993   2.413   6.023  11.405  0.2268 -0.3579  0.0160
17501TIP3    H173994   2.341   6.055  11.460  0.6388 -0.4307  0.6070
17501TIP3    H273995   2.369   5.987  11.328 -0.4258 -1.0997  0.7128
17502TIP3   OH273996   0.270   2.753  14.371  0.5376  0.0060  0.4889
17502TIP3    H173997   0.216   2.674  14.371  0.6164 -0.0491  0.5452
17502TIP3    H273998   0.312   2.753  14.457 -0.5931  0.9021  1.0635
17503TIP3   OH273999   3.602   1.236   0.920  0.0903  0.4912  0.1905
17503TIP3    H174000   3.683   1.186   0.923  0.8270  1.6690  0.6609
17503TIP3    H274001   3.570   1.226   0.830  0.8224  0.1117 -0.0323
17504TIP3   OH274002   2.345   3.212   1.442 -0.4689 -0.2492 -0.1885
17504TIP3    H174003   2.278   3.144   1.440 -0.9824  0.2258  0.4772
17504TIP3    H274004   2.357   3.232   1.535  0.1357  0.1259 -0.3361
17505TIP3   OH274005   4.374   0.851   2.584 -0.2936  0.1981 -0.3983
17505TIP3    H174006   4.299   0.901   2.616  0.3760  2.1325 -1.7191
17505TIP3    H274007   4.442   0.867   2.649 -0.5954 -0.5174  0.1192
17506TIP3   OH274008   5.949   0.284   2.082  0.6772 -0.3262 -0.1863
17506TIP3    H174009   5.902   0.202   2.096 -3.3996  2.0204  1.7844
17506TIP3    H274010   6.036   0.268   2.119  0.0112 -3.6148  0.3043
17507TIP3   OH274011   2.454   3.477   5.250 -0.3685 -0.2688  0.6044
17507TIP3    H174012   2.387   3.520   5.303 -1.3663 -1.4552  0.3453
17507TIP3    H274013   2.491   3.410   5.308 -0.3615 -0.5191  0.3162
17508TIP3   OH274014   1.795   1.200   5.727 -0.3619  0.5661  0.6313
17508TIP3    H174015   1.772   1.244   5.809 -2.3494 -1.7065  1.4190
17508TIP3    H274016   1.810   1.109   5.752 -1.4812 -0.2983 -1.5596
17509TIP3   OH274017   1.106   2.254  10.488 -0.3649  0.0540  0.0666
17509TIP3    H174018   1.025   2.204  10.494 -0.1197 -0.2974  0.6168
17509TIP3    H274019   1.153   2.216  10.414 -1.4596  1.4238 -1.3857
17510TIP3   OH274020   3.063   2.564  10.812 -0.1080 -0.0965  0.1614
17510TIP3    H174021   3.116   2.591  10.887 -1.2749  1.6203  0.4085
17510TIP3    H274022   3.116   2.588  10.736 -0.3431  1.2842  0.4134
17511TIP3   OH274023   1.020   3.092   2.844  1.0475  0.2956  0.2108
17511TIP3    H174024   0.975   3.112   2.762  0.6473  0.3474  0.4442
17511TIP3    H274025   1.048   3.001   2.833  0.9513  0.2851  0.0388
17512TIP3   OH274026   3.529   5.947  16.123  0.1789  0.4667  0.7453
17512TIP3    H174027   3.543   5.867  16.174  2.4738  0.4609  0.2435
17512TIP3    H274028   3.540   5.919  16.032  1.4311  1.3754  0.5883
17513TIP3   OH274029   3.601   4.410   2.409 -0.3852  0.2908  0.3070
17513TIP3    H174030   3.676   4.450   2.453 -0.1019  0.2104 -0.0988
17513TIP3    H274031   3.543   4.484   2.389  0.2987  0.5651 -0.7567
17514TIP3   OH274032   4.006   3.964   2.682 -0.1845  0.0724 -0.6003
17514TIP3    H174033   3.938   3.925   2.627 -1.3700  1.4321 -0.1563
17514TIP3    H274034   3.992   3.925   2.768 -0.0896  0.0022 -0.6161
17515TIP3   OH274035   4.586   4.416   4.541 -0.2582 -0.2279  0.2273
17515TIP3    H174036   4.652   4.414   4.472 -0.2170  0.2369  0.2459
17515TIP3    H274037   4.512   4.367   4.506  0.4580 -1.6019  0.5900
17516TIP3   OH274038   2.998   2.044  14.816  0.2652  0.0166  0.4249
17516TIP3    H174039   2.945   2.108  14.861 -1.1429 -0.8933  0.1236
17516TIP3    H274040   2.968   2.047  14.725  0.8892 -0.3470  0.1976
17517TIP3   OH274041   3.981   2.764   4.759 -0.8724  0.3054  0.0595
17517TIP3    H174042   4.057   2.753   4.701 -0.3871 -0.8008  0.8691
17517TIP3    H274043   3.908   2.727   4.711 -0.2769 -1.6066  0.5199
17518TIP3   OH274044   0.452   2.449  15.853  0.2362 -0.6604 -0.0966
17518TIP3    H174045   0.368   2.409  15.830  0.0191 -0.1881 -0.1544
17518TIP3    H274046   0.467   2.423  15.944 -0.2883 -0.2341  0.1207
17519TIP3   OH274047   0.413   2.900  11.725 -0.7589  0.0513  0.2556
17519TIP3    H174048   0.472   2.947  11.783 -0.9124 -0.4918  0.8701
17519TIP3    H274049   0.330   2.897  11.773 -0.8248 -0.5964  0.1116
17520TIP3   OH274050   5.306   4.699  12.347  0.2483  0.0766 -0.0098
17520TIP3    H174051   5.283   4.646  12.271 -1.9884 -1.3926  1.5609
17520TIP3    H274052   5.230   4.754  12.363  0.5014  0.0880  1.3503
17521TIP3   OH274053   5.939   0.494   5.277  0.2008  0.2316  0.1527
17521TIP3    H174054   5.874   0.445   5.326  0.0856  0.2907  0.0575
17521TIP3    H274055   6.023   0.472   5.319  0.0377  0.8132  0.8154
17522TIP3   OH274056   2.771   5.360  16.185 -0.4494 -0.0099  0.1131
17522TIP3    H174057   2.754   5.300  16.257 -1.6334 -0.3667 -0.4386
17522TIP3    H274058   2.759   5.307  16.106  0.9474  0.3375 -0.3712
17523TIP3   OH274059   2.615   6.613   1.344 -0.1004 -0.6992  0.0126
17523TIP3    H174060   2.672   6.606   1.421 -1.5529 -1.1531  1.0847
17523TIP3    H274061   2.536   6.656   1.377 -0.7903 -1.0023 -1.2076
17524TIP3   OH274062   1.471   6.235   5.332  0.2183 -0.0267  0.6456
17524TIP3    H174063   1.401   6.244   5.267 -1.2771 -0.9619  2.0478
17524TIP3    H274064   1.463   6.312   5.388  1.8858  1.0872 -0.5521
17525TIP3   OH274065   1.386   0.466  15.179 -0.7971 -0.4465  0.1798
17525TIP3    H174066   1.330   0.398  15.217 -0.6937  0.0456  1.2506
17525TIP3    H274067   1.356   0.547  15.219  0.4091 -0.1150  0.4577
17526TIP3   OH274068   0.275   1.863  10.956 -0.1320 -0.4845  0.1689
17526TIP3    H174069   0.368   1.873  10.976 -1.0289  2.8561  4.0313
17526TIP3    H274070   0.260   1.919  10.880  0.7731  0.6800  0.8129
17527TIP3   OH274071   3.461   5.852  15.518  0.0425 -0.4577  0.6839
17527TIP3    H174072   3.402   5.777  15.522  1.0025 -1.3835 -1.2126
17527TIP3    H274073   3.406   5.925  15.489 -0.2433 -1.2721 -0.9205
17528TIP3   OH274074   5.860   3.011  16.129  0.2727 -0.3843  0.3847
17528TIP3    H174075   5.853   3.078  16.197  0.9469 -0.8121  0.8805
17528TIP3    H274076   5.770   3.002  16.096  0.1438  0.6279  0.4365
17529TIP3   OH274077   4.077   6.625   0.294  0.1562  0.5006  0.2287
17529TIP3    H174078   4.071   6.583   0.208 -0.5522 -1.6398  1.2477
17529TIP3    H274079   4.013   6.578   0.348 -1.3080  3.4571  1.3128
17530TIP3   OH274080   5.744   3.669  13.860 -0.0901 -0.4096  0.3096
17530TIP3    H174081   5.830   3.703  13.884  0.4571 -2.0931  0.9035
17530TIP3    H274082   5.705   3.643  13.943 -0.4865 -1.1661 -0.1025
17531TIP3   OH274083   6.702   4.699  15.693 -0.1216  0.1038 -0.1047
17531TIP3    H174084   6.715   4.767  15.759  0.5899 -0.3572  0.2480
17531TIP3    H274085   6.759   4.724  15.620 -1.2809  0.8811 -0.7829
17532TIP3   OH274086   4.849   5.894  14.868  0.2646 -0.1468 -0.2141
17532TIP3    H174087   4.844   5.845  14.950 -0.1854 -0.3795 -0.3731
17532TIP3    H274088   4.938   5.880  14.837 -0.0755 -1.5245 -0.6442
17533TIP3   OH274089   3.853   0.179   1.449  0.3124 -0.2008 -0.4028
17533TIP3    H174090   3.850   0.206   1.540  1.1570 -1.9885  0.2040
17533TIP3    H274091   3.936   0.212   1.416 -0.0952  0.6443 -0.6247
17534TIP3   OH274092   3.220   6.627  16.077  1.0384  0.0413 -0.1789
17534TIP3    H174093   3.196   6.643  16.169 -0.5413 -2.5838 -0.0418
17534TIP3    H274094   3.170   6.691  16.028  0.5087  0.3093  0.6810
17535TIP3   OH274095   5.034   1.188   5.989  0.1206  0.5869 -0.3244
17535TIP3    H174096   5.119   1.187   5.946  0.5055  0.7804  0.4244
17535TIP3    H274097   5.036   1.113   6.049 -0.5691  0.0687 -0.9285
17536TIP3   OH274098   4.490   2.221   0.964 -0.1787 -0.2230 -0.0315
17536TIP3    H174099   4.550   2.146   0.959 -0.0518 -0.1141 -0.1843
17536TIP3    H274100   4.484   2.242   1.057  0.8416  0.4112 -0.0858
17537TIP3   OH274101   1.168   6.286   6.081 -0.1558  0.0880  0.1896
17537TIP3    H174102   1.240   6.253   6.134  1.0378  2.7811  0.3940
17537TIP3    H274103   1.129   6.208   6.042  0.1109 -1.8549  3.4694
17538TIP3   OH274104   5.061   5.103   1.395  0.2011  0.2803  0.4198
17538TIP3    H174105   5.018   5.018   1.395  0.6372  0.0568 -0.0438
17538TIP3    H274106   5.072   5.125   1.303 -0.9539  1.3834  0.5185
17539TIP3   OH274107   2.833   6.728  14.712 -0.4289 -0.0698  0.3962
17539TIP3    H174108   2.817   6.794  14.644  0.5163  0.1481  0.3632
17539TIP3    H274109   2.793   6.648  14.678  0.5900 -0.1324 -0.7380
17540TIP3   OH274110   1.924   4.873  14.322 -0.0356 -0.2314  0.0034
17540TIP3    H174111   1.921   4.789  14.368 -2.2493 -0.7569 -0.9782
17540TIP3    H274112   1.982   4.858  14.248 -0.1511 -0.7862  0.0246
17541TIP3   OH274113   6.820   0.460  16.230  0.6395  0.1751 -0.1395
17541TIP3    H174114   6.774   0.514  16.166  1.2410 -0.5215 -1.1803
17541TIP3    H274115   6.857   0.388  16.179  1.2177 -0.3448  0.9779
17542TIP3   OH274116   5.132   5.744  14.092 -0.2698 -0.5540  0.4925
17542TIP3    H174117   5.080   5.745  14.012 -1.5960 -0.0945  1.3225
17542TIP3    H274118   5.163   5.835  14.101  0.9862 -0.8946 -0.1667
17543TIP3   OH274119   3.864   0.520  10.551 -0.1674 -0.9427  0.0054
17543TIP3    H174120   3.839   0.613  10.550 -0.8026 -0.9972  2.6857
17543TIP3    H274121   3.861   0.494  10.459  1.3376  1.9777 -1.0141
17544TIP3   OH274122   0.359   0.238   4.508  0.3796 -0.5928  0.7270
17544TIP3    H174123   0.405   0.311   4.547  2.1830 -1.0341 -0.4766
17544TIP3    H274124   0.334   0.268   4.420  1.4643 -1.5094  0.0819
17545TIP3   OH274125   3.877   4.945  11.869  0.3804  0.0532 -0.1000
17545TIP3    H174126   3.931   5.018  11.902  1.1213 -0.3590 -0.3716
17545TIP3    H274127   3.789   4.963  11.903  0.7240  0.6469  0.5064
17546TIP3   OH274128   4.842   4.067   0.282 -0.7108  0.2938 -0.4326
17546TIP3    H174129   4.863   4.003   0.214 -1.9848  0.0218 -0.5996
17546TIP3    H274130   4.809   4.143   0.235 -0.2573  0.6542 -0.1786
17547TIP3   OH274131   6.666   4.272   0.950 -0.5561  0.4871  0.2047
17547TIP3    H174132   6.636   4.228   0.870  1.0244  0.4318 -0.3970
17547TIP3    H274133   6.635   4.216   1.021 -0.1091 -0.6515 -0.4728
17548TIP3   OH274134   5.034   5.611  14.303  0.4473  0.7124  0.2179
17548TIP3    H174135   5.092   5.652  14.239 -0.0761  1.8768  0.4578
17548TIP3    H274136   4.981   5.683  14.337 -1.2440 -0.3239 -0.0971
17549TIP3   OH274137   6.699   6.657   4.584  0.0627 -0.1337  0.1447
17549TIP3    H174138   6.744   6.573   4.580  0.2078 -0.1492  1.5253
17549TIP3    H274139   6.607   6.636   4.568  0.0989 -0.5566  0.4743
17550TIP3   OH274140   4.720   5.771   3.222 -0.5124  0.7507  0.2987
17550TIP3    H174141   4.703   5.865   3.232 -2.5253  0.3880  0.5721
17550TIP3    H274142   4.636   5.729   3.237  0.6673 -1.2413  1.8707
17551TIP3   OH274143   2.386   0.399  14.610  0.2245 -0.4104 -0.1265
17551TIP3    H174144   2.302   0.404  14.655 -0.1283 -2.8853 -0.3690
17551TIP3    H274145   2.367   0.423  14.520 -0.1510 -0.5350 -0.0833
17552TIP3   OH274146   5.984   4.635   6.149 -0.2907  0.1207 -0.2128
17552TIP3    H174147   5.972   4.706   6.212 -0.9633  1.0294 -1.3168
17552TIP3    H274148   5.911   4.575   6.165 -1.0632  0.8831 -0.7964
17553TIP3   OH274149   1.472   0.271  13.700 -0.1325  0.0373 -0.1982
17553TIP3    H174150   1.376   0.275  13.696 -0.2380 -1.0564  0.6851
17553TIP3    H274151   1.501   0.304  13.615 -1.3683 -1.3060 -1.2003
17554TIP3   OH274152   5.537   4.490   1.640  0.4395  0.0095 -0.9025
17554TIP3    H174153   5.556   4.478   1.733  0.1862  0.2848 -0.8146
17554TIP3    H274154   5.458   4.544   1.638  1.0415  0.8993 -1.2730
17555TIP3   OH274155   0.111   2.656  13.496  0.5759 -0.5503 -0.2253
17555TIP3    H174156   0.183   2.666  13.434 -0.4688 -0.2309 -1.4553
17555TIP3    H274157   0.091   2.745  13.525 -1.2387 -0.2120 -2.2476
17556TIP3   OH274158   0.490   2.301  12.894  0.0352 -0.5610  0.0364
17556TIP3    H174159   0.414   2.338  12.939 -0.9637  0.2258 -2.1642
17556TIP3    H274160   0.479   2.328  12.803  2.1905 -1.7063 -0.6179
17557TIP3   OH274161   4.199   6.413  16.637  0.7407 -0.4815 -0.9635
17557TIP3    H174162   4.223   6.348  16.571 -1.2664 -1.2554 -1.0224
17557TIP3    H274163   4.257   6.395  16.711  0.2017 -2.4370 -0.9480
17558TIP3   OH274164   6.593   1.577   0.387 -0.0594  0.6759  0.0859
17558TIP3    H174165   6.503   1.545   0.386  0.1799 -0.0228  0.3337
17558TIP3    H274166   6.616   1.586   0.294 -0.6668  1.6807  0.0278
17559TIP3   OH274167   4.218   2.107   5.481 -0.4548 -0.0255 -0.8622
17559TIP3    H174168   4.229   2.098   5.575 -0.9325  1.8582 -0.5891
17559TIP3    H274169   4.123   2.103   5.467 -0.3475 -1.0847 -1.3695
17560TIP3   OH274170   4.974   0.631   2.000  0.4766 -0.5023 -0.6810
17560TIP3    H174171   4.931   0.687   1.936  1.6614 -0.5721 -1.5622
17560TIP3    H274172   5.037   0.580   1.949  1.4662 -0.5432  0.5359
17561TIP3   OH274173   0.647   4.149  11.899 -0.3952 -0.0091  0.5806
17561TIP3    H174174   0.697   4.224  11.930 -0.8923  1.3618 -1.7311
17561TIP3    H274175   0.561   4.159  11.940 -1.3980  2.3852 -1.8372
17562TIP3   OH274176   1.668   5.916  13.000  0.1002  0.3045 -0.1008
17562TIP3    H174177   1.738   5.890  12.939 -1.5504 -1.0033 -1.5208
17562TIP3    H274178   1.594   5.937  12.943 -1.0985  0.3374  1.4230
17563TIP3   OH274179   4.514   1.630  15.139  0.9486 -0.0496  0.2394
17563TIP3    H174180   4.482   1.540  15.134  1.6074 -0.2819  0.1192
17563TIP3    H274181   4.559   1.644  15.055 -1.3607  1.2678 -0.8929
17564TIP3   OH274182   4.789   6.568  15.371  0.0663 -0.3681  0.0626
17564TIP3    H174183   4.698   6.565  15.402 -0.2042  1.9384 -0.3242
17564TIP3    H274184   4.826   6.646  15.414  1.2176 -0.0661 -1.4102
17565TIP3   OH274185   3.187   3.263  14.739 -0.0852 -0.2358 -0.0998
17565TIP3    H174186   3.099   3.243  14.770 -0.4513 -1.0613 -1.5918
17565TIP3    H274187   3.245   3.218  14.800 -0.7014  0.0518  0.7088
17566TIP3   OH274188   2.219   6.347   4.972 -0.2749  0.4469 -0.1422
17566TIP3    H174189   2.186   6.298   5.047  0.9630 -1.2311 -0.6239
17566TIP3    H274190   2.277   6.414   5.009  0.6451 -0.6233  0.4084
17567TIP3   OH274191   4.803   1.155   0.473 -0.0659  0.1187  0.3083
17567TIP3    H174192   4.862   1.175   0.400 -0.8066 -0.6336 -0.5266
17567TIP3    H274193   4.807   1.060   0.481  0.3933  0.2230  1.6093
17568TIP3   OH274194   5.735   5.170  15.810 -0.2936 -0.2737 -0.5844
17568TIP3    H174195   5.813   5.175  15.866 -0.1423  0.6276 -0.8619
17568TIP3    H274196   5.755   5.100  15.748  0.3771  0.0825 -0.7770
17569TIP3   OH274197   6.700   4.098  14.111  0.1724  0.2159  0.0012
17569TIP3    H174198   6.784   4.075  14.152  0.3466 -1.4901 -1.1820
17569TIP3    H274199   6.725   4.142  14.030 -0.0974  0.6150  0.1367
17570TIP3   OH274200   1.289   6.121  16.943  0.6744 -0.0438 -0.4198
17570TIP3    H174201   1.203   6.082  16.927  1.3969 -0.7821 -2.8987
17570TIP3    H274202   1.311   6.166  16.862  1.0204  3.4926  1.4689
17571TIP3   OH274203   3.931   4.220   4.178  0.2906  0.4341  0.6566
17571TIP3    H174204   3.904   4.229   4.086  1.4466 -1.6665  0.0579
17571TIP3    H274205   3.865   4.163   4.217  2.1219 -2.4248 -0.1102
17572TIP3   OH274206   6.363   1.909  10.790 -0.3046 -0.8068  0.5607
17572TIP3    H174207   6.382   1.816  10.774 -1.5843 -1.0014  0.0348
17572TIP3    H274208   6.289   1.907  10.851 -0.1670 -0.1233  0.7518
17573TIP3   OH274209   3.200   4.509   6.023 -0.2137 -0.1987 -0.2081
17573TIP3    H174210   3.170   4.471   5.940 -0.4327 -1.2159  0.3110
17573TIP3    H274211   3.189   4.438   6.087  2.3311 -0.2916  0.2379
17574TIP3   OH274212   1.510   1.943   0.661  0.1651  0.0900  0.3600
17574TIP3    H174213   1.523   1.937   0.566  0.9701 -0.9255  0.5163
17574TIP3    H274214   1.583   1.895   0.699 -0.3832  0.1051  1.4953
17575TIP3   OH274215   3.578   5.812   3.597 -0.2625  0.6973 -0.7437
17575TIP3    H174216   3.622   5.832   3.514 -0.4905 -0.1811 -1.0904
17575TIP3    H274217   3.507   5.753   3.572 -1.6845  2.1316 -0.2039
17576TIP3   OH274218   6.063   0.771  16.180  0.1180 -0.1262 -0.0911
17576TIP3    H174219   6.136   0.750  16.238  0.1314 -0.5920 -0.2657
17576TIP3    H274220   6.086   0.855  16.142  0.4465 -0.1515  0.0458
17577TIP3   OH274221   5.937   0.448   4.149 -0.5991 -0.0798  0.3302
17577TIP3    H174222   5.850   0.408   4.146 -0.1618 -1.1226  1.0969
17577TIP3    H274223   5.946   0.491   4.064 -1.6176 -0.4836  0.0040
17578TIP3   OH274224   6.272   3.936  10.679  1.0940 -0.2413  0.2863
17578TIP3    H174225   6.350   3.901  10.636  1.4262 -1.3969  1.7423
17578TIP3    H274226   6.248   3.869  10.743 -0.5581  0.5130  0.5123
17579TIP3   OH274227   6.468   5.426  16.544  0.3581 -0.1402  0.2115
17579TIP3    H174228   6.384   5.472  16.546  0.8091  0.7181  0.0503
17579TIP3    H274229   6.499   5.435  16.454  1.8387  1.8784  0.8288
17580TIP3   OH274230   3.236   6.170   6.621 -0.6394 -0.1750 -0.1739
17580TIP3    H174231   3.282   6.108   6.563 -1.7109 -0.9113 -0.2658
17580TIP3    H274232   3.304   6.201   6.680  0.5921  0.8752 -2.0181
17581TIP3   OH274233   3.364   1.823  11.865  0.2187  0.3223 -0.4097
17581TIP3    H174234   3.362   1.736  11.907  1.3166  0.5187  0.0754
17581TIP3    H274235   3.393   1.806  11.776  0.3921  0.1807 -0.3276
17582TIP3   OH274236   6.193   0.640   5.804 -0.2004 -0.0333  0.4949
17582TIP3    H174237   6.164   0.612   5.717 -3.8309 -0.7996  1.7713
17582TIP3    H274238   6.144   0.721   5.820  1.0349  0.5354  1.5486
17583TIP3   OH274239   6.552   0.384   3.659 -0.1443 -0.4378  0.2707
17583TIP3    H174240   6.612   0.311   3.641  0.1014 -0.4409  1.0910
17583TIP3    H274241   6.494   0.351   3.728  1.6852  1.0225  2.6588
17584TIP3   OH274242   6.480   0.913   3.438  0.5092 -0.4322 -0.2422
17584TIP3    H174243   6.553   0.863   3.403  1.7016  1.6624 -0.9665
17584TIP3    H274244   6.500   1.004   3.415 -2.4880  0.2198 -0.7638
17585TIP3   OH274245   6.188   1.591   6.479  0.2487 -0.3594  0.2326
17585TIP3    H174246   6.214   1.571   6.569  1.6753 -1.1909 -0.3396
17585TIP3    H274247   6.160   1.508   6.442  1.2934 -0.3656 -0.5948
17586TIP3   OH274248   3.512   4.774  12.852  0.4099  0.1999 -0.0989
17586TIP3    H174249   3.577   4.767  12.782  0.1985  0.9173 -0.3731
17586TIP3    H274250   3.442   4.714  12.826  1.5076 -1.6019  0.8502
17587TIP3   OH274251   6.079   1.409   1.741 -0.0376  0.1218  0.1501
17587TIP3    H174252   6.131   1.453   1.673 -0.0356  0.7329  0.5369
17587TIP3    H274253   6.097   1.316   1.729 -0.6720  0.1574 -1.2075
17588TIP3   OH274254   2.164   4.011  10.837  0.5860 -0.4195 -0.0975
17588TIP3    H174255   2.161   4.096  10.793  1.5588 -0.9320 -1.2237
17588TIP3    H274256   2.258   3.990  10.842  0.4711 -0.5933  1.8537
17589TIP3   OH274257   4.903   5.812   0.865 -0.5228  0.0165  0.2573
17589TIP3    H174258   4.864   5.735   0.906 -0.6485  0.3522  0.7806
17589TIP3    H274259   4.946   5.779   0.786 -2.6456 -0.2163 -0.8563
17590TIP3   OH274260   2.904   1.565  11.336 -0.0063  0.0664 -0.5182
17590TIP3    H174261   2.981   1.535  11.382 -0.2601  0.4780  0.1852
17590TIP3    H274262   2.877   1.490  11.282  0.1923 -0.4750  0.1270
17591TIP3   OH274263   1.412   4.294  11.691  0.3024 -0.2430 -0.4539
17591TIP3    H174264   1.456   4.234  11.750  2.9886  0.6867 -1.3685
17591TIP3    H274265   1.481   4.351  11.657 -1.4621  0.7438 -2.7405
17592TIP3   OH274266   0.977   2.138   4.716 -0.3700  0.1552 -0.0714
17592TIP3    H174267   1.013   2.140   4.805  1.0921 -1.5805 -0.5574
17592TIP3    H274268   0.899   2.084   4.723  0.1897 -0.6585  0.0417
17593TIP3   OH274269   2.636   2.346  17.174  0.0101 -0.3710 -0.2988
17593TIP3    H174270   2.550   2.323  17.138  0.0089 -1.0526  0.1095
17593TIP3    H274271   2.684   2.385  17.101 -0.2633 -1.0177 -0.8333
17594TIP3   OH274272   5.733   0.846  10.721  0.1449  0.1256 -0.0183
17594TIP3    H174273   5.661   0.797  10.761  0.1737  0.7655  0.8485
17594TIP3    H274274   5.810   0.823  10.773  0.1087  1.2780  0.5648
17595TIP3   OH274275   0.612   4.219  17.076  0.0743 -0.2477  0.3880
17595TIP3    H174276   0.673   4.291  17.064  0.5538 -0.4466  1.4557
17595TIP3    H274277   0.665   4.150  17.117 -0.4227 -1.1231 -0.4153
17596TIP3   OH274278   5.364   5.811  16.529 -0.2106  0.0295 -0.1873
17596TIP3    H174279   5.275   5.818  16.496 -0.8992 -1.2100  1.2706
17596TIP3    H274280   5.374   5.885  16.589 -1.0472 -0.9496  1.2421
17597TIP3   OH274281   5.599   0.469   3.827 -0.3457  0.0734 -0.4560
17597TIP3    H174282   5.609   0.379   3.795  0.7769  0.1020 -0.2200
17597TIP3    H274283   5.535   0.461   3.898 -0.4679 -0.4971 -0.6199
17598TIP3   OH274284   0.513   1.695  11.270 -0.1666  0.7094  0.1325
17598TIP3    H174285   0.444   1.651  11.320  0.0495  1.7000  1.3455
17598TIP3    H274286   0.588   1.698  11.329  0.8194  0.0296 -1.0146
17599TIP3   OH274287   2.555   5.221   3.631  0.1139 -0.4813  0.0860
17599TIP3    H174288   2.636   5.212   3.681  0.6091  0.5190 -0.5133
17599TIP3    H274289   2.554   5.313   3.603 -1.3683 -0.4025  0.3211
17600TIP3   OH274290   5.871   0.451   3.672 -0.2137  0.0059  0.2715
17600TIP3    H174291   5.794   0.396   3.688 -0.5673  0.0798 -1.0492
17600TIP3    H274292   5.928   0.397   3.617 -1.3371  1.4820 -2.5462
17601TIP3   OH274293   0.165   6.241  14.044 -0.1943 -0.6315 -0.3841
17601TIP3    H174294   0.093   6.286  14.000 -0.9110 -0.0592  1.2725
17601TIP3    H274295   0.201   6.182  13.978 -0.8227  0.5940 -1.8868
17602TIP3   OH274296   4.450   5.738  16.795 -0.5712 -0.0645  0.1046
17602TIP3    H174297   4.496   5.723  16.712 -0.4755 -1.1625  0.3518
17602TIP3    H274298   4.398   5.817  16.779  2.6382  2.2924  0.3552
17603TIP3   OH274299   3.964   3.498  13.176  0.1501 -0.4741  0.4376
17603TIP3    H174300   3.980   3.456  13.091 -1.2490  0.2488 -0.2198
17603TIP3    H274301   3.978   3.429  13.240  1.2039 -1.0416 -0.3779
17604TIP3   OH274302   5.597   2.956  16.118 -0.5626 -0.1209 -0.2619
17604TIP3    H174303   5.506   2.938  16.093  0.0554 -4.1737 -0.2596
17604TIP3    H274304   5.595   2.965  16.213 -1.2254  2.6409 -0.4576
17605TIP3   OH274305   3.162   4.962  16.857  0.1168  0.1844 -0.1132
17605TIP3    H174306   3.180   5.018  16.932 -0.8864  0.1717  0.1547
17605TIP3    H274307   3.175   4.873  16.888 -0.3022  0.1791  0.0630
17606TIP3   OH274308   1.696   2.144  10.413  0.3277  0.1575 -0.2266
17606TIP3    H174309   1.630   2.086  10.449  2.2602 -1.8777  0.2502
17606TIP3    H274310   1.667   2.160  10.323 -0.9207 -0.4890  0.0428
17607TIP3   OH274311   3.835   0.331   4.291 -0.2223  0.0632  0.3182
17607TIP3    H174312   3.869   0.329   4.381  0.7682 -1.2352 -0.0425
17607TIP3    H274313   3.833   0.239   4.265 -0.1902  0.4443 -1.1042
17608TIP3   OH274314   4.135   3.739   5.290  0.4664 -0.4406  0.1149
17608TIP3    H174315   4.052   3.717   5.248  0.4553  1.2866 -0.8812
17608TIP3    H274316   4.123   3.830   5.320  1.6048 -0.5560  0.9846
17609TIP3   OH274317   0.929   6.345  13.912  0.2618 -0.4604  0.5054
17609TIP3    H174318   1.009   6.326  13.862 -0.5877  0.0443 -1.1379
17609TIP3    H274319   0.888   6.260  13.925  0.8580 -0.6742  0.9727
17610TIP3   OH274320   5.096   4.380   5.813 -0.0953 -0.7683  0.2977
17610TIP3    H174321   5.067   4.304   5.864 -0.2147 -0.7326  0.2814
17610TIP3    H274322   5.157   4.343   5.749  0.0266 -0.8185  0.4411
17611TIP3   OH274323   0.154   5.582  13.961 -0.7080  0.1695  0.0500
17611TIP3    H174324   0.099   5.661  13.959 -0.6793  0.1989 -1.9926
17611TIP3    H274325   0.221   5.599  13.895  1.2854 -0.2345  1.8737
17612TIP3   OH274326   0.092   3.334  12.824 -0.3172 -0.2097 -0.3292
17612TIP3    H174327  -0.001   3.317  12.813 -0.1812 -0.0468 -2.0117
17612TIP3    H274328   0.133   3.248  12.815 -0.2557 -0.2014 -0.1393
17613TIP3   OH274329   1.402   3.177   2.301 -0.5198 -0.3839  0.1277
17613TIP3    H174330   1.382   3.172   2.208  0.5567 -0.7664 -0.0877
17613TIP3    H274331   1.465   3.249   2.308 -1.5140  0.4658  0.7353
17614TIP3   OH274332   2.769   0.533   3.643  0.6737  0.5503  0.1397
17614TIP3    H174333   2.860   0.512   3.663  0.5988 -1.6401 -1.4999
17614TIP3    H274334   2.754   0.496   3.556 -1.8039  0.8221  0.3850
17615TIP3   OH274335   0.251   2.535  10.467  0.1354  0.4256  0.2518
17615TIP3    H174336   0.269   2.627  10.487 -1.6686  0.8013  0.2578
17615TIP3    H274337   0.320   2.511  10.405  0.9506  1.6159  0.6562
17616TIP3   OH274338   4.465   6.745  16.081  0.3310 -0.0575  0.3197
17616TIP3    H174339   4.414   6.671  16.115  1.0965 -1.0243 -0.5602
17616TIP3    H274340   4.523   6.768  16.154 -1.0904  0.8505  1.2198
17617TIP3   OH274341   1.511   5.336   5.099  0.7717 -0.1844 -0.0330
17617TIP3    H174342   1.441   5.274   5.118  0.6027 -0.1598 -0.5623
17617TIP3    H274343   1.579   5.283   5.058  1.2373 -0.2837  0.8394
17618TIP3   OH274344   1.670   2.853   3.039 -0.3368  0.2278 -0.3540
17618TIP3    H174345   1.763   2.869   3.022 -0.2033  0.3151  0.4309
17618TIP3    H274346   1.666   2.761   3.065 -0.2474  0.6105  1.0877
17619TIP3   OH274347   3.053   4.693  14.035 -0.1821  0.1011 -0.0068
17619TIP3    H174348   3.066   4.613  13.984 -1.9619  0.5476 -1.2772
17619TIP3    H274349   3.135   4.741  14.026  0.0664 -0.5094 -1.2676
17620TIP3   OH274350   4.870   1.316  12.095  0.2389 -0.0161 -0.1561
17620TIP3    H174351   4.892   1.344  12.184  0.9146 -2.2242  0.4273
17620TIP3    H274352   4.783   1.277  12.102 -0.0405  0.5047 -0.6371
17621TIP3   OH274353   4.902   6.470  13.616 -0.7489 -0.0336 -0.0304
17621TIP3    H174354   4.837   6.417  13.570  1.2303 -1.5030 -1.3182
17621TIP3    H274355   4.878   6.560  13.596 -1.8582 -0.5649 -1.2316
17622TIP3   OH274356   3.974   4.065   1.867 -0.2388  0.4034  0.2749
17622TIP3    H174357   3.882   4.090   1.877 -0.7605 -1.2323 -0.2677
17622TIP3    H274358   4.021   4.129   1.922 -1.4844  2.4151 -0.8535
17623TIP3   OH274359   0.107   0.237  12.953 -0.6836 -0.4261 -0.2831
17623TIP3    H174360   0.122   0.182  13.031  0.7620 -3.4800 -2.5142
17623TIP3    H274361   0.015   0.223  12.931 -0.9941  0.1387  0.5562
17624TIP3   OH274362   3.993   1.156  11.368 -0.1202 -0.4461 -0.3775
17624TIP3    H174363   4.023   1.077  11.413  0.2796 -0.0581  0.0467
17624TIP3    H274364   4.029   1.149  11.279  0.1724 -0.5957 -0.2489
17625TIP3   OH274365   5.110   3.206   1.297 -0.2316 -0.0740  0.5081
17625TIP3    H174366   5.048   3.232   1.364  0.0943 -3.0047  2.0882
17625TIP3    H274367   5.056   3.180   1.222 -0.7833 -0.1802  0.9407
17626TIP3   OH274368   1.407   5.219   1.146  0.0742 -0.1726  0.3816
17626TIP3    H174369   1.381   5.255   1.231  0.2985 -0.0152  0.3825
17626TIP3    H274370   1.338   5.155   1.126  0.7800 -1.2975  1.3765
17627TIP3   OH274371   6.813   0.573   2.581  0.1552 -0.1519  0.7218
17627TIP3    H174372   6.724   0.578   2.547 -0.2251 -1.4242  1.4683
17627TIP3    H274373   6.817   0.643   2.646  0.1722  0.8241 -0.2982
17628TIP3   OH274374   5.404   1.389   0.733 -0.0435  0.0006  0.4169
17628TIP3    H174375   5.334   1.411   0.671  0.0325  0.7589  0.5954
17628TIP3    H274376   5.484   1.408   0.685  0.0562 -0.8911  0.2051
17629TIP3   OH274377   3.929   1.161   2.436  0.2367 -0.4275 -0.1658
17629TIP3    H174378   3.900   1.081   2.392 -0.6824  0.2481 -0.8323
17629TIP3    H274379   3.878   1.164   2.517  1.2794 -1.2103  0.5448
17630TIP3   OH274380   6.015   4.174   1.245 -0.3942 -0.5054 -0.0689
17630TIP3    H174381   6.049   4.120   1.316 -1.5078  1.5153  2.1690
17630TIP3    H274382   5.927   4.141   1.229 -0.5402 -0.2889  0.2732
17631TIP3   OH274383   3.623   6.168  13.680 -0.3490  0.2496  0.1649
17631TIP3    H174384   3.667   6.120  13.610 -0.3279  0.2864  0.1527
17631TIP3    H274385   3.542   6.119  13.696  0.1274 -0.3446  0.8228
17632TIP3   OH274386   6.593   1.017   3.114  0.5189  0.1714 -0.1942
17632TIP3    H174387   6.551   1.103   3.125 -1.3955 -0.8464  0.9314
17632TIP3    H274388   6.682   1.030   3.148  0.0081  1.5186  0.7126
17633TIP3   OH274389   4.009   4.032  15.985 -0.6270 -0.8856  0.1857
17633TIP3    H174390   4.038   4.108  15.934 -0.7137 -0.6817  0.4380
17633TIP3    H274391   3.914   4.041  15.990 -0.5924 -0.7343  0.6442
17634TIP3   OH274392   5.936   2.927   2.983 -0.7819 -0.4480  0.7976
17634TIP3    H174393   5.946   3.001   2.922  1.3885  0.3122  1.9934
17634TIP3    H274394   5.900   2.857   2.929 -0.9211  0.8368 -0.8669
17635TIP3   OH274395   5.827   4.038  11.790 -0.3515  0.3091 -0.2461
17635TIP3    H174396   5.873   4.075  11.715 -0.2873  0.0546 -0.3337
17635TIP3    H274397   5.767   4.107  11.818  2.1739  1.8689  1.7634
17636TIP3   OH274398   2.730   0.818  14.748 -0.0272 -0.2020  0.2390
17636TIP3    H174399   2.645   0.812  14.703  0.0210  0.0847  0.1077
17636TIP3    H274400   2.715   0.881  14.818  0.1796  0.1274 -0.0141
17637TIP3   OH274401   4.722   1.157   3.664 -0.2100  0.4731 -0.2233
17637TIP3    H174402   4.712   1.085   3.600 -0.2794  1.2942 -1.1609
17637TIP3    H274403   4.816   1.171   3.669 -0.2743  1.6519 -1.6087
17638TIP3   OH274404   3.449   0.941   2.118  0.6702  0.6892 -0.3743
17638TIP3    H174405   3.517   0.975   2.177 -0.3362  2.6498 -0.2917
17638TIP3    H274406   3.368   0.979   2.151 -0.2935 -0.4598 -1.3596
17639TIP3   OH274407   1.323   3.175  14.123 -0.1639  1.0026 -0.5995
17639TIP3    H174408   1.345   3.186  14.031  0.3863 -0.5767 -0.6909
17639TIP3    H274409   1.386   3.230  14.169  1.8197 -0.7656 -1.0446
17640TIP3   OH274410   0.264   3.382  16.548  0.2110  0.7326 -0.2888
17640TIP3    H174411   0.295   3.473  16.553  1.8122  0.3487 -1.8850
17640TIP3    H274412   0.334   3.331  16.587 -0.4631  0.1338  0.1576
17641TIP3   OH274413   5.782   2.600   3.622  0.0888  0.0001  0.2169
17641TIP3    H174414   5.833   2.548   3.560 -0.8626  0.1807 -0.7463
17641TIP3    H274415   5.832   2.682   3.630  1.2502 -0.7623  1.2460
17642TIP3   OH274416   6.786   6.334  13.868 -0.1155 -0.0552  0.8291
17642TIP3    H174417   6.836   6.405  13.827  0.4578 -2.2904 -2.8561
17642TIP3    H274418   6.761   6.278  13.795  0.5832 -4.3383  3.5318
17643TIP3   OH274419   1.237   2.161   1.501  0.3369 -0.0598  0.1201
17643TIP3    H174420   1.229   2.079   1.451 -2.4229  0.2623 -0.1510
17643TIP3    H274421   1.239   2.229   1.434 -0.1424  0.2161  0.3807
17644TIP3   OH274422   4.807   4.183   5.515  0.1992 -0.1909  0.6897
17644TIP3    H174423   4.836   4.105   5.564  0.3897  1.2880  3.1207
17644TIP3    H274424   4.887   4.229   5.493  0.0527 -0.3405 -0.2001
17645TIP3   OH274425   6.061   2.775   4.153 -0.6186 -0.3560  0.1782
17645TIP3    H174426   6.125   2.753   4.085  3.1465  0.2504  3.1866
17645TIP3    H274427   6.068   2.703   4.216  0.3654  1.7287  2.6193
17646TIP3   OH274428   6.290   1.553   0.373  0.4940  0.6914  0.9454
17646TIP3    H174429   6.245   1.596   0.300 -0.8310  0.7847  1.7897
17646TIP3    H274430   6.305   1.463   0.343  0.0876  0.7702  0.4987
17647TIP3   OH274431   3.978   4.890   0.940  0.3195  0.5798 -0.2285
17647TIP3    H174432   3.991   4.802   0.975  0.2436  0.6922  0.0919
17647TIP3    H274433   4.053   4.904   0.882 -0.1808 -0.0590 -1.0429
17648TIP3   OH274434   1.517   0.822   0.537 -0.4324 -0.0975  0.0164
17648TIP3    H174435   1.438   0.872   0.514  0.9207  1.7831 -0.8336
17648TIP3    H274436   1.570   0.824   0.458 -0.4770 -3.4154 -0.2299
17649TIP3   OH274437   4.553   0.120  13.232 -0.3750 -0.7517  0.0056
17649TIP3    H174438   4.615   0.063  13.186 -0.4256 -1.0735  0.3275
17649TIP3    H274439   4.469   0.104  13.189 -0.4176 -1.0336  0.1924
17650TIP3   OH274440   3.174   2.736  16.174 -0.2969 -0.0874  0.0202
17650TIP3    H174441   3.174   2.664  16.110  3.4992 -0.8974  0.6729
17650TIP3    H274442   3.162   2.693  16.259  0.5078  0.2145  0.2944
17651TIP3   OH274443   0.442   2.215  14.238  0.8672 -0.3530  0.4374
17651TIP3    H174444   0.490   2.218  14.155  1.2823 -0.5104  0.6707
17651TIP3    H274445   0.433   2.121  14.257 -1.4831 -0.4289 -0.7173
17652TIP3   OH274446   4.251   5.010  12.696 -0.5015  0.2529 -0.6138
17652TIP3    H174447   4.198   4.985  12.620  0.2976  0.2510 -1.1871
17652TIP3    H274448   4.191   5.059  12.752 -2.0801 -2.7527  0.4996
17653TIP3   OH274449   4.464   1.064  10.671  0.1297 -0.2276  0.3324
17653TIP3    H174450   4.497   1.153  10.656  1.7115 -0.8247  0.0770
17653TIP3    H274451   4.416   1.070  10.754  0.5913  0.7620  0.5468
17654TIP3   OH274452   1.853   4.507   0.048 -0.1587  0.2215  0.1851
17654TIP3    H174453   1.815   4.496  -0.039  2.6567 -0.8094 -1.0362
17654TIP3    H274454   1.870   4.601   0.055 -1.7779  0.5259  0.2879
17655TIP3   OH274455   2.002   6.509   3.965  0.1162 -0.1639  0.9408
17655TIP3    H174456   2.063   6.476   3.899 -0.2473 -0.1945  0.6180
17655TIP3    H274457   1.918   6.469   3.943 -0.6399  1.8955 -0.2342
17656TIP3   OH274458   5.493   2.463   1.024  0.4482 -0.1386 -0.1933
17656TIP3    H174459   5.471   2.421   1.107  0.7345 -2.5442 -1.2398
17656TIP3    H274460   5.452   2.549   1.028  0.7773 -0.0461  2.5629
17657TIP3   OH274461   5.790   3.841   0.973  0.8419 -0.4167 -0.4360
17657TIP3    H174462   5.833   3.779   0.913  0.3260 -0.2898 -0.9487
17657TIP3    H274463   5.727   3.788   1.021  0.5209 -0.3251 -0.7527
17658TIP3   OH274464   5.652   2.913  14.512 -0.3547 -0.5504 -0.4531
17658TIP3    H174465   5.583   2.877  14.569 -0.0937 -0.5338 -0.1233
17658TIP3    H274466   5.675   2.997  14.553  0.0195 -0.6588 -0.4408
17659TIP3   OH274467   6.704   0.493   1.104 -0.3219 -0.1098  0.5143
17659TIP3    H174468   6.742   0.562   1.049  0.9705 -0.7695  0.5366
17659TIP3    H274469   6.637   0.538   1.155  0.5516  1.1645  0.5959
17660TIP3   OH274470   3.964   0.801  11.270  0.4405  0.7999  0.1873
17660TIP3    H174471   4.015   0.880  11.286  1.2209  0.5217 -0.7703
17660TIP3    H274472   3.905   0.825  11.199  0.3595  0.6584  0.2072
17661TIP3   OH274473   3.233   3.122   2.104  0.8357 -0.3984 -0.5478
17661TIP3    H174474   3.293   3.112   2.030  0.3154 -0.1747 -1.0083
17661TIP3    H274475   3.181   3.199   2.082 -0.1761 -1.0691 -0.5506
17662TIP3   OH274476   5.583   0.380  12.503  0.5243 -0.3298  0.1643
17662TIP3    H174477   5.606   0.446  12.438 -1.1334  0.7324  0.6025
17662TIP3    H274478   5.655   0.317  12.499  3.2987  2.4851  1.1641
17663TIP3   OH274479   0.814   5.570  10.926  0.3625 -0.2104  0.0806
17663TIP3    H174480   0.903   5.556  10.958  0.8373 -0.3066 -1.2185
17663TIP3    H274481   0.787   5.485  10.892  0.6492  0.3140 -1.5692
17664TIP3   OH274482   1.207   4.657  12.329 -0.2969 -0.4897 -0.7234
17664TIP3    H174483   1.148   4.589  12.298 -1.8361  0.2561  0.4085
17664TIP3    H274484   1.214   4.642  12.424  0.3588  0.1544 -0.6618
17665TIP3   OH274485   4.106   4.899  12.437  0.3502  0.2279 -0.1966
17665TIP3    H174486   4.147   4.882  12.352  2.9429  0.3185  0.9552
17665TIP3    H274487   4.071   4.988  12.429 -0.6923 -0.2554 -1.5688
17666TIP3   OH274488   6.134   6.577   3.023 -0.4664  0.5471 -0.5766
17666TIP3    H174489   6.061   6.516   3.013  0.3768 -0.4315 -0.9829
17666TIP3    H274490   6.102   6.644   3.084 -1.9796  0.6114 -1.4031
17667TIP3   OH274491   0.561   6.744   5.400 -0.0789 -0.2298 -0.2234
17667TIP3    H174492   0.553   6.697   5.316 -1.2309 -0.4763  0.0057
17667TIP3    H274493   0.655   6.744   5.419  0.2044 -0.1552 -1.5216
17668TIP3   OH274494   0.677   0.821   5.296  0.3677  0.3861 -0.4406
17668TIP3    H174495   0.633   0.837   5.379  1.3055  1.5391 -0.1454
17668TIP3    H274496   0.692   0.726   5.295 -0.8482  0.1650  0.0681
17669TIP3   OH274497   1.133   4.184   6.244 -0.5252  0.3113 -0.5482
17669TIP3    H174498   1.050   4.232   6.243 -0.8729 -0.2269  0.5025
17669TIP3    H274499   1.120   4.111   6.184  1.0163  2.9909 -4.6042
17670TIP3   OH274500   6.781   2.767  15.812 -0.3334  0.6125 -0.2134
17670TIP3    H174501   6.733   2.693  15.849 -1.8300  1.2368 -0.8303
17670TIP3    H274502   6.782   2.750  15.718 -0.1179  1.0498 -0.2944
17671TIP3   OH274503   1.010   1.396   1.418 -0.5130 -0.2808  0.1762
17671TIP3    H174504   0.930   1.361   1.458 -1.1847 -3.0063 -3.0844
17671TIP3    H274505   0.981   1.471   1.367 -0.9276 -0.9061 -0.5251
17672TIP3   OH274506   6.781   3.237  15.592 -0.0776 -0.1718 -0.3201
17672TIP3    H174507   6.714   3.266  15.653 -1.5563  1.0447 -2.3688
17672TIP3    H274508   6.750   3.268  15.506  2.5048 -0.6380 -1.5272
17673TIP3   OH274509   1.835   4.105   2.026 -0.0801  0.1518  0.6067
17673TIP3    H174510   1.861   4.013   2.021 -0.3366  0.0760  0.6846
17673TIP3    H274511   1.888   4.141   2.097  0.1357  0.1038  0.4715
17674TIP3   OH274512   0.133   4.012   1.305  0.0294  0.2044  0.1089
17674TIP3    H174513   0.199   3.998   1.238 -0.4050 -1.3804 -0.0386
17674TIP3    H274514   0.155   3.948   1.374 -1.3723 -0.4286  0.0071
17675TIP3   OH274515   1.246   6.484   3.111  0.2806 -0.0052  0.7095
17675TIP3    H174516   1.305   6.553   3.081  0.1940 -0.5737 -0.8976
17675TIP3    H274517   1.162   6.527   3.124  0.1664  0.1658 -0.5111
17676TIP3   OH274518   6.769   1.372   1.513  0.2918  0.1112  0.1842
17676TIP3    H174519   6.837   1.345   1.452 -0.6404 -1.6239 -0.1289
17676TIP3    H274520   6.808   1.360   1.599  1.0336  1.0097  0.0003
17677TIP3   OH274521   1.773   1.423   1.835 -0.7955 -0.4753 -0.0958
17677TIP3    H174522   1.827   1.501   1.848  0.8663 -1.9019  2.5021
17677TIP3    H274523   1.724   1.440   1.754  1.5468  2.0330 -1.1233
17678TIP3   OH274524   0.017   5.040   3.868 -0.2916 -0.5302  0.3750
17678TIP3    H174525   0.016   5.078   3.780 -0.5219 -1.0367  0.1518
17678TIP3    H274526   0.110   5.038   3.892 -0.2036 -0.6487  0.0263
17679TIP3   OH274527   6.283   0.434  14.632  0.0444 -0.2816 -0.0685
17679TIP3    H174528   6.299   0.433  14.727 -1.6314 -0.2972  0.2471
17679TIP3    H274529   6.258   0.524  14.613 -0.1445 -0.4024 -0.3952
17680TIP3   OH274530   0.731   5.617  12.664  0.1156  0.3725  0.7897
17680TIP3    H174531   0.706   5.568  12.743  0.4958 -0.9567  0.1273
17680TIP3    H274532   0.659   5.679  12.650  0.0613  0.6588  2.1873
17681TIP3   OH274533   2.213   2.182  15.053  0.4112 -0.7313 -0.1349
17681TIP3    H174534   2.159   2.183  14.974 -1.3062 -0.9860  0.9772
17681TIP3    H274535   2.303   2.184  15.021 -0.2411 -0.5372 -2.0750
17682TIP3   OH274536   4.217   2.956   1.962  0.0452  0.5572 -0.0777
17682TIP3    H174537   4.270   3.005   2.025  0.2371 -0.3068  0.4508
17682TIP3    H274538   4.260   2.870   1.957 -1.2644 -0.1439  0.3271
17683TIP3   OH274539   0.185   3.545   3.189 -0.3091  0.0290 -0.2305
17683TIP3    H174540   0.219   3.486   3.123 -1.0556  0.2261 -0.8138
17683TIP3    H274541   0.215   3.509   3.272  1.1927  0.1424 -0.7030
17684TIP3   OH274542   2.610   3.875   0.430  0.5817  0.9717  0.9497
17684TIP3    H174543   2.553   3.865   0.507  0.1580  1.6774  0.7437
17684TIP3    H274544   2.565   3.827   0.360  2.4097 -2.2368  1.7794
17685TIP3   OH274545   5.238   0.627   1.054  0.8305  0.4043 -0.3388
17685TIP3    H174546   5.281   0.560   1.001  0.2116  0.0870 -0.4532
17685TIP3    H274547   5.288   0.707   1.037  1.4689  0.0101 -0.3374
17686TIP3   OH274548   4.480   5.166  17.087  0.2469 -0.2039 -0.2862
17686TIP3    H174549   4.387   5.188  17.087  0.6334  1.8719  1.8327
17686TIP3    H274550   4.508   5.179  17.178  2.1405 -3.1188 -0.3204
17687TIP3   OH274551   3.220   6.599   0.380  0.0585 -0.0857  0.3945
17687TIP3    H174552   3.142   6.561   0.420 -0.9807 -0.0698 -1.4806
17687TIP3    H274553   3.193   6.688   0.356  0.6358 -0.0894 -0.2956
17688TIP3   OH274554   1.747   5.586   4.298  0.3792 -0.0196  0.3636
17688TIP3    H174555   1.822   5.600   4.355  1.1781  0.5128 -0.7784
17688TIP3    H274556   1.784   5.571   4.211 -0.7980 -0.8203 -0.0347
17689TIP3   OH274557   2.183   2.811  11.874  0.1196  0.3205  1.2169
17689TIP3    H174558   2.088   2.823  11.879 -0.5462 -1.3252 -2.9911
17689TIP3    H274559   2.194   2.728  11.828  3.5692  1.1024  0.3349
17690TIP3   OH274560   0.790   2.832  12.060  0.2821  0.3392 -0.0691
17690TIP3    H174561   0.764   2.759  12.117  0.1107 -0.6520 -1.3672
17690TIP3    H274562   0.814   2.790  11.977 -1.3596  1.8697 -1.3990
17691TIP3   OH274563   5.845   3.188  14.216 -0.3793 -0.2602 -0.5924
17691TIP3    H174564   5.808   3.206  14.303 -0.0677  2.2228 -0.9008
17691TIP3    H274565   5.793   3.242  14.157 -0.1424 -1.4083 -1.8985
17692TIP3   OH274566   5.319   0.228  16.121 -0.0942  0.1897 -0.6774
17692TIP3    H174567   5.284   0.311  16.088 -2.2964 -0.1204  0.6044
17692TIP3    H274568   5.242   0.184  16.159  1.4214 -1.4284  0.6964
17693TIP3   OH274569   4.804   6.172   6.392  0.1502  0.4607  0.3809
17693TIP3    H174570   4.775   6.085   6.363  1.1433  0.0988  0.4054
17693TIP3    H274571   4.898   6.172   6.375  0.1651  1.5344  0.4007
17694TIP3   OH274572   0.689   4.596   6.561  0.1592  0.2124  0.1767
17694TIP3    H174573   0.710   4.589   6.654  2.1050 -1.0460 -0.2934
17694TIP3    H274574   0.738   4.524   6.520 -3.0404 -1.2431 -1.4639
17695TIP3   OH274575   6.320   3.354  16.525 -0.1089  0.4212  0.4507
17695TIP3    H174576   6.344   3.333  16.615 -1.9641  1.5644  1.2732
17695TIP3    H274577   6.225   3.366  16.527 -0.3783 -0.6572 -1.9230
17696TIP3   OH274578   4.976   2.684  14.987  0.6070  0.1273 -0.0601
17696TIP3    H174579   4.919   2.659  14.914 -1.9771  0.2336  1.7670
17696TIP3    H274580   5.001   2.600  15.027  2.2539  0.0557 -1.1714
17697TIP3   OH274581   3.557   2.015   1.887  0.1750  0.4616  0.2340
17697TIP3    H174582   3.546   2.043   1.796 -2.6084  0.9254  0.6446
17697TIP3    H274583   3.638   2.057   1.915  0.0534  1.9249 -1.4512
17698TIP3   OH274584   5.257   2.392   3.245  0.1265 -0.3523 -0.3383
17698TIP3    H174585   5.310   2.330   3.296  0.0906 -0.1781 -0.0861
17698TIP3    H274586   5.297   2.477   3.263  1.1465 -0.4579 -1.9071
17699TIP3   OH274587   2.116   3.285  14.816  0.6421 -0.2032 -0.0937
17699TIP3    H174588   2.206   3.259  14.836 -0.1786 -2.7967  0.5964
17699TIP3    H274589   2.084   3.325  14.896  1.0521  0.4061 -0.2267
17700TIP3   OH274590   6.823   5.797   6.267 -0.8281  0.0650 -0.3372
17700TIP3    H174591   6.805   5.754   6.351 -0.3724  1.0767  0.2949
17700TIP3    H274592   6.794   5.888   6.280  0.1331  0.4710 -0.9555
17701TIP3   OH274593   1.267   0.949   6.158  0.1797  0.1977 -0.7767
17701TIP3    H174594   1.211   1.014   6.200 -0.2709 -0.4262 -0.3864
17701TIP3    H274595   1.350   0.955   6.205  0.0144  0.2258 -0.4840
17702TIP3   OH274596   5.187   4.112  17.069 -0.6665 -0.0564 -0.4003
17702TIP3    H174597   5.110   4.059  17.047 -1.3381 -0.0225  1.6456
17702TIP3    H274598   5.160   4.163  17.145  1.0045  0.8627 -0.3789
17703TIP3   OH274599   1.114   6.203  12.841 -0.7179 -0.1712 -0.8747
17703TIP3    H174600   1.141   6.287  12.804 -2.3358  0.3812 -0.8460
17703TIP3    H274601   1.141   6.207  12.933  1.8096 -0.8847 -1.5084
17704TIP3   OH274602   5.198   3.167   6.123  0.4326 -0.5141  0.2170
17704TIP3    H174603   5.153   3.239   6.080  0.0505  0.2887  1.8936
17704TIP3    H274604   5.251   3.127   6.054 -0.2018  0.6632 -0.9924
17705TIP3   OH274605   2.402   0.199   1.863  0.4084 -1.0288 -0.1830
17705TIP3    H174606   2.468   0.245   1.811 -1.6368 -0.3365 -2.3395
17705TIP3    H274607   2.410   0.108   1.836 -0.2325 -0.7693 -1.3023
17706TIP3   OH274608   3.282   4.158  16.246 -0.6066  0.5920 -0.2690
17706TIP3    H174609   3.339   4.185  16.175 -0.1054  0.8561  0.2230
17706TIP3    H274610   3.343   4.129  16.315 -1.0663  0.6842  0.1814
17707TIP3   OH274611   4.949   0.664   2.941 -0.3202 -0.4023  0.5312
17707TIP3    H174612   5.014   0.594   2.944 -1.5227 -1.5267  0.9631
17707TIP3    H274613   4.945   0.688   2.848  1.2228  0.2206  0.5849
17708TIP3   OH274614   5.614   6.233  15.495 -0.4652  0.4272 -0.5546
17708TIP3    H174615   5.629   6.266  15.407  0.8795  1.0092 -0.1425
17708TIP3    H274616   5.701   6.237  15.537 -1.2297  0.9906  1.0622
17709TIP3   OH274617   6.246   4.077   3.871  0.4856 -0.1428 -0.5896
17709TIP3    H174618   6.280   3.994   3.837  0.9877 -0.2303  0.1030
17709TIP3    H274619   6.169   4.052   3.923  1.5888 -0.3805  0.9888
17710TIP3   OH274620   5.101   2.273  12.702  0.1730 -0.4091  0.5209
17710TIP3    H174621   5.112   2.225  12.620 -0.8042 -0.2463  0.2767
17710TIP3    H274622   5.183   2.321  12.714  0.1274 -0.0245 -0.6321
17711TIP3   OH274623   0.312   5.655   1.411 -0.8012 -0.1755  0.2118
17711TIP3    H174624   0.295   5.561   1.414  2.7479 -0.9437  1.0030
17711TIP3    H274625   0.306   5.678   1.319 -2.0087 -1.0969  0.0400
17712TIP3   OH274626   3.863   1.138   0.935  0.2587 -0.0032 -0.2117
17712TIP3    H174627   3.907   1.179   1.009 -1.3341  0.0600  0.7553
17712TIP3    H274628   3.878   1.197   0.862 -0.4348  1.3894  0.7177
17713TIP3   OH274629   5.144   3.411  16.011 -0.4916  0.1384 -0.1814
17713TIP3    H174630   5.090   3.490  16.017 -0.1894  0.4231 -1.0630
17713TIP3    H274631   5.158   3.399  15.917  0.0249 -0.5856 -0.0148
17714TIP3   OH274632   6.641   1.254   4.284  0.9149 -0.7468 -0.0474
17714TIP3    H174633   6.681   1.340   4.265  0.8687 -0.7095  0.0259
17714TIP3    H274634   6.688   1.193   4.227  1.0383 -0.6936 -0.0020
17715TIP3   OH274635   6.714   1.017  16.686  0.3900 -0.2390 -0.1331
17715TIP3    H174636   6.749   1.029  16.774  1.6247 -1.7217 -0.3655
17715TIP3    H274637   6.771   1.070  16.629  0.2418 -0.1034 -0.1569
17716TIP3   OH274638   0.895   4.090  14.195 -0.2808 -0.5247  0.4826
17716TIP3    H174639   0.908   3.996  14.212  0.3209 -0.7182 -0.9165
17716TIP3    H274640   0.965   4.133  14.243  0.2500 -0.8995  0.0526
17717TIP3   OH274641   0.446   5.835  12.115 -0.5014 -0.7390 -0.2139
17717TIP3    H174642   0.420   5.761  12.169 -2.8802 -1.0668 -1.6580
17717TIP3    H274643   0.463   5.797  12.029  1.3661  0.0144 -0.2238
17718TIP3   OH274644   3.547   3.045   5.287 -0.3368  0.1484  0.0061
17718TIP3    H174645   3.538   2.966   5.340 -0.7810 -2.2842 -3.4332
17718TIP3    H274646   3.465   3.092   5.301  0.1729  0.4162  2.5547
17719TIP3   OH274647   3.387   3.736  17.129  0.5910 -0.3444  0.2021
17719TIP3    H174648   3.461   3.680  17.107  1.8379  1.2576  0.1069
17719TIP3    H274649   3.398   3.754  17.222  0.4286  0.0478  0.1464
17720TIP3   OH274650   2.802   4.663  14.406 -0.2543 -0.1028 -0.1614
17720TIP3    H174651   2.735   4.726  14.430 -1.1771 -1.6632  1.6350
17720TIP3    H274652   2.884   4.703  14.433 -0.9167 -0.0569  1.9113
17721TIP3   OH274653   3.064   1.948   6.351  0.0142  0.3024 -0.1793
17721TIP3    H174654   3.034   1.858   6.339 -1.6118  0.7702  0.1049
17721TIP3    H274655   3.139   1.941   6.410  0.2660 -0.8937 -0.6026
17722TIP3   OH274656   0.443   4.040  10.767 -0.1850 -0.3977  0.3530
17722TIP3    H174657   0.466   4.010  10.855 -0.9633 -0.8826  0.3999
17722TIP3    H274658   0.349   4.023  10.760  0.0631 -1.4082 -0.9764
17723TIP3   OH274659   0.435   1.735  11.646 -0.5633 -0.4754  1.0392
17723TIP3    H174660   0.359   1.719  11.590 -1.1557 -0.2969  1.7730
17723TIP3    H274661   0.403   1.794  11.715  0.3027 -0.1946  1.2234
17724TIP3   OH274662   0.980   6.704  15.883 -0.2831  0.1593  0.1065
17724TIP3    H174663   0.909   6.760  15.915 -0.7898  0.5648 -1.6069
17724TIP3    H274664   1.036   6.690  15.959 -1.3044  1.2234  1.0930
17725TIP3   OH274665   3.509   4.096  13.352 -0.5019  0.2565  0.3811
17725TIP3    H174666   3.427   4.143  13.370 -0.9211 -0.0233 -0.6970
17725TIP3    H274667   3.549   4.145  13.280  0.2617  0.3568  0.8639
17726TIP3   OH274668   2.064   4.946   3.073  0.1122 -0.2774  0.1011
17726TIP3    H174669   2.098   4.933   2.985  0.6601 -0.1997  0.2936
17726TIP3    H274670   2.107   5.025   3.104 -0.8723  0.2835  0.0632
17727TIP3   OH274671   0.419   1.697   1.546  0.1666 -0.2370 -0.0040
17727TIP3    H174672   0.402   1.704   1.640  1.7125  1.1718  0.2203
17727TIP3    H274673   0.332   1.700   1.506 -0.4365  1.2755  1.2872
17728TIP3   OH274674   3.458   4.350   5.917  0.7604 -0.3316  0.3791
17728TIP3    H174675   3.499   4.430   5.950 -0.3539 -0.3016  1.7950
17728TIP3    H274676   3.367   4.374   5.902  0.6300 -1.0885 -0.0969
17729TIP3   OH274677   2.852   0.658  15.232  0.3687  0.2576 -0.0349
17729TIP3    H174678   2.758   0.668  15.243  0.1771  1.2196 -1.9969
17729TIP3    H274679   2.877   0.728  15.171  2.0161 -1.1051 -1.0456
17730TIP3   OH274680   2.414   5.552   0.976 -0.3942 -0.1490  0.0967
17730TIP3    H174681   2.358   5.547   0.899 -1.6900  1.3674  0.8755
17730TIP3    H274682   2.372   5.494   1.040 -0.8694  0.6595  0.5372
17731TIP3   OH274683   1.457   5.584  14.951  0.1224 -0.3127 -0.1891
17731TIP3    H174684   1.377   5.604  15.001 -0.8918 -1.9242 -1.0713
17731TIP3    H274685   1.519   5.653  14.976 -2.1091  2.0679 -0.8166
17732TIP3   OH274686   2.270   4.265  11.414  0.0020  0.1052 -0.2754
17732TIP3    H174687   2.349   4.215  11.435 -1.4150 -1.4764  1.6728
17732TIP3    H274688   2.301   4.355  11.403  1.9573 -0.3028  1.3320
17733TIP3   OH274689   1.691   4.656  12.525 -0.0710 -0.1010  0.1876
17733TIP3    H174690   1.750   4.639  12.451  0.2236 -0.7060  0.5561
17733TIP3    H274691   1.635   4.578  12.530  0.6380 -0.5567  1.2791
17734TIP3   OH274692   4.913   6.289  12.595  0.0761  0.8300  0.4348
17734TIP3    H174693   4.937   6.332  12.677 -2.9092 -0.5628  2.1979
17734TIP3    H274694   4.867   6.209  12.622 -0.3543 -0.0860 -2.6217
17735TIP3   OH274695   4.123   5.836   0.374 -0.0802  0.2372  0.1776
17735TIP3    H174696   4.111   5.904   0.441  0.1121  0.2590  0.1902
17735TIP3    H274697   4.199   5.865   0.323  0.1750 -0.1103  0.3558
17736TIP3   OH274698   4.282   1.137   0.392  0.7606  0.1213  0.1243
17736TIP3    H174699   4.366   1.183   0.386  1.3140 -0.8728  0.0829
17736TIP3    H274700   4.295   1.057   0.342 -0.6841  0.6157 -1.0905
17737TIP3   OH274701   4.547   6.050  15.824 -0.1218  0.3749  0.3939
17737TIP3    H174702   4.573   6.142  15.832  1.0820 -0.0791  2.5241
17737TIP3    H274703   4.625   6.006  15.792  0.2703 -0.3058  2.2020
17738TIP3   OH274704   6.152   3.161  14.741 -0.5022  0.1827 -0.0101
17738TIP3    H174705   6.174   3.254  14.735 -1.4254  0.4492  0.4266
17738TIP3    H274706   6.236   3.116  14.736 -0.1241  0.9654 -1.4725
17739TIP3   OH274707   0.420   5.370   2.786  0.1946  0.1845 -0.1652
17739TIP3    H174708   0.405   5.419   2.706  0.6908 -0.7937 -0.8718
17739TIP3    H274709   0.482   5.423   2.836 -0.8940  1.2892  0.0463
17740TIP3   OH274710   6.031   1.538  17.112 -0.3391 -0.1971 -0.2386
17740TIP3    H174711   6.086   1.496  17.046 -1.2319 -0.7779 -0.6345
17740TIP3    H274712   5.984   1.465  17.154  0.7140  0.0849  1.5410
17741TIP3   OH274713   0.998   1.501   4.323  0.7935 -0.1084  0.5482
17741TIP3    H174714   0.949   1.427   4.288 -0.2858  0.2290  1.2896
17741TIP3    H274715   1.087   1.487   4.292  0.2216 -0.6831 -0.9298
17742TIP3   OH274716   3.672   1.906  11.883 -0.1288 -0.2195 -0.1942
17742TIP3    H174717   3.614   1.950  11.821 -1.2389 -0.7048  0.4563
17742TIP3    H274718   3.748   1.964  11.892  0.4378 -0.4973 -2.5642
17743TIP3   OH274719   3.881   0.662  11.513  0.1628 -0.5840 -0.2916
17743TIP3    H174720   3.905   0.725  11.445 -0.3324 -0.2738 -0.1863
17743TIP3    H274721   3.880   0.577  11.469  0.0348 -0.4102 -0.6282
17744TIP3   OH274722   0.251   0.803   5.328  0.0938  0.1648  0.2154
17744TIP3    H174723   0.234   0.709   5.326 -2.5206  0.5775  0.3532
17744TIP3    H274724   0.301   0.816   5.409 -0.2000 -1.0153  0.6089
17745TIP3   OH274725   1.090   2.343   5.461  0.5585 -0.2651  0.1705
17745TIP3    H174726   1.148   2.404   5.506  0.6794 -0.0506 -0.2682
17745TIP3    H274727   1.111   2.257   5.498  2.2089 -0.4178 -0.9922
17746TIP3   OH274728   2.581   2.424   2.009  0.1652 -0.2416 -0.7992
17746TIP3    H174729   2.596   2.347   2.063  0.6560 -0.8064 -1.7102
17746TIP3    H274730   2.533   2.391   1.933  0.1913  0.3867 -1.0917
17747TIP3   OH274731   6.307   6.067  15.940  0.0613 -0.1919 -0.5863
17747TIP3    H174732   6.272   6.096  15.856 -2.4199 -1.4152 -0.0640
17747TIP3    H274733   6.367   5.995  15.918  0.5654  0.4565 -1.3702
17748TIP3   OH274734   1.127   2.520  14.803  0.3686 -0.0576 -0.3244
17748TIP3    H174735   1.219   2.491  14.799  0.6191 -0.1160  2.9160
17748TIP3    H274736   1.125   2.584  14.874 -2.2991 -1.0027  0.5821
17749TIP3   OH274737   0.239   2.659  13.901 -0.6030 -0.5085 -0.1103
17749TIP3    H174738   0.298   2.647  13.827  0.0053 -0.4836  0.3615
17749TIP3    H274739   0.184   2.580  13.901  0.1146 -1.0226  0.0479
17750TIP3   OH274740   0.730   3.010  15.446 -0.7981  0.5870  0.5735
17750TIP3    H174741   0.681   2.939  15.403  0.9001 -1.8830  2.4364
17750TIP3    H274742   0.756   3.067  15.374  0.4153 -2.3910 -1.5404
17751TIP3   OH274743   2.289   4.141  15.548 -0.5993 -0.1412 -0.7060
17751TIP3    H174744   2.265   4.089  15.472  1.1506  0.0042 -1.3849
17751TIP3    H274745   2.294   4.078  15.620 -1.6607 -0.3706 -0.8255
17752TIP3   OH274746   6.754   0.918  12.968 -0.6562 -0.4440 -0.5279
17752TIP3    H174747   6.785   0.907  13.058  1.5244  2.7670 -0.7376
17752TIP3    H274748   6.802   0.852  12.918 -1.7557 -2.1398  0.5635
17753TIP3   OH274749   4.775   5.489   5.391 -0.3810 -0.1856 -0.3057
17753TIP3    H174750   4.816   5.493   5.305 -1.7214 -0.4453 -0.9885
17753TIP3    H274751   4.779   5.396   5.415 -2.7484 -0.7036 -1.5454
17754TIP3   OH274752   5.281   1.613  11.705  0.2864  0.0812  0.3118
17754TIP3    H174753   5.260   1.569  11.787  0.7318 -0.1963  0.2836
17754TIP3    H274754   5.318   1.697  11.731 -0.8382  0.5738  0.3604
17755TIP3   OH274755   3.667   5.717  10.318  0.2685 -0.3033 -0.2388
17755TIP3    H174756   3.583   5.678  10.293  0.8297 -1.9201  0.2985
17755TIP3    H274757   3.642   5.795  10.368 -0.9663 -1.1633  0.5608
17756TIP3   OH274758   6.822   2.743  11.895 -0.1146 -0.2176  0.0254
17756TIP3    H174759   6.887   2.674  11.908 -0.1921  0.0410  2.2311
17756TIP3    H274760   6.791   2.730  11.805  1.0185 -2.0322 -0.1672
17757TIP3   OH274761   6.283   6.804   3.642 -0.4430  0.4500 -0.3039
17757TIP3    H174762   6.241   6.853   3.713 -1.5499 -0.3084 -0.4157
17757TIP3    H274763   6.213   6.751   3.604  1.1456 -3.5213  1.7137
17758TIP3   OH274764   6.702   0.212  12.397  0.6275 -0.1932  0.4980
17758TIP3    H174765   6.726   0.190  12.486  0.0725  0.5806  0.8532
17758TIP3    H274766   6.653   0.136  12.365  0.1703 -0.1651  1.1205
17759TIP3   OH274767   3.758   3.087  16.678  0.0078 -0.0296 -0.6280
17759TIP3    H174768   3.735   3.136  16.757  0.9613  0.7642 -0.8079
17759TIP3    H274769   3.682   3.096  16.620 -0.2536  0.3266 -0.2300
17760TIP3   OH274770   5.634   4.520   2.645 -0.4160  0.4241 -0.2007
17760TIP3    H174771   5.634   4.426   2.628  0.6768  0.7055 -2.1284
17760TIP3    H274772   5.554   4.552   2.602  0.0892  0.5666 -1.0657
17761TIP3   OH274773   6.138   6.081   0.127 -0.1124  0.0295  0.0771
17761TIP3    H174774   6.125   6.132   0.207  0.2686 -1.2324  0.9716
17761TIP3    H274775   6.061   6.099   0.074 -0.5354  0.6175  0.8777
17762TIP3   OH274776   1.267   0.623   1.221 -0.3587  0.0243 -0.1491
17762TIP3    H174777   1.278   0.530   1.241 -2.8910 -0.3129 -0.0502
17762TIP3    H274778   1.200   0.626   1.152  0.9697  1.7147 -1.4560
17763TIP3   OH274779   0.366   4.571   0.103  0.4784 -0.1666 -0.1085
17763TIP3    H174780   0.362   4.509   0.030  1.0271  0.5199 -0.7330
17763TIP3    H274781   0.417   4.525   0.170  0.5185 -0.5627 -0.4072
17764TIP3   OH274782   4.754   2.513  14.138  0.1493 -0.6795  0.7086
17764TIP3    H174783   4.698   2.553  14.072  2.2847  0.3317 -0.5701
17764TIP3    H274784   4.712   2.428  14.156 -0.6551 -0.8709 -1.7242
17765TIP3   OH274785   5.546   2.658   4.404  0.2437  0.5613  0.0691
17765TIP3    H174786   5.625   2.694   4.364  0.6646 -1.0677 -0.6518
17765TIP3    H274787   5.534   2.708   4.484  1.4254  1.5148 -0.3317
17766TIP3   OH274788   0.742   1.987   4.887 -0.1573  0.2816 -0.0261
17766TIP3    H174789   0.826   1.942   4.883  0.8791  2.1853 -1.3041
17766TIP3    H274790   0.695   1.944   4.958  0.6735 -2.8152 -1.1622
17767TIP3   OH274791   1.683   5.954   3.280 -0.0245 -0.2443 -0.0867
17767TIP3    H174792   1.687   6.040   3.238 -2.5639 -0.8645 -1.8090
17767TIP3    H274793   1.629   5.967   3.358  1.7009  0.1661  1.0997
17768TIP3   OH274794   6.560   0.619   4.327 -0.5040 -0.2630  0.4969
17768TIP3    H174795   6.499   0.685   4.297 -1.3289 -1.1419  0.1906
17768TIP3    H274796   6.510   0.566   4.389 -0.1888 -1.2357 -0.0529
17769TIP3   OH274797   5.392   2.652  13.165 -0.2481 -0.7934  0.3211
17769TIP3    H174798   5.461   2.707  13.128 -0.1903 -0.9252  0.2339
17769TIP3    H274799   5.352   2.609  13.090 -1.1422  0.1130  0.2688
17770TIP3   OH274800   4.221   3.780  13.409  0.3064 -0.0119 -0.2775
17770TIP3    H174801   4.177   3.706  13.451  0.6565 -0.6166 -0.9573
17770TIP3    H274802   4.211   3.763  13.315 -2.2734  2.3445 -0.5692
17771TIP3   OH274803   3.320   3.533  14.163  0.6314  0.5807  0.4436
17771TIP3    H174804   3.291   3.489  14.242 -0.1007 -1.2663 -0.7936
17771TIP3    H274805   3.370   3.467  14.115 -0.3068  1.1230 -1.3679
17772TIP3   OH274806   4.227   4.278   0.154 -0.0884  0.0071  0.7847
17772TIP3    H174807   4.181   4.358   0.178 -0.8714 -0.9475  2.6551
17772TIP3    H274808   4.207   4.266   0.061 -1.9648  0.7054  1.0464
17773TIP3   OH274809   3.661   2.040  12.596  0.3498 -0.0916  0.2942
17773TIP3    H174810   3.675   2.098  12.672  0.3661 -1.0770  1.0573
17773TIP3    H274811   3.682   2.095  12.521 -0.1637  1.0756  0.9607
17774TIP3   OH274812   1.356   2.334  14.344  0.2250  0.5664 -0.3862
17774TIP3    H174813   1.311   2.311  14.425  2.4053  0.8210  0.9827
17774TIP3    H274814   1.423   2.396  14.371  0.5050  1.2695 -2.5413
17775TIP3   OH274815   2.849   5.612   1.892 -0.6135  0.4470 -0.1069
17775TIP3    H174816   2.923   5.557   1.919  0.0013  0.2292 -2.0758
17775TIP3    H274817   2.813   5.645   1.974  0.7129 -0.6785  0.9888
17776TIP3   OH274818   4.181   6.415   1.903  0.0588 -0.1809  0.2908
17776TIP3    H174819   4.213   6.454   1.984  3.0142 -3.7066  1.0674
17776TIP3    H274820   4.204   6.480   1.836  0.6399  1.3710  1.8884
17777TIP3   OH274821   5.779   5.795  15.167 -0.2585  0.0431 -0.4151
17777TIP3    H174822   5.836   5.872  15.174  1.6919 -1.3301 -0.3886
17777TIP3    H274823   5.798   5.744  15.246  0.0296 -1.4311 -1.3928
17778TIP3   OH274824   4.959   3.474  11.566 -0.0794  0.2951 -0.9014
17778TIP3    H174825   4.869   3.460  11.536 -0.6240  1.7413 -0.0599
17778TIP3    H274826   4.998   3.530  11.500 -0.1581  0.5777 -0.7111
17779TIP3   OH274827   0.674   2.832  12.524 -0.2398  0.5025  0.2844
17779TIP3    H174828   0.741   2.766  12.504 -1.2139 -0.2132 -0.6914
17779TIP3    H274829   0.723   2.904  12.563  1.2297  0.3405 -1.1634
17780TIP3   OH274830   6.376   3.327   1.182 -0.4788 -0.2285 -0.1656
17780TIP3    H174831   6.425   3.250   1.211 -1.6491 -1.3679 -1.0982
17780TIP3    H274832   6.424   3.401   1.218  0.9023 -1.3751  0.4344
17781TIP3   OH274833   5.338   0.139   5.141 -0.4036  0.4908  0.1846
17781TIP3    H174834   5.345   0.044   5.143  4.0844  0.5880 -0.2330
17781TIP3    H274835   5.326   0.161   5.049  1.9697  0.2583 -0.2562
17782TIP3   OH274836   0.754   3.825   0.749 -0.2097  0.2173 -0.0468
17782TIP3    H174837   0.736   3.760   0.818  2.0443 -0.7000 -0.2220
17782TIP3    H274838   0.767   3.907   0.797 -3.7718  0.8347  0.1276
17783TIP3   OH274839   3.896   4.259   1.133  0.1755  0.5358  0.6141
17783TIP3    H174840   3.843   4.326   1.091  1.6897  1.5401  0.2002
17783TIP3    H274841   3.836   4.186   1.148 -1.3114  1.6410  0.2704
17784TIP3   OH274842   4.526   6.106  11.829  0.5658 -0.4255  0.0194
17784TIP3    H174843   4.538   6.199  11.814 -2.5285 -0.0719 -0.9142
17784TIP3    H274844   4.614   6.074  11.852  1.4269  2.9516  2.1379
17785TIP3   OH274845   2.240   1.866   4.081  0.1883 -0.0084  0.2370
17785TIP3    H174846   2.314   1.877   4.023  1.8155 -0.4271  2.1076
17785TIP3    H274847   2.236   1.771   4.096  1.3998  0.2392  2.6337
17786TIP3   OH274848   0.471   3.799   3.434  0.0844  0.4072 -0.6057
17786TIP3    H174849   0.457   3.706   3.453  0.2746  0.7296  1.2467
17786TIP3    H274850   0.527   3.830   3.505  0.8656  1.7328 -1.7427
17787TIP3   OH274851   3.348   6.331  15.021 -0.5605 -0.4022  0.4059
17787TIP3    H174852   3.437   6.329  14.987 -0.9791 -1.3226 -0.6797
17787TIP3    H274853   3.346   6.265  15.090  0.5827  2.1780  3.1621
17788TIP3   OH274854   1.955   0.102   6.623 -0.8161 -0.0380 -0.3758
17788TIP3    H174855   2.015   0.040   6.663  1.0921  1.9552  0.0796
17788TIP3    H274856   1.868   0.071   6.647  0.1346 -1.2455  1.7644
17789TIP3   OH274857   2.474   3.294   2.261 -0.2164  0.2136 -0.2443
17789TIP3    H174858   2.530   3.270   2.335  0.4500 -0.0249 -0.8099
17789TIP3    H274859   2.392   3.248   2.277 -0.6246  1.3557  1.1093
17790TIP3   OH274860   2.168   1.799   5.765 -0.3756 -0.3887 -0.7043
17790TIP3    H174861   2.137   1.867   5.706  0.1213  0.2112 -0.2828
17790TIP3    H274862   2.239   1.840   5.814  0.7127 -1.5563 -1.2442
17791TIP3   OH274863   3.473   4.848   0.011  0.3671  0.3791  0.2207
17791TIP3    H174864   3.549   4.856   0.069  0.6394  1.2671 -0.2383
17791TIP3    H274865   3.504   4.879  -0.074 -0.3108  0.0691 -0.1440
17792TIP3   OH274866   3.618   5.069  13.900  0.1515  0.4318  0.3491
17792TIP3    H174867   3.701   5.110  13.875  0.0012  1.0709  0.8627
17792TIP3    H274868   3.622   5.065  13.996 -0.7371  1.1754  0.4301
17793TIP3   OH274869   3.102   2.106   2.960  0.4692 -0.0511 -0.1561
17793TIP3    H174870   3.123   2.074   2.872  1.9360  1.1593 -0.2919
17793TIP3    H274871   3.107   2.028   3.015 -1.2356 -0.9753 -1.2147
17794TIP3   OH274872   0.294   4.002   5.391 -0.0095  0.0477  0.2979
17794TIP3    H174873   0.255   3.915   5.387  1.1282 -0.4186 -2.1710
17794TIP3    H274874   0.250   4.052   5.322 -0.8507  1.5827  1.8477
17795TIP3   OH274875   2.034   6.651  16.333 -0.0729 -0.1539  0.5919
17795TIP3    H174876   2.118   6.686  16.303  0.6844 -0.1930  2.5392
17795TIP3    H274877   2.056   6.568  16.375 -1.3490 -1.0757 -0.4644
17796TIP3   OH274878   1.626   3.548   5.743 -0.4007 -0.0912 -0.2718
17796TIP3    H174879   1.574   3.492   5.684  0.1328  0.0117 -0.8389
17796TIP3    H274880   1.681   3.486   5.791  2.3953  0.0187 -2.9724
17797TIP3   OH274881   3.876   4.659   3.284  0.3829 -0.0545 -0.3191
17797TIP3    H174882   3.798   4.609   3.260  0.8494  0.3080 -2.8845
17797TIP3    H274883   3.851   4.750   3.272  0.9936  0.1019 -0.4268
17798TIP3   OH274884   2.536   6.495   4.430  0.1259  0.1378  0.2956
17798TIP3    H174885   2.608   6.460   4.483  1.2767  0.5372 -0.9456
17798TIP3    H274886   2.521   6.429   4.363 -0.6233  0.0954  0.4959
17799TIP3   OH274887   6.169   6.472  16.752 -0.0544  0.3900  0.5038
17799TIP3    H174888   6.238   6.495  16.690 -0.1829  0.7120  0.4794
17799TIP3    H274889   6.153   6.379  16.737  1.1023  0.0550  1.2191
17800TIP3   OH274890   4.845   0.852  17.179  0.1595 -0.3025 -0.3450
17800TIP3    H174891   4.856   0.763  17.145  2.8497  0.2410 -1.1681
17800TIP3    H274892   4.849   0.842  17.274 -0.9213 -1.1622 -0.3681
17801TIP3   OH274893   1.693   2.414   0.434 -0.6473  0.4611 -0.2525
17801TIP3    H174894   1.711   2.332   0.480 -0.4563  0.3370 -0.5427
17801TIP3    H274895   1.701   2.482   0.501 -0.3798  0.2812 -0.1004
17802TIP3   OH274896   6.758   6.590  16.142  0.1556 -0.2236 -0.1445
17802TIP3    H174897   6.826   6.561  16.203 -0.1439 -1.8612 -0.5228
17802TIP3    H274898   6.692   6.520  16.144 -0.1578 -0.0365 -1.8681
17803TIP3   OH274899   3.417   0.540  14.948  0.0793 -0.3732  0.5393
17803TIP3    H174900   3.499   0.575  14.985  0.5577  1.8180 -2.2412
17803TIP3    H274901   3.349   0.596  14.984  0.5018  1.4844 -1.3207
17804TIP3   OH274902   0.732   0.299   3.048  0.1769 -0.2520  0.0744
17804TIP3    H174903   0.809   0.354   3.032  1.2670 -1.6470  0.3683
17804TIP3    H274904   0.683   0.346   3.116 -0.3892  1.7258 -1.5889
17805TIP3   OH274905   0.296   5.441  15.246 -0.2226 -0.9446 -0.4926
17805TIP3    H174906   0.381   5.450  15.287  0.1833  1.7291 -1.6821
17805TIP3    H274907   0.243   5.392  15.309  1.2562  0.1780  1.7451
17806TIP3   OH274908   0.441   0.754  13.083  0.0846 -0.6412 -0.4853
17806TIP3    H174909   0.418   0.846  13.090  0.6782 -0.5562  0.5477
17806TIP3    H274910   0.512   0.752  13.018 -1.7903 -0.7509 -2.6687
17807TIP3   OH274911   3.397   2.543   6.345 -0.7555 -0.5159  0.1048
17807TIP3    H174912   3.407   2.631   6.307 -0.0333 -0.0524  1.2914
17807TIP3    H274913   3.427   2.484   6.276  0.8516  0.3094  0.0441
17808TIP3   OH274914   2.400   2.188   1.016 -0.1489  0.2108 -0.0778
17808TIP3    H174915   2.450   2.123   0.967  0.8191  0.1535  0.9219
17808TIP3    H274916   2.408   2.269   0.965  2.4126  0.6303  0.8135
17809TIP3   OH274917   2.702   4.970   2.526  0.3225 -0.0954  0.1810
17809TIP3    H174918   2.765   4.932   2.586  2.6280  1.2659 -1.2433
17809TIP3    H274919   2.634   5.007   2.582  1.8724  0.2521  1.8999
17810TIP3   OH274920   1.353   4.308  12.104 -0.2782 -0.2003 -0.2558
17810TIP3    H174921   1.283   4.245  12.087  0.2848 -0.3600 -2.2650
17810TIP3    H274922   1.367   4.352  12.020 -0.9972  3.0135  1.1722
17811TIP3   OH274923   2.277   3.455  12.849  0.5921 -0.7752 -0.0181
17811TIP3    H174924   2.221   3.387  12.811  1.5052 -2.8253  2.0259
17811TIP3    H274925   2.365   3.417  12.847  1.1886  0.4968  0.8626
17812TIP3   OH274926   1.131   0.997   5.789 -0.0490  0.1142  0.0053
17812TIP3    H174927   1.196   1.064   5.810  1.2651 -0.6757 -1.3664
17812TIP3    H274928   1.177   0.914   5.802 -1.6310 -0.5797  1.6139
17813TIP3   OH274929   4.053   5.865  16.621 -0.1006  0.7292  0.1119
17813TIP3    H174930   3.960   5.881  16.607 -0.2918  0.3506  0.8655
17813TIP3    H274931   4.085   5.831  16.537 -0.4696  1.5909 -0.3828
17814TIP3   OH274932   5.712   4.243   4.826  0.3248 -0.0024  0.1405
17814TIP3    H174933   5.737   4.224   4.916 -0.0193  0.8588  0.4293
17814TIP3    H274934   5.631   4.194   4.813  0.0342  0.3693  0.5166
17815TIP3   OH274935   3.625   4.063  12.078  0.2221 -0.0469  0.0667
17815TIP3    H174936   3.588   4.067  11.990 -1.6734 -1.9446  0.6793
17815TIP3    H274937   3.589   4.140  12.122  0.5754  0.5072 -0.6007
17816TIP3   OH274938   1.976   6.221  14.928 -0.4139  0.5946 -0.0721
17816TIP3    H174939   1.943   6.191  14.844 -1.4804  0.9517  0.1947
17816TIP3    H274940   2.053   6.273  14.907  0.5228 -0.9673 -0.6555
17817TIP3   OH274941   5.479   4.587   4.633 -0.2191  0.3015 -0.7254
17817TIP3    H174942   5.442   4.503   4.659  0.2509  0.6919  1.3780
17817TIP3    H274943   5.436   4.608   4.550 -2.8345 -0.4469  0.3623
17818TIP3   OH274944   2.986   4.054   2.573 -0.4080 -0.0319  0.0971
17818TIP3    H174945   3.033   3.981   2.614 -2.7231 -1.4589  0.3920
17818TIP3    H274946   2.970   4.024   2.483 -1.6157 -0.0353  0.2977
17819TIP3   OH274947   4.032   4.888   3.503 -0.1781  0.1252  0.1716
17819TIP3    H174948   3.959   4.827   3.491 -0.3501  0.2055  0.7845
17819TIP3    H274949   4.096   4.862   3.437 -0.8707  0.2240 -0.5477
17820TIP3   OH274950   2.526   3.317   5.786 -0.2434  0.1863  0.4067
17820TIP3    H174951   2.471   3.282   5.856 -0.3718 -0.6015 -0.0759
17820TIP3    H274952   2.478   3.297   5.706 -0.9672  2.6115  0.1403
17821TIP3   OH274953   0.498   4.528   6.372  0.5389 -0.0097 -0.0298
17821TIP3    H174954   0.535   4.611   6.403 -0.1073  0.1003  0.4655
17821TIP3    H274955   0.561   4.462   6.400  1.0643  0.3091 -0.4374
17822TIP3   OH274956   1.547   3.574  16.497  0.3896  0.8749  0.2344
17822TIP3    H174957   1.617   3.637  16.515 -0.1964  1.3313  0.9112
17822TIP3    H274958   1.473   3.627  16.468  0.5912  0.3313 -1.4449
17823TIP3   OH274959   0.276   3.484   4.704  0.0415 -0.5205 -0.0085
17823TIP3    H174960   0.210   3.416   4.715  1.5179 -1.9694  0.3341
17823TIP3    H274961   0.357   3.436   4.690  0.7105  1.2105 -2.5828
17824TIP3   OH274962   5.176   6.202   4.001  0.4591 -0.4075 -0.5280
17824TIP3    H174963   5.238   6.269   4.031  1.3848 -1.0392 -0.9701
17824TIP3    H274964   5.107   6.252   3.956  0.7469  0.3012 -0.2027
17825TIP3   OH274965   5.853   0.827  14.454  0.4030 -0.3610  0.1955
17825TIP3    H174966   5.912   0.900  14.474  0.9903 -0.6340 -0.4689
17825TIP3    H274967   5.845   0.779  14.536  0.4699  0.1289  0.4943
17826TIP3   OH274968   5.268   5.990   3.257 -0.2487 -0.0523  0.0945
17826TIP3    H174969   5.295   5.957   3.343 -1.5777  1.7470  1.2828
17826TIP3    H274970   5.234   5.912   3.212  1.0008 -1.1372  0.9538
17827TIP3   OH274971   4.912   6.619  11.992  0.3578 -0.1312 -0.4871
17827TIP3    H174972   4.898   6.692  12.052 -1.5496 -0.8177 -0.0223
17827TIP3    H274973   5.003   6.592  12.007  1.6050  2.9761 -1.6964
17828TIP3   OH274974   5.366   6.329  13.784 -0.9293  0.0478 -0.4546
17828TIP3    H174975   5.338   6.238  13.793 -0.5905 -0.1868 -1.6700
17828TIP3    H274976   5.286   6.377  13.765 -1.1086  0.0175  0.1879
17829TIP3   OH274977   3.777   4.798  12.171  0.5510  0.2988  0.8335
17829TIP3    H174978   3.782   4.890  12.194  1.1113  0.5788 -0.3293
17829TIP3    H274979   3.730   4.757  12.244  1.1885  1.3156  1.8427
17830TIP3   OH274980   6.523   4.017  12.315 -0.0325 -0.3920 -0.1382
17830TIP3    H174981   6.551   3.941  12.265  0.8240 -0.8906  1.0300
17830TIP3    H274982   6.594   4.081  12.305 -0.4852  0.0425 -0.6527
17831TIP3   OH274983   6.732   6.446   3.394 -0.3070  0.3274 -0.4910
17831TIP3    H174984   6.678   6.418   3.468  1.0779 -1.4982 -0.0880
17831TIP3    H274985   6.753   6.365   3.347  1.7484  0.9808 -0.8174
17832TIP3   OH274986   3.785   5.062   2.997 -0.2079 -0.4428 -0.2003
17832TIP3    H174987   3.871   5.037   3.032  0.2139  0.1072 -0.7974
17832TIP3    H274988   3.787   5.033   2.906 -0.6316 -0.3706 -0.2348
17833TIP3   OH274989   6.686   6.075   5.200 -0.0007 -0.6238 -0.4897
17833TIP3    H174990   6.732   5.992   5.196  1.1032  0.0086 -1.3231
17833TIP3    H274991   6.645   6.075   5.287  0.0744 -1.9723 -0.4330
17834TIP3   OH274992   2.148   4.560   3.905 -0.0806 -0.0508 -0.8078
17834TIP3    H174993   2.085   4.594   3.969  0.3582  1.3945 -1.1029
17834TIP3    H274994   2.168   4.635   3.849  1.5168 -0.6006 -1.0318
17835TIP3   OH274995   4.443   5.744   3.576  0.0815 -0.1828 -0.0706
17835TIP3    H174996   4.516   5.795   3.611 -0.8484  0.7654  0.5423
17835TIP3    H274997   4.449   5.660   3.622 -0.5016  0.6780  1.6390
17836TIP3   OH274998   6.439   2.598   4.498 -0.2618 -0.1460 -0.0648
17836TIP3    H174999   6.413   2.666   4.436 -0.1393 -0.5192 -0.5364
17836TIP3    H275000   6.467   2.525   4.443 -1.7677 -1.1230  0.4029
17837TIP3   OH275001   5.914   1.398   2.043 -0.1087  0.0225  0.0834
17837TIP3    H175002   5.856   1.357   2.108 -0.5627  1.2631  0.4841
17837TIP3    H275003   5.877   1.373   1.959  0.3734 -1.4497  0.2817
17838TIP3   OH275004   1.401   6.552  13.116  0.5953  0.4132  0.1721
17838TIP3    H175005   1.333   6.608  13.153 -0.0620 -0.3376  0.1257
17838TIP3    H275006   1.429   6.498  13.190  0.8277  0.4159  0.0852
17839TIP3   OH275007   2.645   1.771   1.816 -0.2446 -0.0557  0.0239
17839TIP3    H175008   2.727   1.730   1.789  0.9690  1.0339  1.8512
17839TIP3    H275009   2.642   1.759   1.911 -0.7441  2.4300  0.3999
17840TIP3   OH275010   5.019   2.102  13.447 -0.0208  0.5825  0.5015
17840TIP3    H175011   5.008   2.131  13.356  0.4401 -1.3148 -0.2140
17840TIP3    H275012   4.930   2.098  13.482 -1.0747 -4.2052 -1.7890
17841TIP3   OH275013   0.968   4.783   3.329 -0.1097  0.3461  0.3216
17841TIP3    H175014   0.974   4.847   3.259  0.3181 -0.5278 -0.4579
17841TIP3    H275015   0.967   4.836   3.409 -1.8356  1.4278 -0.3460
17842TIP3   OH275016   1.698   1.872  16.244 -0.9954  0.1014 -0.1193
17842TIP3    H175017   1.750   1.925  16.304 -2.0127 -1.1175  1.9470
17842TIP3    H275018   1.629   1.930  16.212 -0.7203  0.6360  0.2643
17843TIP3   OH275019   0.219   5.605   0.036 -0.1597 -0.0860  0.1343
17843TIP3    H175020   0.131   5.606   0.072 -1.1025  4.4055 -1.6389
17843TIP3    H275021   0.208   5.578  -0.055  0.2881  0.4027 -0.0703
17844TIP3   OH275022   2.104   1.495  14.551 -0.3882  0.2283  0.2337
17844TIP3    H175023   2.065   1.410  14.569 -1.7221 -0.1216 -3.3788
17844TIP3    H275024   2.038   1.559  14.578 -0.0770  0.0659  1.4182
17845TIP3   OH275025   2.984   6.053   1.208 -0.2016 -0.1771 -0.0453
17845TIP3    H175026   3.034   6.077   1.285  0.0690 -3.2154  0.8542
17845TIP3    H275027   2.893   6.055   1.237 -0.2344  0.3473 -0.1737
17846TIP3   OH275028   3.928   6.426  10.970  0.0645 -1.0561 -0.2637
17846TIP3    H175029   3.916   6.334  10.947  0.2449 -1.1186 -0.1085
17846TIP3    H275030   3.845   6.467  10.947 -0.0166 -1.2570 -0.3346
17847TIP3   OH275031   2.486   6.205   5.357 -0.3046  0.1293  0.0416
17847TIP3    H175032   2.576   6.179   5.339 -0.8950 -1.7396 -0.5202
17847TIP3    H275033   2.473   6.185   5.450  0.3815  2.2248  0.6422
17848TIP3   OH275034   2.663   6.565   1.753 -0.5082 -0.3083  0.8772
17848TIP3    H175035   2.705   6.628   1.696  1.6602  0.2914  2.9861
17848TIP3    H275036   2.670   6.603   1.841 -1.7171 -2.1706  1.8603
17849TIP3   OH275037   1.806   0.098  13.002 -0.0517 -0.4636  0.0302
17849TIP3    H175038   1.843   0.011  13.015  0.0610 -0.3011  0.8388
17849TIP3    H275039   1.864   0.140  12.939  1.0751 -0.2648  1.1743
17850TIP3   OH275040   4.422   0.384  13.803 -0.0584 -0.2448  0.1319
17850TIP3    H175041   4.415   0.383  13.708 -0.7493 -2.1476  0.1478
17850TIP3    H275042   4.338   0.418  13.833  0.6249  1.6038  0.0978
17851TIP3   OH275043   1.389   6.808  15.289 -0.0112 -0.3241  0.2341
17851TIP3    H175044   1.363   6.801  15.197 -3.0627 -0.5216  1.0300
17851TIP3    H275045   1.466   6.751  15.296 -1.2799 -2.4175 -1.6614
17852TIP3   OH275046   1.885   1.549   6.033 -0.2937 -0.5376 -0.4723
17852TIP3    H175047   1.900   1.540   6.127  2.9746  0.1607 -0.8200
17852TIP3    H275048   1.888   1.460   5.999  0.4796 -0.6530 -0.1247
17853TIP3   OH275049   2.341   2.131  13.103  0.5140  0.1644  0.0839
17853TIP3    H175050   2.258   2.169  13.073  0.0210 -1.6776 -1.0600
17853TIP3    H275051   2.331   2.124  13.198  0.0651  1.5280  0.1552
17854TIP3   OH275052   1.956   5.923   3.819  0.6138  0.2434  0.3224
17854TIP3    H175053   1.917   5.960   3.899 -0.3751 -0.8752  0.3838
17854TIP3    H275054   1.883   5.884   3.772  1.1140  1.2871 -1.3894
17855TIP3   OH275055   1.948   5.892   5.558  0.1080 -0.3002 -0.4116
17855TIP3    H175056   1.885   5.952   5.517  1.1090  1.0950  0.0384
17855TIP3    H275057   2.010   5.949   5.603  0.1612 -1.7300  1.4499
17856TIP3   OH275058   0.311   0.648   1.925  0.1066 -0.3957  0.1666
17856TIP3    H175059   0.275   0.732   1.953 -1.9181 -1.5602  1.3570
17856TIP3    H275060   0.333   0.604   2.007 -0.3348 -1.5969 -0.3429
17857TIP3   OH275061   1.795   3.125  15.095 -0.1977  0.1970  0.6404
17857TIP3    H175062   1.728   3.083  15.148  0.3978 -1.8632 -0.1374
17857TIP3    H275063   1.800   3.071  15.016  2.3740  0.2558  0.6823
17858TIP3   OH275064   2.735   3.854  14.928 -0.5275 -0.1056  0.5567
17858TIP3    H175065   2.675   3.926  14.947 -1.3845 -0.6122 -0.1169
17858TIP3    H275066   2.801   3.891  14.870 -1.1146  0.0763  0.0036
17859TIP3   OH275067   4.168   3.680  12.388  0.4286 -0.3367  0.1650
17859TIP3    H175068   4.172   3.745  12.318 -0.9867  2.5287  2.5146
17859TIP3    H275069   4.143   3.598  12.345  1.6942  0.7674 -2.8728
17860TIP3   OH275070   2.564   1.894   4.288 -0.2753 -0.5453  0.2376
17860TIP3    H175071   2.550   1.806   4.324 -0.1928  0.1365  2.0332
17860TIP3    H275072   2.654   1.893   4.257  0.1714 -0.7115  1.4922
17861TIP3   OH275073   2.696   6.253   4.281 -0.1980  0.3507  0.8363
17861TIP3    H175074   2.714   6.242   4.374  1.3237  1.7291  0.7579
17861TIP3    H275075   2.770   6.211   4.237 -0.9085 -0.2919  0.2325
17862TIP3   OH275076   1.840   1.850  12.612  0.5643  1.2047 -0.3548
17862TIP3    H175077   1.777   1.845  12.684  0.4368 -1.4202 -0.5785
17862TIP3    H275078   1.910   1.790  12.637  1.5107  1.7803 -1.5146
17863TIP3   OH275079   1.769   2.262   0.025 -0.2775 -0.1379  0.3533
17863TIP3    H175080   1.682   2.251   0.063 -1.3380  4.1622 -0.2518
17863TIP3    H275081   1.828   2.262   0.100 -1.2031 -0.2684  1.1031
17864TIP3   OH275082   4.148   0.679   6.238 -0.3842 -0.0555 -0.9294
17864TIP3    H175083   4.064   0.646   6.272  0.9743 -0.9520  1.8047
17864TIP3    H275084   4.158   0.765   6.277  0.7863 -0.7228  0.3121
17865TIP3   OH275085   6.656   3.934  14.726 -0.0096 -0.0994 -0.3255
17865TIP3    H175086   6.692   3.846  14.738  0.5520  0.1421 -0.2041
17865TIP3    H275087   6.562   3.924  14.741  0.1437 -0.5473  0.3739
17866TIP3   OH275088   6.766   3.209   3.287 -0.0375 -0.6320 -0.1283
17866TIP3    H175089   6.787   3.128   3.333 -0.1069 -1.8507 -2.1327
17866TIP3    H275090   6.670   3.215   3.291  0.0234 -0.0797  0.8822
17867TIP3   OH275091   0.225   5.216   4.804 -0.2211 -0.0658  0.2669
17867TIP3    H175092   0.258   5.227   4.715 -0.8935 -0.9830 -0.0973
17867TIP3    H275093   0.303   5.195   4.856  0.6914  3.2042  0.4800
17868TIP3   OH275094   3.753   2.238  13.428  0.2500  0.6884  0.8370
17868TIP3    H175095   3.768   2.262  13.519  0.2821  0.7584  0.8133
17868TIP3    H275096   3.704   2.155  13.432 -2.8580  2.3890  0.9976
17869TIP3   OH275097   2.231   0.721  14.875  0.2556  1.0027 -0.3044
17869TIP3    H175098   2.187   0.791  14.826 -0.6161  3.6078  3.7634
17869TIP3    H275099   2.323   0.727  14.849 -0.1951  1.9697 -1.8051
17870TIP3   OH275100   6.390   2.714  11.043 -0.2263  0.2676 -0.3279
17870TIP3    H175101   6.399   2.808  11.030  0.9729  0.0492 -1.2077
17870TIP3    H275102   6.411   2.675  10.958  0.2363 -0.8245  0.2585
17871TIP3   OH275103   0.211   4.126  11.083 -0.0315 -0.1333  0.5975
17871TIP3    H175104   0.150   4.063  11.122  0.2239 -0.5989  0.2586
17871TIP3    H275105   0.199   4.115  10.988  0.3287  0.0142  0.5331
17872TIP3   OH275106   0.666   0.650  16.451 -0.3411  0.2281 -0.0489
17872TIP3    H175107   0.711   0.734  16.460  1.3394 -0.6361 -0.1126
17872TIP3    H275108   0.647   0.624  16.542 -1.9101  1.1657 -0.0578
17873TIP3   OH275109   1.948   1.619   0.477 -0.1992 -0.6892  0.5077
17873TIP3    H175110   1.966   1.564   0.553 -1.0310 -1.1844  0.3651
17873TIP3    H275111   1.908   1.559   0.414  1.0760 -0.4408 -0.5880
17874TIP3   OH275112   4.720   2.273  14.543 -0.3602 -0.1858 -0.0406
17874TIP3    H175113   4.760   2.303  14.462 -0.8457  0.2623 -0.1229
17874TIP3    H275114   4.788   2.284  14.609 -0.4547  0.9296 -0.1068
17875TIP3   OH275115   1.679   0.025  15.027 -0.7737  0.1239 -0.7491
17875TIP3    H175116   1.720  -0.061  15.035 -0.3605  0.4468  1.0300
17875TIP3    H275117   1.642   0.026  14.939  1.2281 -0.9767 -1.6540
17876TIP3   OH275118   1.947   5.926  14.989 -0.0829 -0.2517  0.0623
17876TIP3    H175119   1.857   5.901  15.011 -0.2258 -0.7630 -1.0081
17876TIP3    H275120   1.941   6.016  14.957 -0.4777 -0.7742 -1.4247
17877TIP3   OH275121   4.835   1.579  15.863  0.4159  0.0164 -0.0928
17877TIP3    H175122   4.757   1.568  15.809 -0.6981  1.7466  1.0477
17877TIP3    H275123   4.882   1.497  15.855 -0.2120 -0.1628 -2.8404
17878TIP3   OH275124   2.472   0.740  12.566  0.4827 -0.7415 -0.1036
17878TIP3    H175125   2.422   0.706  12.492  0.8996 -1.3213 -0.1256
17878TIP3    H275126   2.517   0.816  12.531  0.7680 -1.0801 -0.4806
17879TIP3   OH275127   3.647   1.229  15.470  0.1848 -0.5974 -0.5860
17879TIP3    H175128   3.711   1.187  15.413 -0.2129 -1.0583 -0.7018
17879TIP3    H275129   3.611   1.157  15.522 -1.4965 -0.6705 -1.7361
17880TIP3   OH275130   1.624   4.725  15.867  0.7517  0.6071 -0.0258
17880TIP3    H175131   1.624   4.676  15.949  1.2858  1.0356  0.2392
17880TIP3    H275132   1.531   4.733  15.844  0.6731 -0.8899 -0.3099
17881TIP3   OH275133   0.956   1.296  16.499 -0.3845 -0.0036 -0.5401
17881TIP3    H175134   0.878   1.266  16.546 -0.3603  0.1666 -0.3876
17881TIP3    H275135   1.025   1.296  16.565 -0.2888 -0.0195 -0.6407
17882TIP3   OH275136   3.590   6.757   5.552  0.1073  0.0956  0.3384
17882TIP3    H175137   3.636   6.840   5.557 -0.0928  0.1871  0.7679
17882TIP3    H275138   3.498   6.779   5.571  0.2250 -0.3652  1.5790
17883TIP3   OH275139   4.422   0.942  16.054  0.1341  0.1737  0.2917
17883TIP3    H175140   4.397   0.855  16.085  1.3755  0.0723  1.0807
17883TIP3    H275141   4.517   0.945  16.066  0.1372  1.5520  0.0458
17884TIP3   OH275142   6.625   1.714   1.799 -0.2048 -0.0677 -0.6108
17884TIP3    H175143   6.708   1.762   1.807 -0.5601  0.5651 -0.5789
17884TIP3    H275144   6.560   1.773   1.840 -0.6776 -0.5176 -0.7063
17885TIP3   OH275145   2.829   5.685  16.973 -0.4265 -0.0728  0.1608
17885TIP3    H175146   2.775   5.671  16.895 -0.3456  1.0459 -0.1085
17885TIP3    H275147   2.795   5.623  17.037 -2.3140  0.8611  0.1311
17886TIP3   OH275148   5.292   4.387   4.626  0.0975  0.4466 -0.0682
17886TIP3    H175149   5.214   4.341   4.594 -0.0664 -0.5841  1.6506
17886TIP3    H275150   5.306   4.351   4.714  1.3827  2.0163  0.4177
17887TIP3   OH275151   5.871   2.762   0.173  0.1151 -0.4071 -0.2901
17887TIP3    H175152   5.893   2.723   0.258 -2.3028 -0.7636  0.2634
17887TIP3    H275153   5.776   2.777   0.178  0.0134  0.1567 -2.7047
17888TIP3   OH275154   2.481   0.206  12.630  0.2309  0.1539  0.1120
17888TIP3    H175155   2.428   0.171  12.702 -0.9118  1.2426 -0.1695
17888TIP3    H275156   2.510   0.129  12.582 -1.7933 -0.4574 -0.2026
17889TIP3   OH275157   5.499   2.064  16.686  0.0118 -0.7175  0.0688
17889TIP3    H175158   5.536   2.151  16.700  2.2378 -1.9032  2.2889
17889TIP3    H275159   5.480   2.062  16.592  1.1902  1.6594 -0.3166
17890TIP3   OH275160   6.276   5.096  14.870 -0.9863 -0.8867 -0.2111
17890TIP3    H175161   6.312   5.033  14.808 -1.7261 -0.9522 -0.5747
17890TIP3    H275162   6.184   5.103  14.848 -1.2711 -0.9137  0.8913
17891TIP3   OH275163   1.828   0.845   2.091 -0.0527  0.3104  0.0689
17891TIP3    H175164   1.880   0.766   2.111  0.3935  0.7174  0.5714
17891TIP3    H275165   1.839   0.900   2.168 -0.8923  0.5967 -0.0065
17892TIP3   OH275166   6.673   3.013  14.815  0.0237  0.2873  0.1321
17892TIP3    H175167   6.645   3.004  14.906  0.4356  1.0868  0.3516
17892TIP3    H275168   6.763   3.044  14.821  0.8615 -1.8440 -0.5642
17893TIP3   OH275169   0.974   0.940  15.870 -0.4279  0.1457 -0.2538
17893TIP3    H175170   0.983   0.986  15.787  2.5247 -0.5554 -0.4415
17893TIP3    H275171   0.973   1.009  15.936 -0.0175  0.6327 -0.7448
17894TIP3   OH275172   1.471   5.701   3.757  0.3271  0.7292 -0.9850
17894TIP3    H175173   1.467   5.636   3.687 -0.7514 -0.6217  0.2660
17894TIP3    H275174   1.381   5.706   3.790  1.1186 -0.1225  1.5440
17895TIP3   OH275175   2.740   0.706  16.683  0.0668  0.0622 -0.3748
17895TIP3    H175176   2.810   0.677  16.625  0.2739  0.7275 -0.4708
17895TIP3    H275177   2.718   0.794  16.652  0.1298  0.4058  0.4976
17896TIP3   OH275178   1.723   6.271  15.017 -0.5139 -0.7564  0.0795
17896TIP3    H175179   1.669   6.192  15.015  0.1594 -1.2772 -2.6824
17896TIP3    H275180   1.809   6.242  14.985 -0.8878  1.3740 -3.4084
17897TIP3   OH275181   2.743   6.312   0.106  0.1223 -0.2087 -0.2909
17897TIP3    H175182   2.832   6.319   0.140 -0.1946  0.8378  0.3635
17897TIP3    H275183   2.739   6.376   0.035 -0.5172  0.8467  0.6500
17898TIP3   OH275184   3.937   1.817   3.663  0.0059 -1.0723  0.1748
17898TIP3    H175185   3.903   1.887   3.718  0.7600 -0.6678  0.1472
17898TIP3    H275186   4.011   1.782   3.712  0.9298 -0.4501 -0.7264
17899TIP3   OH275187   2.171   2.562  11.757 -0.1050  0.5370 -0.0466
17899TIP3    H175188   2.093   2.587  11.707 -0.2516 -0.4896 -0.3589
17899TIP3    H275189   2.142   2.490  11.813  0.7226 -0.2197 -0.5520
17900TIP3   OH275190   4.130   4.909   2.223 -0.1160  0.1832  0.3257
17900TIP3    H175191   4.188   4.833   2.209  0.1075  0.3852  0.1415
17900TIP3    H275192   4.068   4.905   2.150 -0.3155 -0.0130  0.5035
17901TIP3   OH275193   5.082   2.220  12.416 -0.8864 -0.4945 -0.4369
17901TIP3    H175194   5.123   2.140  12.383 -0.9840 -1.4177  1.5735
17901TIP3    H275195   5.129   2.291  12.371  0.8964 -1.6091 -0.4327
17902TIP3   OH275196   3.152   3.792   0.820  0.3649  0.0294  0.3853
17902TIP3    H175197   3.133   3.747   0.737 -0.5658  1.5065 -0.2397
17902TIP3    H275198   3.236   3.756   0.847 -0.4388 -2.2432  0.0555
17903TIP3   OH275199   6.057   3.206   3.079  0.4920 -0.2792 -0.3778
17903TIP3    H175200   6.000   3.219   3.002 -1.4323 -0.7866  0.8793
17903TIP3    H275201   6.007   3.146   3.135  0.6617  1.9893  2.4026
17904TIP3   OH275202   3.770   2.933   2.624 -0.1053  0.3327  0.0980
17904TIP3    H175203   3.760   2.865   2.558  1.6753  1.5074 -1.4943
17904TIP3    H275204   3.685   2.979   2.625 -0.3634 -0.1046 -0.9052
17905TIP3   OH275205   5.385   1.515   1.172  0.0562 -0.0650 -0.2837
17905TIP3    H175206   5.445   1.486   1.241 -0.2559 -1.3097 -0.5202
17905TIP3    H275207   5.442   1.541   1.100  0.3798  1.0942  0.3594
17906TIP3   OH275208   5.027   1.271  12.743 -0.4811  0.1038  0.6120
17906TIP3    H175209   5.108   1.238  12.783  0.2630  1.0313 -0.0672
17906TIP3    H275210   5.056   1.306  12.658 -1.8062 -0.6785 -0.1970
17907TIP3   OH275211   3.453   6.468   5.891  0.0840  0.6856 -0.3914
17907TIP3    H175212   3.457   6.392   5.833 -0.0549  0.2033  0.2169
17907TIP3    H275213   3.368   6.462   5.933 -0.0810  1.3917 -0.6154
17908TIP3   OH275214   0.714   6.519  16.778 -0.2700  0.2534 -0.0767
17908TIP3    H175215   0.642   6.475  16.823  0.1673 -0.3561  0.0461
17908TIP3    H275216   0.746   6.584  16.841 -1.4954  1.4023 -0.5928
17909TIP3   OH275217   3.114   1.993  11.820 -0.1160 -0.1267 -0.3453
17909TIP3    H175218   3.092   2.079  11.855 -0.3314 -0.5341  0.5237
17909TIP3    H275219   3.134   1.940  11.896 -0.8669 -1.1018 -0.8064
17910TIP3   OH275220   2.450   1.101  13.915 -0.3838  0.1096  0.7639
17910TIP3    H175221   2.442   1.188  13.954 -1.7911 -0.0776  0.9431
17910TIP3    H275222   2.418   1.112  13.826  2.9514  0.5647 -0.4972
17911TIP3   OH275223   1.558   3.720   5.146 -0.0256 -0.2306 -0.0673
17911TIP3    H175224   1.473   3.702   5.107 -0.5432  0.9470  0.4777
17911TIP3    H275225   1.601   3.634   5.150 -1.8645 -1.1631  1.2254
17912TIP3   OH275226   3.515   3.538   0.991  0.1733  0.0208  0.2002
17912TIP3    H175227   3.527   3.462   0.934  1.9348 -1.1810  2.0426
17912TIP3    H275228   3.458   3.506   1.061  1.5573  0.1054  1.4070
17913TIP3   OH275229   6.650   3.612   5.983 -0.3760 -0.2801 -0.7045
17913TIP3    H175230   6.657   3.614   6.078  1.2303 -0.8420 -0.7799
17913TIP3    H275231   6.614   3.525   5.963 -0.4503 -0.2664 -0.6290
17914TIP3   OH275232   3.361   4.689  15.175 -0.3195  0.1835  0.6845
17914TIP3    H175233   3.273   4.659  15.195 -1.4935  3.0704  0.4543
17914TIP3    H275234   3.364   4.691  15.079  0.0140  0.0540  0.6911
17915TIP3   OH275235   5.107   3.575   4.788  0.0470  0.1662  0.1964
17915TIP3    H175236   5.027   3.566   4.735  1.0281 -1.0245 -1.1716
17915TIP3    H275237   5.149   3.653   4.754 -1.4757  2.0408  2.3344
17916TIP3   OH275238   2.081   5.690  14.821  0.3842 -0.4325  0.4422
17916TIP3    H175239   2.107   5.779  14.798 -0.1417 -0.6633 -1.1898
17916TIP3    H275240   1.985   5.693  14.823  0.3846 -0.7762  1.2217
17917TIP3   OH275241   2.998   4.952   3.743  0.0567  0.2775 -0.6136
17917TIP3    H175242   2.908   4.931   3.766  0.0483  0.2637 -0.6594
17917TIP3    H275243   2.995   4.970   3.649  0.6848 -3.0002 -1.3853
17918TIP3   OH275244   0.790   5.432   0.607  0.5464  0.2243 -0.1547
17918TIP3    H175245   0.773   5.401   0.518  0.8160 -0.8289  0.1440
17918TIP3    H275246   0.883   5.414   0.621  0.8006  1.5338 -0.0930
17919TIP3   OH275247   6.413   3.428  13.105 -0.0170 -0.3560 -0.1069
17919TIP3    H175248   6.458   3.464  13.181 -0.4833 -1.5131  0.7411
17919TIP3    H275249   6.363   3.502  13.070 -1.0619 -0.1637  1.6659
17920TIP3   OH275250   2.129   5.488   4.461  0.1086 -0.5250  0.3121
17920TIP3    H175251   2.091   5.568   4.426  1.3771  0.4020  0.9556
17920TIP3    H275252   2.096   5.483   4.551  0.0107 -0.7402  0.2647
17921TIP3   OH275253   4.657   1.982  10.290 -0.8565 -0.2914  0.5443
17921TIP3    H175254   4.714   2.010  10.219 -1.6596 -0.8937 -0.3579
17921TIP3    H275255   4.710   1.923  10.343  0.8162  2.5664  2.3554
17922TIP3   OH275256   5.683   5.670  16.491 -0.1753  0.2236 -0.1035
17922TIP3    H175257   5.676   5.765  16.502 -1.2231  0.1089  0.3004
17922TIP3    H275258   5.645   5.634  16.571 -1.6085 -0.5545 -1.0998
17923TIP3   OH275259   3.256   0.786  12.841  0.2947 -0.4406 -0.3099
17923TIP3    H175260   3.263   0.736  12.760 -1.2285  1.2919 -1.5976
17923TIP3    H275261   3.340   0.774  12.885  1.3223 -1.0819 -2.3686
17924TIP3   OH275262   5.978   3.362  11.119  0.3174 -0.0240  0.0619
17924TIP3    H175263   5.965   3.268  11.105 -0.6724  0.2177 -0.7918
17924TIP3    H275264   5.958   3.401  11.034  1.6499  0.8857  0.1462
17925TIP3   OH275265   0.535   2.321  15.163 -0.1226  0.0943 -0.3051
17925TIP3    H175266   0.570   2.266  15.093  0.8793  0.0933  0.1753
17925TIP3    H275267   0.444   2.336  15.139 -1.2522 -3.8762  0.7963
17926TIP3   OH275268   4.260   0.651   5.724  0.3649  0.0587  0.2567
17926TIP3    H175269   4.227   0.680   5.809  1.1927 -1.7323  1.2290
17926TIP3    H275270   4.194   0.683   5.661 -1.0726  0.0834  1.7133
17927TIP3   OH275271   5.199   4.905   0.348 -0.0855 -0.5645 -0.4897
17927TIP3    H175272   5.157   4.990   0.332  1.2028 -0.1035 -1.6327
17927TIP3    H275273   5.163   4.876   0.432  1.4772  2.4607  1.4073
17928TIP3   OH275274   2.570   5.458   4.070 -0.0652 -0.4424 -0.2101
17928TIP3    H175275   2.631   5.487   4.138 -2.0771  1.2566  1.0095
17928TIP3    H275276   2.521   5.387   4.112 -0.7172  0.0201 -0.1741
17929TIP3   OH275277   3.424   2.507   5.232  0.0786 -0.0772  0.0026
17929TIP3    H175278   3.339   2.462   5.229 -0.1665  0.4075 -0.7806
17929TIP3    H275279   3.420   2.570   5.159  2.1874 -1.9251 -1.8753
17930TIP3   OH275280   2.620   1.839  11.060  0.0112 -0.4276  0.3574
17930TIP3    H175281   2.669   1.912  11.025 -1.7401  0.8945  0.5267
17930TIP3    H275282   2.528   1.862  11.046 -0.6544 -3.6762 -1.8277
17931TIP3   OH275283   1.748   4.966  12.103  0.0959 -0.3260 -0.3758
17931TIP3    H175284   1.700   4.955  12.185 -0.6795  0.9827 -0.6253
17931TIP3    H275285   1.736   4.883  12.057  0.9823 -1.2707  1.0336
17932TIP3   OH275286   2.996   1.495  14.149  0.3347 -0.2739 -0.1205
17932TIP3    H175287   2.966   1.404  14.143  0.7123 -0.3827 -0.3925
17932TIP3    H275288   3.006   1.522  14.058  0.5188 -0.0604 -0.0357
17933TIP3   OH275289   2.108   0.656   5.954  0.0401  0.5012 -0.4487
17933TIP3    H175290   2.126   0.748   5.932 -0.4217  1.1396  1.6279
17933TIP3    H275291   2.026   0.637   5.908 -1.0339  1.8611  0.7724
17934TIP3   OH275292   2.988   4.800   5.360  0.3050  0.6864 -0.3155
17934TIP3    H175293   3.062   4.816   5.420 -0.4765  0.2078  0.8061
17934TIP3    H275294   3.017   4.838   5.277  1.6365  0.9063  0.2120
17935TIP3   OH275295   0.207   1.934   4.156 -0.2347 -0.0867  0.1291
17935TIP3    H175296   0.214   1.871   4.085 -1.1243  1.4922 -1.4332
17935TIP3    H275297   0.297   1.962   4.173 -0.1591  0.8912 -1.7065
17936TIP3   OH275298   1.563   2.021   1.273 -0.4257  0.2629 -0.2790
17936TIP3    H175299   1.605   2.047   1.191  0.9665 -0.6148  0.1219
17936TIP3    H275300   1.477   1.988   1.246 -0.5842  1.3869 -1.2099
17937TIP3   OH275301   5.833   5.309  11.742  0.2239  0.3848 -0.7040
17937TIP3    H175302   5.853   5.229  11.791  0.2622  0.6952 -0.2150
17937TIP3    H275303   5.919   5.347  11.723  0.4242 -1.1252 -3.4002
17938TIP3   OH275304   1.391   4.455  12.486  0.3433  0.2759 -0.2605
17938TIP3    H175305   1.405   4.466  12.580 -1.2759  0.7609 -0.0519
17938TIP3    H275306   1.318   4.394  12.480  0.6504 -0.0164 -1.2336
17939TIP3   OH275307   0.981   2.292   0.817  0.5490 -0.1983  0.0051
17939TIP3    H175308   1.023   2.214   0.781 -1.7879 -1.4768 -0.1591
17939TIP3    H275309   1.011   2.364   0.761  1.1980 -1.2981 -1.0885
17940TIP3   OH275310   0.146   4.670  14.697 -0.2082  0.0752  0.3395
17940TIP3    H175311   0.158   4.680  14.792 -2.4449  1.4724  0.5453
17940TIP3    H275312   0.179   4.752  14.660 -1.3113  0.4519  0.1496
17941TIP3   OH275313   3.937   3.714   2.096  1.0309  0.2498  0.4103
17941TIP3    H175314   3.875   3.715   2.169  0.9064 -2.2071  0.4147
17941TIP3    H275315   3.887   3.751   2.023 -0.1983 -0.9021  0.6268
17942TIP3   OH275316   3.029   6.544  14.855 -0.6772 -0.4268  0.0806
17942TIP3    H175317   2.946   6.592  14.860  0.0623  0.8741  0.3705
17942TIP3    H275318   3.095   6.612  14.839  0.3073 -1.4701 -0.4113
17943TIP3   OH275319   2.128   0.626  13.412  0.3831 -0.1569 -0.0161
17943TIP3    H175320   2.075   0.562  13.364 -0.0066  1.1369 -1.3797
17943TIP3    H275321   2.204   0.641  13.356  0.5245  0.4781  0.3382
17944TIP3   OH275322   2.033   4.970   5.335  0.5118  0.2733 -0.0256
17944TIP3    H175323   1.984   5.018   5.402 -1.3117 -1.0471 -0.3498
17944TIP3    H275324   2.016   4.878   5.354  0.8299 -0.1538 -1.6885
17945TIP3   OH275325   0.965   0.271  11.479  0.3427 -0.5295  0.2664
17945TIP3    H175326   1.007   0.353  11.454 -0.2848  0.0444  1.0472
17945TIP3    H275327   0.992   0.209  11.412 -1.3555  0.9457 -1.9440
17946TIP3   OH275328   2.636   3.451  14.888  0.0866  0.6374  0.2443
17946TIP3    H175329   2.543   3.461  14.867  0.2609  1.9497  0.0536
17946TIP3    H275330   2.679   3.523  14.842  1.3659 -0.6522 -0.6742
17947TIP3   OH275331   6.772   0.070   4.822 -0.7554 -0.1190  0.0589
17947TIP3    H175332   6.850   0.068   4.766 -1.0188 -0.3761 -0.2947
17947TIP3    H275333   6.767   0.161   4.852  1.0702 -0.5658  2.0414
17948TIP3   OH275334   4.041   1.910  14.935  0.1245  0.1897  0.3598
17948TIP3    H175335   3.993   1.972  14.990  1.9837  2.5730 -0.5022
17948TIP3    H275336   4.105   1.870  14.995 -0.3139 -0.0384  0.6818
17949TIP3   OH275337   5.405   2.275   3.874 -0.2457  0.2423  0.2956
17949TIP3    H175338   5.489   2.302   3.838 -0.3999  0.9744  0.4730
17949TIP3    H275339   5.344   2.282   3.800 -0.1054 -0.5673  0.0908
17950TIP3   OH275340   3.884   1.423   2.357  0.4521  0.2387  0.4769
17950TIP3    H175341   3.900   1.329   2.369  2.1002  0.4877  0.4962
17950TIP3    H275342   3.964   1.456   2.316 -0.6935  1.3827 -0.9806
17951TIP3   OH275343   4.408   4.054  12.058  0.0229  0.2947  0.0229
17951TIP3    H175344   4.489   4.006  12.075 -1.7966 -2.4260  1.6534
17951TIP3    H275345   4.405   4.122  12.125  0.9582  0.4952 -0.1220
17952TIP3   OH275346   0.171   1.757   1.461  0.2568  0.4299  0.2095
17952TIP3    H175347   0.111   1.832   1.469  0.2993  0.5291 -0.3378
17952TIP3    H275348   0.145   1.716   1.378  1.6615  1.1073 -0.5908
17953TIP3   OH275349   5.063   6.400   0.850  0.1823 -0.3100  0.1790
17953TIP3    H175350   5.127   6.330   0.860  0.0840 -0.4180  0.0583
17953TIP3    H275351   5.006   6.392   0.926 -0.0087 -0.5496  0.0115
17954TIP3   OH275352   5.416   2.082   4.918  0.3771 -0.0310  0.5116
17954TIP3    H175353   5.447   2.136   4.990 -0.0754  0.3488  0.4254
17954TIP3    H275354   5.344   2.132   4.879 -0.2886 -0.8460  0.6510
17955TIP3   OH275355   2.946   1.246   2.419  0.2535 -0.2581  0.0867
17955TIP3    H175356   2.947   1.248   2.515  1.5771 -0.4596  0.1043
17955TIP3    H275357   3.039   1.248   2.395 -0.0965  1.2535 -1.2328
17956TIP3   OH275358   5.493   3.062  16.684 -0.5258  0.5798 -0.3874
17956TIP3    H175359   5.554   3.122  16.641 -1.5068 -0.8024 -4.0596
17956TIP3    H275360   5.535   2.976  16.674 -0.0019  0.2891  3.1525
17957TIP3   OH275361   4.230   0.578   0.420  0.0778  0.1197  0.2808
17957TIP3    H175362   4.324   0.573   0.408 -0.0338 -0.9624 -0.2503
17957TIP3    H275363   4.218   0.603   0.511  0.8735 -2.4345  1.1686
17958TIP3   OH275364   1.486   3.011   3.769  0.2895  0.3855  0.7745
17958TIP3    H175365   1.475   3.103   3.793  0.5403  0.4853  0.5189
17958TIP3    H275366   1.493   2.964   3.852  0.2433  0.6088  0.9034
17959TIP3   OH275367   3.854   3.137   1.896 -0.7467  0.2821  0.0655
17959TIP3    H175368   3.941   3.177   1.909 -0.7276  0.2095  0.1643
17959TIP3    H275369   3.867   3.045   1.917 -0.8327  0.2581  0.0119
17960TIP3   OH275370   2.223   1.556  15.361 -0.1166  0.5678 -0.2660
17960TIP3    H175371   2.304   1.545  15.312 -0.3066 -0.4097 -0.3698
17960TIP3    H275372   2.247   1.535  15.452 -0.8125 -2.4906 -0.6864
17961TIP3   OH275373   3.606   1.063   2.750 -0.0532  0.3347 -0.2398
17961TIP3    H175374   3.575   1.087   2.838 -2.5336  0.4713 -1.0734
17961TIP3    H275375   3.668   1.132   2.726 -1.8798  2.1865  0.1108
17962TIP3   OH275376   0.481   2.684  12.685 -0.2143 -0.5381  0.1184
17962TIP3    H175377   0.529   2.716  12.608 -0.9804  0.2764 -0.0338
17962TIP3    H275378   0.516   2.596  12.699 -1.4848 -1.5552 -2.4129
17963TIP3   OH275379   1.323   5.445   2.482 -0.4095 -0.0774  0.3895
17963TIP3    H175380   1.321   5.353   2.510 -1.5517 -0.5074 -0.9484
17963TIP3    H275381   1.408   5.455   2.441 -0.7631 -0.9462 -0.6148
17964TIP3   OH275382   4.930   1.475  16.847 -0.5808  0.4633 -0.0886
17964TIP3    H175383   4.836   1.479  16.831 -0.6861  0.6013  0.5497
17964TIP3    H275384   4.960   1.400  16.795 -1.4368 -1.0497  1.5131
17965TIP3   OH275385   2.651   5.087  16.162  0.0629  0.1230  0.0118
17965TIP3    H175386   2.718   5.065  16.098 -0.7115 -1.7062 -0.2553
17965TIP3    H275387   2.601   5.005  16.172 -1.2977  1.0555  1.1611
17966TIP3   OH275388   6.017   3.865   2.254 -0.1681  0.3031 -0.4385
17966TIP3    H175389   6.037   3.852   2.161  0.2357  0.6202 -0.4003
17966TIP3    H275390   6.050   3.785   2.296 -1.7288 -0.5348 -0.7441
17967TIP3   OH275391   0.862   6.764   0.282  0.0405 -0.2298 -0.4526
17967TIP3    H175392   0.920   6.765   0.358  0.5214 -1.6383 -0.7701
17967TIP3    H275393   0.783   6.719   0.313 -0.0940 -0.0612 -0.5535
17968TIP3   OH275394   2.109   6.721   1.135  0.2346 -0.2418 -0.2219
17968TIP3    H175395   2.184   6.741   1.080  0.3740 -0.6946 -0.2034
17968TIP3    H275396   2.094   6.627   1.122 -0.6560 -0.0578 -0.6310
17969TIP3   OH275397   2.303   4.170   5.016 -0.0226 -0.4075  0.5663
17969TIP3    H175398   2.213   4.193   5.038 -0.1603  0.9536 -1.1840
17969TIP3    H275399   2.356   4.232   5.067 -0.1436 -0.3845  0.6643
17970TIP3   OH275400   4.859   1.174  14.903 -0.4535 -0.4040  0.4382
17970TIP3    H175401   4.823   1.149  14.818 -2.6148  0.0467  1.1602
17970TIP3    H275402   4.892   1.092  14.940 -0.8859 -0.8807 -0.2058
17971TIP3   OH275403   1.857   4.320  15.044  0.0267 -0.2385  0.5081
17971TIP3    H175404   1.809   4.370  14.978  0.6272 -0.7436 -0.3086
17971TIP3    H275405   1.788   4.282  15.099 -0.4655  1.9081  1.5216
17972TIP3   OH275406   6.206   4.793  11.348  0.2879 -0.5209  0.1743
17972TIP3    H175407   6.187   4.801  11.254 -0.7077  1.3520  0.4760
17972TIP3    H275408   6.298   4.818  11.356  0.4603 -0.9748 -0.3289
17973TIP3   OH275409   1.171   4.485   0.772  0.0211 -0.1136 -0.4189
17973TIP3    H175410   1.077   4.475   0.785 -0.2017 -2.0254 -2.8023
17973TIP3    H275411   1.184   4.579   0.759 -1.2971  0.3565  1.3248
17974TIP3   OH275412   0.632   1.996  14.456 -0.7263 -0.4652 -0.5468
17974TIP3    H175413   0.685   2.041  14.391  0.9351  2.2047  2.3531
17974TIP3    H275414   0.694   1.944  14.507 -0.9071  1.6273  2.0447
17975TIP3   OH275415   3.819   0.723  12.824  0.0212  0.0679 -0.9772
17975TIP3    H175416   3.809   0.781  12.748  0.7274 -0.1239 -1.2283
17975TIP3    H275417   3.780   0.772  12.897  0.4257  0.7832 -1.2237
17976TIP3   OH275418   0.301   2.604   2.774 -0.3001  0.0869 -0.2271
17976TIP3    H175419   0.291   2.525   2.826 -1.6336 -0.5902 -1.4554
17976TIP3    H275420   0.311   2.573   2.684  2.4447  1.1868 -0.4263
17977TIP3   OH275421   0.288   2.662   5.082  0.1290  0.6090 -0.0947
17977TIP3    H175422   0.350   2.600   5.044  1.2443  0.0400  2.4546
17977TIP3    H275423   0.250   2.616   5.157 -2.0648  1.6175 -0.4851
17978TIP3   OH275424   2.038   4.676   3.246 -0.3760 -0.4877 -0.2724
17978TIP3    H175425   1.991   4.731   3.183 -1.4734  1.6646  2.2124
17978TIP3    H275426   1.985   4.682   3.326 -0.5151 -5.2191  0.2625
17979TIP3   OH275427   4.348   1.764   1.340 -0.1889 -0.3066 -0.2522
17979TIP3    H175428   4.293   1.714   1.400  0.2012  0.5428  0.8450
17979TIP3    H275429   4.287   1.819   1.290 -0.4490 -0.3713 -0.0035
17980TIP3   OH275430   4.397   0.005   0.320  0.3790 -0.2020 -0.3467
17980TIP3    H175431   4.484   0.044   0.326 -0.4245  1.7503 -0.5771
17980TIP3    H275432   4.395  -0.037   0.235  1.8105 -2.2435  0.5394
17981TIP3   OH275433   5.407   5.627  14.607  0.1382  0.1624 -0.1730
17981TIP3    H175434   5.485   5.643  14.553  0.5509  1.9558  0.8686
17981TIP3    H275435   5.334   5.639  14.546  0.4981  4.1847 -0.1103
17982TIP3   OH275436   5.948   6.426  10.970  0.4234 -0.5114 -0.1418
17982TIP3    H175437   5.936   6.517  10.944  0.0564 -0.2014  1.0412
17982TIP3    H275438   6.020   6.394  10.916 -0.4941 -0.0111 -1.7191
17983TIP3   OH275439   4.851   6.654  15.114  0.3083 -0.0434  0.5169
17983TIP3    H175440   4.850   6.629  15.206 -1.7441 -0.4703  0.4372
17983TIP3    H275441   4.772   6.707  15.103  0.5686  0.0822 -0.9727
17984TIP3   OH275442   1.249   4.090  13.480 -0.0261 -0.0899  0.1803
17984TIP3    H175443   1.196   4.142  13.540  1.1720  1.9556 -0.4517
17984TIP3    H275444   1.191   4.075  13.405 -0.1572  1.0119  0.0433
17985TIP3   OH275445   0.842   4.226   6.012 -0.0797  0.0218 -0.4958
17985TIP3    H175446   0.865   4.133   6.020 -0.2835 -0.1258 -1.4865
17985TIP3    H275447   0.869   4.264   6.095  0.7966 -0.7657 -0.3931
17986TIP3   OH275448   3.609   1.407   2.047  0.5526  0.0248 -0.3738
17986TIP3    H175449   3.633   1.456   1.969  0.8118  0.1572 -0.2117
17986TIP3    H275450   3.635   1.463   2.120 -1.3921  0.7561 -0.1787
17987TIP3   OH275451   2.983   5.674   5.388 -0.3367 -0.3434  0.0498
17987TIP3    H175452   2.996   5.594   5.440 -0.5167 -0.7740 -0.5605
17987TIP3    H275453   2.991   5.645   5.297  1.7585  0.6940 -0.1581
17988TIP3   OH275454   3.360   5.045   0.971  0.6701 -0.8282 -0.3158
17988TIP3    H175455   3.367   5.027   0.877  0.1131 -2.5378 -0.0604
17988TIP3    H275456   3.426   4.989   1.011  0.5027 -0.5429  0.3639
17989TIP3   OH275457   1.841   1.377  16.155  0.5540  0.1594  0.0503
17989TIP3    H175458   1.818   1.356  16.246  1.1406 -1.0323 -0.0530
17989TIP3    H275459   1.881   1.297  16.122 -1.0888  0.0232 -1.7681
17990TIP3   OH275460   6.342   1.219  16.833 -0.0383 -0.4537 -0.1074
17990TIP3    H175461   6.350   1.166  16.912  0.6037  0.1705  0.2590
17990TIP3    H275462   6.302   1.161  16.769 -1.5846 -0.6442  0.9853
17991TIP3   OH275463   2.266   6.462   3.832 -0.1678 -0.8037  0.5208
17991TIP3    H175464   2.348   6.416   3.852  0.2453  0.3119  1.5332
17991TIP3    H275465   2.237   6.424   3.750  1.0820 -1.6118  0.4168
17992TIP3   OH275466   0.070   2.592   0.973  0.1340 -0.6431 -0.5601
17992TIP3    H175467   0.004   2.558   1.034  2.1785  0.3163  2.4156
17992TIP3    H275468   0.043   2.682   0.956  0.5030 -0.3192  0.4838
17993TIP3   OH275469   0.906   2.602  11.400 -0.0639  0.5429 -0.1293
17993TIP3    H175470   0.883   2.590  11.307  0.2099  1.9252 -0.3979
17993TIP3    H275471   0.851   2.540  11.447  0.5990 -1.0040 -1.2950
17994TIP3   OH275472   4.029   2.697   1.883 -0.1921  0.0570  0.1160
17994TIP3    H175473   4.117   2.733   1.875 -0.0601 -0.3135 -0.1058
17994TIP3    H275474   4.042   2.609   1.919 -0.4702  0.0079  0.0997
17995TIP3   OH275475   0.451   2.412  10.333 -0.6491  0.0139 -0.3986
17995TIP3    H175476   0.499   2.386  10.412  0.3273  0.0592 -0.9664
17995TIP3    H275477   0.519   2.424  10.266 -1.4082  0.5508 -1.0918
17996TIP3   OH275478   5.819   6.173  10.960  0.3506 -0.0146  0.6542
17996TIP3    H175479   5.869   6.252  10.940  2.8396 -2.0836 -2.1373
17996TIP3    H275480   5.759   6.162  10.886  0.7029 -1.2248  0.5275
17997TIP3   OH275481   5.481   1.220   2.505 -0.1429  0.0821  0.0018
17997TIP3    H175482   5.527   1.136   2.506  0.6168  0.4449 -1.5144
17997TIP3    H275483   5.523   1.272   2.573  1.0714  0.0687 -0.7184
17998TIP3   OH275484   3.504   3.911  14.323  0.4956  0.3800 -0.0452
17998TIP3    H175485   3.416   3.927  14.288  0.3962 -0.5599 -0.2567
17998TIP3    H275486   3.523   3.987  14.378 -1.2418 -0.2918  1.5768
17999TIP3   OH275487   1.472   2.690   6.073 -0.3868 -0.1041  0.6161
17999TIP3    H175488   1.470   2.611   6.019 -3.0668 -0.9501  1.7640
17999TIP3    H275489   1.527   2.668   6.148  2.0568  0.5412 -0.8922
18000TIP3   OH275490   2.621   0.759   5.230 -0.6434 -0.1099  0.3498
18000TIP3    H175491   2.598   0.821   5.299  0.0109  0.6926 -0.1370
18000TIP3    H275492   2.709   0.730   5.252 -0.3162  0.3724 -0.2995
18001TIP3   OH275493   3.491   2.808   0.904  0.0327 -0.0256  0.2075
18001TIP3    H175494   3.489   2.776   0.814  0.9778 -0.6202  0.3845
18001TIP3    H275495   3.461   2.899   0.897 -0.9047 -0.3765 -0.5546
18002TIP3   OH275496   6.116   2.255  16.469  0.1794  0.0751 -0.7748
18002TIP3    H175497   6.169   2.334  16.464  1.6112 -0.9349 -2.6375
18002TIP3    H275498   6.177   2.187  16.498 -0.8176 -0.5643 -0.0866
18003TIP3   OH275499   0.537   2.577   1.138 -0.6586  0.5251  0.6288
18003TIP3    H175500   0.540   2.491   1.096 -0.1297  0.1952  1.3313
18003TIP3    H275501   0.611   2.625   1.101 -0.8966  0.6522  0.3093
18004TIP3   OH275502   2.576   1.526   0.547 -0.2171  0.3126  0.1677
18004TIP3    H175503   2.591   1.441   0.588 -0.7851 -0.0072 -0.2687
18004TIP3    H275504   2.564   1.587   0.620 -0.0428 -0.0247  0.4782
18005TIP3   OH275505   2.062   4.213   3.155 -0.4362 -0.3675 -0.6728
18005TIP3    H175506   2.007   4.135   3.165 -1.0975  0.1805  0.0372
18005TIP3    H275507   2.150   4.178   3.144 -0.5314 -1.2132  0.9518
18006TIP3   OH275508   3.358   0.156  15.772  0.6779 -0.5036 -0.1649
18006TIP3    H175509   3.419   0.084  15.757  0.2805 -0.6801 -0.9993
18006TIP3    H275510   3.381   0.221  15.705  0.6694 -0.0928  0.2242
18007TIP3   OH275511   3.115   4.688  11.226 -0.2710  0.1247 -0.2312
18007TIP3    H175512   3.058   4.765  11.221  1.4059  1.3476 -1.4570
18007TIP3    H275513   3.148   4.677  11.137  1.5312 -0.4452  0.4662
18008TIP3   OH275514   2.564   0.743   1.491  0.3277  0.1080 -0.1709
18008TIP3    H175515   2.491   0.748   1.429 -0.0249  1.1633  0.3131
18008TIP3    H275516   2.639   0.780   1.445 -0.2036  1.9715  0.3900
18009TIP3   OH275517   5.342   1.145   2.265  0.0101  0.1802  0.0320
18009TIP3    H175518   5.370   1.146   2.357  0.8211  2.3185 -0.1924
18009TIP3    H275519   5.390   1.217   2.224 -0.9595 -0.2040 -1.8997
18010TIP3   OH275520   2.041   2.943   5.772  0.4848 -0.5648  0.1286
18010TIP3    H175521   2.080   2.994   5.843 -1.2400  0.8796  0.0960
18010TIP3    H275522   1.951   2.928   5.799 -0.3250  0.3111 -1.8663
18011TIP3   OH275523   2.711   1.659   2.066 -0.5325  0.2298  0.2002
18011TIP3    H175524   2.806   1.655   2.064 -0.5529 -0.1436 -1.1967
18011TIP3    H275525   2.689   1.668   2.158  0.8262 -0.3119  0.5995
18012TIP3   OH275526   4.917   6.578   5.232 -0.2995 -0.2518  0.2338
18012TIP3    H175527   4.966   6.645   5.280  1.4399 -0.5449 -1.0056
18012TIP3    H275528   4.828   6.611   5.227  0.3806  1.6845  0.1652
18013TIP3   OH275529   1.500   3.400  10.867  0.6578  0.2407  0.0868
18013TIP3    H175530   1.565   3.444  10.812  1.6814 -0.4690  0.6841
18013TIP3    H275531   1.421   3.396  10.813  1.5389 -0.1710 -1.2309
18014TIP3   OH275532   6.593   2.940  15.079 -0.1612  0.5051  0.0215
18014TIP3    H175533   6.647   2.939  15.158  1.2014  0.6184 -0.8687
18014TIP3    H275534   6.568   2.848  15.066  0.2840  0.3583  0.1568
18015TIP3   OH275535   4.173   6.136   3.806  0.5214 -0.1823  0.3540
18015TIP3    H175536   4.101   6.102   3.754 -0.5033  1.8398  0.3669
18015TIP3    H275537   4.138   6.143   3.894  0.6249  1.0600  0.3095
18016TIP3   OH275538   0.256   2.327  12.218  0.4070  0.5851 -0.0732
18016TIP3    H175539   0.178   2.273  12.204  0.2169  0.7505  0.3327
18016TIP3    H275540   0.222   2.416  12.222  0.5788  0.6314  0.3974
18017TIP3   OH275541   6.161   5.373  13.527  0.3270 -0.0362 -0.3193
18017TIP3    H175542   6.220   5.441  13.559  1.3305 -2.0712  2.6377
18017TIP3    H275543   6.219   5.305  13.493 -0.6108  0.1549 -2.4174
18018TIP3   OH275544   4.618   3.278  13.531 -0.0244 -0.1517 -0.8540
18018TIP3    H175545   4.691   3.238  13.484 -0.1447 -0.2098 -0.9917
18018TIP3    H275546   4.635   3.372  13.526  0.3026 -0.1892 -0.4570
18019TIP3   OH275547   6.680   2.773  13.265 -0.3377 -0.1494 -0.1095
18019TIP3    H175548   6.749   2.727  13.218 -0.9033  0.3049 -1.4587
18019TIP3    H275549   6.650   2.711  13.331 -1.3126 -1.9100 -2.0814
18020TIP3   OH275550   2.521   0.555   3.308  0.1652  0.5046 -0.3919
18020TIP3    H175551   2.534   0.649   3.296  2.3971  0.1404 -1.2628
18020TIP3    H275552   2.607   0.517   3.293 -1.0167 -1.8454 -1.6564
18021TIP3   OH275553   0.898   6.591  11.968  0.3635  0.3612 -0.1323
18021TIP3    H175554   0.948   6.602  11.887 -0.6834  0.3119 -0.8048
18021TIP3    H275555   0.948   6.639  12.034  0.7791  1.1545 -1.0027
18022TIP3   OH275556   2.609   2.579   4.894 -0.0169  0.2071 -0.6348
18022TIP3    H175557   2.530   2.600   4.844 -0.8612 -0.9126  0.2103
18022TIP3    H275558   2.605   2.635   4.971  0.9695  1.4707 -1.4447
18023TIP3   OH275559   6.738   2.746  13.776 -0.2365 -0.1297 -0.1682
18023TIP3    H175560   6.813   2.780  13.728  0.1714  0.6732  1.0079
18023TIP3    H275561   6.773   2.673  13.827 -0.3486 -0.0533  0.0223
18024TIP3   OH275562   0.182   4.755  12.837 -0.7782 -0.1754  0.6294
18024TIP3    H175563   0.187   4.711  12.922  0.6655  2.7813  2.2329
18024TIP3    H275564   0.213   4.844  12.854 -0.3794  0.5530 -3.0513
18025TIP3   OH275565   4.998   4.267   4.741  0.2049 -0.1014  0.1719
18025TIP3    H175566   5.073   4.259   4.799 -1.5166 -2.9997  2.2489
18025TIP3    H275567   4.926   4.225   4.789 -1.5978 -1.8162 -3.6366
18026TIP3   OH275568   3.158   1.363   0.572 -0.0786 -0.1476  0.0274
18026TIP3    H175569   3.220   1.426   0.607  0.0025 -0.6182  0.7520
18026TIP3    H275570   3.072   1.398   0.595 -0.2262  1.3604 -2.3890
18027TIP3   OH275571   1.817   6.420   4.957 -0.5345  0.4922 -0.1667
18027TIP3    H175572   1.885   6.383   5.013 -1.8607  0.2811  1.3906
18027TIP3    H275573   1.814   6.363   4.881 -0.2578 -0.6447  0.6447
18028TIP3   OH275574   5.869   2.251   3.998 -0.4622 -0.0356  0.1195
18028TIP3    H175575   5.832   2.173   3.956  0.8724 -0.8700  0.4340
18028TIP3    H275576   5.811   2.322   3.971  0.4254 -0.4492 -3.4129
18029TIP3   OH275577   0.808   5.844  16.769 -0.1899  0.4103 -0.2337
18029TIP3    H175578   0.761   5.880  16.844  0.4326  0.1407  0.2962
18029TIP3    H275579   0.823   5.752  16.791  1.3471  0.6863  0.0173
18030TIP3   OH275580   6.348   3.867  15.683  0.5678 -0.0622  0.1587
18030TIP3    H175581   6.323   3.956  15.657  0.5316  0.0865  0.6941
18030TIP3    H275582   6.341   3.816  15.602 -0.7437  0.1376  0.1273
18031TIP3   OH275583   5.007   0.644   1.637  0.3400 -0.0862 -0.4043
18031TIP3    H175584   4.932   0.590   1.611 -0.5916  0.6988  0.5673
18031TIP3    H275585   4.968   0.724   1.671  1.6667  0.6829 -0.6409
18032TIP3   OH275586   6.720   5.956  11.007 -0.2655  0.2838  0.3364
18032TIP3    H175587   6.638   5.907  11.010 -0.4386  0.6030  0.9809
18032TIP3    H275588   6.720   5.996  10.920 -0.2345 -0.6481 -0.1048
18033TIP3   OH275589   3.700   6.452   1.372  0.8479 -0.1883  0.3379
18033TIP3    H175590   3.637   6.459   1.300  0.4216 -0.7567  0.6434
18033TIP3    H275591   3.730   6.541   1.386 -1.1722  0.4164  1.2940
18034TIP3   OH275592   1.792   6.298  15.405 -0.0776 -0.3592  0.0801
18034TIP3    H175593   1.861   6.352  15.365 -0.3541 -0.1405 -0.1082
18034TIP3    H275594   1.840   6.231  15.454  0.3577  1.5395  2.4585
18035TIP3   OH275595   5.584   1.749  16.401  0.2795 -0.2102  0.1898
18035TIP3    H175596   5.576   1.658  16.374 -0.4921  0.0935 -0.6631
18035TIP3    H275597   5.620   1.794  16.325  0.1342  0.2893  0.4082
18036TIP3   OH275598   4.755   5.053  13.262 -0.0742  0.2444 -0.4694
18036TIP3    H175599   4.847   5.069  13.241 -0.4947 -0.3628 -3.0438
18036TIP3    H275600   4.757   5.018  13.351  2.0890  1.0394 -0.1461
18037TIP3   OH275601   3.604   3.695  14.520  0.6880  0.5374  0.3482
18037TIP3    H175602   3.579   3.658  14.604  1.1924  0.0142  0.2713
18037TIP3    H275603   3.548   3.772  14.510 -0.2183 -0.0778  0.6077
18038TIP3   OH275604   2.093   2.634   5.586 -0.5201  0.1026  0.2071
18038TIP3    H175605   2.042   2.553   5.583  0.1579 -0.3720  1.0685
18038TIP3    H275606   2.034   2.701   5.552 -1.4656 -0.5567  0.5224
18039TIP3   OH275607   3.127   5.080  14.169  0.7058 -0.5850 -0.4718
18039TIP3    H175608   3.043   5.037  14.156  0.3425 -0.1458  0.3836
18039TIP3    H275609   3.190   5.023  14.125 -0.1963 -0.2086 -2.3706
18040TIP3   OH275610   0.065   2.068   3.744 -0.7874  0.8396 -0.3168
18040TIP3    H175611   0.067   2.071   3.840 -3.8554  1.1754 -0.1640
18040TIP3    H275612   0.003   2.137   3.720 -2.5444 -1.2688 -2.3197
18041TIP3   OH275613   3.880   4.144   5.656 -0.3437  0.6773  1.2126
18041TIP3    H175614   3.827   4.069   5.683 -0.2117  0.3648  0.6200
18041TIP3    H275615   3.955   4.143   5.715  0.4234 -0.5622  0.2582
18042TIP3   OH275616   2.187   0.643  11.427 -0.5494  0.2317  0.3172
18042TIP3    H175617   2.146   0.617  11.509  1.4044 -0.3415  1.1725
18042TIP3    H275618   2.214   0.734  11.440 -0.4751  0.2269  0.2041
18043TIP3   OH275619   3.991   2.276   6.210  0.3106 -0.4853 -0.0637
18043TIP3    H175620   4.023   2.275   6.300 -0.8942 -0.8997  0.3859
18043TIP3    H275621   4.019   2.360   6.176 -0.0901  0.1286  1.0487
18044TIP3   OH275622   5.407   1.124  11.436 -0.6967  0.7752  0.5387
18044TIP3    H175623   5.312   1.129  11.426 -0.6441  0.2183 -0.3042
18044TIP3    H275624   5.442   1.133  11.347 -0.0188 -0.2569  0.6812
18045TIP3   OH275625   2.006   4.998   0.513 -0.2667  0.0596  0.0744
18045TIP3    H175626   1.938   4.961   0.570  0.1934 -2.0068 -0.5968
18045TIP3    H275627   2.051   5.062   0.567 -0.4148 -1.1832  1.7750
18046TIP3   OH275628   5.576   1.116  14.855 -0.0380  0.5747 -0.0717
18046TIP3    H175629   5.589   1.170  14.933  0.8910  2.5148 -1.4882
18046TIP3    H275630   5.481   1.118  14.840 -0.1115  1.0251  0.4276
18047TIP3   OH275631   0.575   4.797   2.487  0.0505 -0.0757  0.1380
18047TIP3    H175632   0.554   4.723   2.543 -1.0873 -1.8015 -2.3808
18047TIP3    H275633   0.666   4.784   2.462  0.7937  1.1008  2.0379
18048TIP3   OH275634   0.903   4.806  16.861 -0.0465  0.5509  0.3954
18048TIP3    H175635   0.953   4.737  16.818  0.3458  0.5969  0.7697
18048TIP3    H275636   0.926   4.886  16.813 -2.1732  0.1498 -1.4753
18049TIP3   OH275637   3.579   4.539   1.708 -0.0686  0.1066  0.0001
18049TIP3    H175638   3.592   4.552   1.614 -0.4580 -0.9612 -0.2224
18049TIP3    H275639   3.536   4.454   1.714 -2.6758  1.3963  0.9821
18050TIP3   OH275640   3.450   4.969   4.524 -0.1851 -0.0450  0.4126
18050TIP3    H175641   3.499   5.051   4.519  1.1919 -0.6511  2.5683
18050TIP3    H275642   3.361   4.995   4.546 -0.5379  0.9818 -1.9236
18051TIP3   OH275643   3.670   3.699   1.126  0.0473 -0.4647  0.3784
18051TIP3    H175644   3.629   3.650   1.055  0.0065 -0.9290  0.7186
18051TIP3    H275645   3.610   3.771   1.143 -0.6832 -1.1890  0.9323
18052TIP3   OH275646   5.077   0.346  14.523  0.1289 -0.4042  0.3340
18052TIP3    H175647   5.131   0.340  14.445  0.2574 -2.9407  0.5389
18052TIP3    H275648   5.139   0.352  14.596  0.0141  1.4043  0.3324
18053TIP3   OH275649   2.556   1.504  13.346 -0.3126  0.3041  0.3365
18053TIP3    H175650   2.641   1.544  13.326 -0.9989  0.7873 -1.8480
18053TIP3    H275651   2.535   1.535  13.434  1.6587  0.3474  0.8394
18054TIP3   OH275652   2.449   3.215  16.980  0.2231  1.0115 -0.3505
18054TIP3    H175653   2.484   3.132  17.012  0.9386  0.9515 -1.2239
18054TIP3    H275654   2.419   3.195  16.891 -2.4760  0.9727  0.4883
18055TIP3   OH275655   6.721   6.602  11.623  0.1724 -0.5512  0.4773
18055TIP3    H175656   6.815   6.608  11.635  0.2576  0.6831 -0.5285
18055TIP3    H275657   6.705   6.512  11.594  1.1514 -0.5163 -0.1941
18056TIP3   OH275658   0.056   1.196  14.077  0.3430  0.0165 -0.4857
18056TIP3    H175659   0.122   1.155  14.134 -0.2098  1.2265  1.1163
18056TIP3    H275660   0.029   1.275  14.125 -3.2101 -1.0753 -0.3987
18057TIP3   OH275661   4.182   4.842  14.780  0.5780  0.2989  0.3498
18057TIP3    H175662   4.124   4.769  14.761 -0.4277  0.7460  1.5776
18057TIP3    H275663   4.195   4.839  14.875 -0.3201  2.2680  0.5991
18058TIP3   OH275664   2.235   1.338  11.981 -0.4567  0.3245  0.0102
18058TIP3    H175665   2.291   1.357  11.906 -0.9285 -0.6689 -0.6208
18058TIP3    H275666   2.180   1.265  11.952  0.0125 -0.7496  1.6458
18059TIP3   OH275667   4.190   1.695  16.659  0.0547  0.2176  0.0046
18059TIP3    H175668   4.118   1.721  16.600  0.3252  0.0450 -0.4103
18059TIP3    H275669   4.152   1.698  16.746 -0.7072 -0.7380 -0.2811
18060TIP3   OH275670   2.149   2.802  15.924 -0.2630  0.3631 -0.1294
18060TIP3    H175671   2.166   2.815  15.830  0.0814 -0.7293 -0.2264
18060TIP3    H275672   2.193   2.875  15.966 -1.6278  1.7050 -0.8972
18061TIP3   OH275673   4.674   0.577  13.819  0.2688 -0.5528  0.3438
18061TIP3    H175674   4.749   0.586  13.760  0.2688 -0.9344  0.2774
18061TIP3    H275675   4.597   0.580  13.762  0.3133 -2.4094  0.1076
18062TIP3   OH275676   4.560   4.829  16.578  0.4392  0.4592  0.6877
18062TIP3    H175677   4.558   4.839  16.483  2.8740  0.6146  0.5832
18062TIP3    H275678   4.534   4.914  16.613  1.8811  1.1983  0.0736
18063TIP3   OH275679   0.869   1.371  15.120 -0.5532 -0.1600  0.0091
18063TIP3    H175680   0.951   1.356  15.167  1.0556 -2.0392 -3.0836
18063TIP3    H275681   0.814   1.416  15.184  1.9645 -0.9760  3.0710
18064TIP3   OH275682   3.228   2.591  14.834  0.1921 -0.2781 -0.2389
18064TIP3    H175683   3.263   2.679  14.847 -0.2548 -0.2489  0.8684
18064TIP3    H275684   3.302   2.540  14.800  0.6760  0.3290 -0.1013
18065TIP3   OH275685   4.733   4.055   1.922 -0.5700  0.3406 -0.0976
18065TIP3    H175686   4.804   4.015   1.971 -0.7435  1.3447  1.0059
18065TIP3    H275687   4.661   3.993   1.928  0.0040 -0.4087 -0.7214
18066TIP3   OH275688   0.856   5.759  13.906  0.1692 -0.8222  0.0362
18066TIP3    H175689   0.921   5.790  13.969  1.0943 -1.5421 -0.5348
18066TIP3    H275690   0.888   5.673  13.879 -1.3048 -1.4374  0.1326
18067TIP3   OH275691   3.445   5.357   6.561  0.7423  0.4769 -0.0004
18067TIP3    H175692   3.390   5.381   6.487  0.3058 -1.0797 -0.2161
18067TIP3    H275693   3.491   5.438   6.584  1.1330  0.9326 -2.1671
18068TIP3   OH275694   0.607   4.184  15.767 -0.1035 -0.0732 -0.7352
18068TIP3    H175695   0.515   4.197  15.792  0.1582  1.2106 -0.3746
18068TIP3    H275696   0.633   4.104  15.813 -1.3018 -1.0122 -1.6113
18069TIP3   OH275697   2.376   4.174  13.008  0.0502  0.2123 -0.2045
18069TIP3    H175698   2.363   4.079  13.002  0.3788  0.1032  0.6723
18069TIP3    H275699   2.431   4.185  13.085 -0.2335  1.1438 -0.1323
18070TIP3   OH275700   4.302   0.758  13.787 -0.0368  0.5427 -0.1078
18070TIP3    H175701   4.295   0.844  13.746 -0.6761  0.7240  0.3750
18070TIP3    H275702   4.228   0.709  13.753 -0.4413  0.6187  0.6416
18071TIP3   OH275703   1.177   4.557   2.832 -0.4645 -0.6597 -0.4584
18071TIP3    H175704   1.122   4.554   2.754 -1.3584  0.5955  0.0938
18071TIP3    H275705   1.134   4.498   2.894 -1.8002  1.0319  0.3105
18072TIP3   OH275706   5.898   2.938  10.738  0.2254 -0.0489  0.1512
18072TIP3    H175707   5.850   3.007  10.784 -1.8099 -0.8502 -0.6676
18072TIP3    H275708   5.896   2.965  10.646  0.1174 -0.8014 -0.0743
18073TIP3   OH275709   4.124   0.629   4.390  0.6626 -0.4439  0.4124
18073TIP3    H175710   4.068   0.562   4.429  1.6663 -1.0668  0.8183
18073TIP3    H275711   4.163   0.586   4.314  1.3895 -0.3444  0.7288
18074TIP3   OH275712   0.080   3.432  13.958  0.0494 -0.1460  0.0135
18074TIP3    H175713  -0.005   3.476  13.971 -0.2738 -0.4285 -1.0357
18074TIP3    H275714   0.088   3.373  14.032 -0.9086 -0.4574 -0.1111
18075TIP3   OH275715   6.339   4.854  13.786  0.6794 -0.5394  0.2994
18075TIP3    H175716   6.276   4.921  13.757  2.1915 -0.0541 -2.0714
18075TIP3    H275717   6.358   4.877  13.877 -1.3202  0.2418  0.5705
18076TIP3   OH275718   5.256   3.057   2.081  0.2135 -0.2178  0.0559
18076TIP3    H175719   5.223   2.989   2.023 -0.4091 -0.5312  0.7569
18076TIP3    H275720   5.190   3.126   2.078  0.1265 -0.2790  0.4590
18077TIP3   OH275721   4.961   6.073   3.370  0.2110 -0.1764  0.8501
18077TIP3    H175722   4.989   6.004   3.312 -0.2813 -0.1950  0.6286
18077TIP3    H275723   5.022   6.145   3.354  0.5110 -0.4328  0.8343
18078TIP3   OH275724   6.446   2.960  12.594  0.0544  0.6186 -1.3505
18078TIP3    H175725   6.406   2.964  12.680 -0.2040 -0.8926 -1.3746
18078TIP3    H275726   6.376   2.989  12.534  0.5350  2.6352 -1.0210
18079TIP3   OH275727   1.149   6.389   3.459 -0.3203 -0.1940  0.4016
18079TIP3    H175728   1.139   6.481   3.434 -1.5547 -0.4196 -0.0021
18079TIP3    H275729   1.197   6.349   3.386  0.1641  0.1142  0.5494
18080TIP3   OH275730   6.623   6.208   0.200 -0.0713 -0.5531 -0.2962
18080TIP3    H175731   6.612   6.288   0.148 -1.6243  0.5367  1.5876
18080TIP3    H275732   6.554   6.150   0.171  1.1988 -1.3816 -1.8314
18081TIP3   OH275733   0.947   0.086   5.596 -0.0757  0.5521  0.4972
18081TIP3    H175734   0.944   0.013   5.533 -3.2705  1.1268 -0.1733
18081TIP3    H275735   0.880   0.147   5.566  2.4963  3.9452  0.9754
18082TIP3   OH275736   1.428   5.062  11.546 -0.5788  0.2069 -0.4348
18082TIP3    H175737   1.401   4.993  11.486 -0.3321  0.3636 -0.7231
18082TIP3    H275738   1.479   5.016  11.613  3.4565  0.5991 -2.9241
18083TIP3   OH275739   1.059   3.917   1.005 -0.9677  0.4205 -0.0786
18083TIP3    H175740   1.017   4.001   0.990 -1.3802  0.0842 -0.8765
18083TIP3    H275741   1.148   3.939   1.031 -0.7987  1.1036 -1.1624
18084TIP3   OH275742   5.269   1.986   5.903  0.6141  0.7277 -0.5290
18084TIP3    H175743   5.315   1.915   5.948  0.7701  0.5285 -0.9886
18084TIP3    H275744   5.339   2.046   5.876  0.3361  2.1395  1.6377
18085TIP3   OH275745   1.047   2.780  11.533  0.1788 -0.3313  0.9788
18085TIP3    H175746   0.977   2.723  11.500 -1.6611  0.7837  2.6908
18085TIP3    H275747   1.082   2.732  11.609  1.1103 -0.7385  0.3170
18086TIP3   OH275748   2.382   3.940   0.091  0.4257 -0.0880 -0.3418
18086TIP3    H175749   2.317   3.929   0.161  0.8691  0.7867  0.2276
18086TIP3    H275750   2.373   3.861   0.037  0.2698 -0.9277  0.8717
18087TIP3   OH275751   6.100   4.241  16.705  0.1429  0.2113  0.1565
18087TIP3    H175752   6.115   4.320  16.756  0.1013  0.7703 -0.6741
18087TIP3    H275753   6.180   4.229  16.653 -0.0907  0.0670 -0.1798
18088TIP3   OH275754   0.375   4.153  15.981  0.2407  1.0736 -0.4840
18088TIP3    H175755   0.299   4.158  15.923  0.3489 -0.4680 -0.8054
18088TIP3    H275756   0.343   4.184  16.066 -1.2951 -1.2252 -0.1330
18089TIP3   OH275757   6.428   3.031   4.977 -0.0859 -0.1514  0.1447
18089TIP3    H175758   6.375   3.097   5.022  1.0771 -0.2085  1.6747
18089TIP3    H275759   6.466   2.978   5.048  0.4396 -1.3376 -0.9850
18090TIP3   OH275760   2.326   4.245  12.149  0.1504 -0.0655 -0.1028
18090TIP3    H175761   2.298   4.335  12.135  1.3574  0.1165 -1.5870
18090TIP3    H275762   2.422   4.249  12.151  0.2094 -1.2054  0.7230
18091TIP3   OH275763   6.381   5.640  15.111  0.1644  0.0798  0.1813
18091TIP3    H175764   6.303   5.653  15.057  0.5152 -1.1960 -0.6583
18091TIP3    H275765   6.348   5.595  15.189 -0.0883  0.5074  0.3294
18092TIP3   OH275766   0.389   6.554   0.459 -0.3732 -0.4439 -0.0306
18092TIP3    H175767   0.390   6.462   0.485 -0.7755 -0.2425  0.7321
18092TIP3    H275768   0.296   6.577   0.452 -0.2788 -0.0892 -0.1951
18093TIP3   OH275769   0.640   4.580   0.290 -0.5872 -0.1539 -0.2273
18093TIP3    H175770   0.617   4.491   0.312 -0.7459  0.1905  1.0687
18093TIP3    H275771   0.601   4.634   0.359  0.3940  0.8147 -0.3836
18094TIP3   OH275772   3.191   6.634  11.521  0.0096  0.4084  0.2809
18094TIP3    H175773   3.159   6.720  11.495  0.0801  0.5805  0.7570
18094TIP3    H275774   3.140   6.612  11.599 -0.9325 -0.5555 -0.5651
18095TIP3   OH275775   5.040   5.382  14.052 -0.1317 -0.0111 -0.3933
18095TIP3    H175776   4.960   5.409  14.007 -1.8698 -1.4721  1.6043
18095TIP3    H275777   5.068   5.461  14.099  1.1509  1.2393 -3.0464
18096TIP3   OH275778   4.863   3.879   3.708  0.1004  0.2487 -0.2880
18096TIP3    H175779   4.906   3.937   3.645 -1.4920  0.0234 -1.6670
18096TIP3    H275780   4.871   3.923   3.792  0.6222  1.5120 -0.9773
18097TIP3   OH275781   2.527   5.912  15.428  0.3098  0.0963 -0.5513
18097TIP3    H175782   2.585   5.987  15.439  0.7050 -0.4546  1.4474
18097TIP3    H275783   2.450   5.933  15.480  0.9959 -1.4003  1.1859
18098TIP3   OH275784   1.043   0.655  11.943  0.1459  0.4078  0.0392
18098TIP3    H175785   1.118   0.686  11.893 -0.4512  0.9453 -0.5295
18098TIP3    H275786   1.081   0.597  12.009  0.8958 -0.6757 -1.3140
18099TIP3   OH275787   6.255   5.341   6.676 -0.0386  0.3784 -0.2339
18099TIP3    H175788   6.293   5.254   6.686 -0.5816  0.2407  0.8108
18099TIP3    H275789   6.310   5.398   6.731  0.0364  0.6144 -0.5474
18100TIP3   OH275790   3.157   1.434  12.829  0.4209 -0.2641 -0.9332
18100TIP3    H175791   3.226   1.480  12.781  0.6507 -0.2916 -0.6313
18100TIP3    H275792   3.204   1.376  12.889  0.1389  0.4297 -0.0314
18101TIP3   OH275793   1.614   0.598  15.036  0.4591 -0.2646 -0.5313
18101TIP3    H175794   1.563   0.645  14.971 -1.5528  0.8956  1.7432
18101TIP3    H275795   1.569   0.514  15.046  1.9858 -1.3347 -2.0287
18102TIP3   OH275796   6.162   4.642  11.786  0.2986 -0.6893 -0.6858
18102TIP3    H175797   6.126   4.687  11.710 -0.6017  0.0838  0.1746
18102TIP3    H275798   6.176   4.552  11.756 -0.2045 -0.4413 -1.7051
18103TIP3   OH275799   5.592   2.940  13.792 -0.0132 -0.3574  0.3230
18103TIP3    H175800   5.604   2.868  13.854  0.0357 -0.0700  0.6457
18103TIP3    H275801   5.581   2.896  13.707  3.7203 -0.6977 -0.1565
18104TIP3   OH275802   0.599   4.228   5.901  0.0045  0.7081 -0.3353
18104TIP3    H175803   0.551   4.212   5.982 -0.7864  0.0750 -0.9160
18104TIP3    H275804   0.690   4.243   5.929  0.0478 -0.9751  0.5575
18105TIP3   OH275805   6.266   4.894   0.890 -0.6931 -0.1188 -0.1813
18105TIP3    H175806   6.273   4.833   0.965 -0.6209 -0.4321 -0.4402
18105TIP3    H275807   6.254   4.980   0.930 -0.6194 -0.2810  0.1946
18106TIP3   OH275808   3.717   5.655   1.987  0.0876 -0.4084  0.1208
18106TIP3    H175809   3.714   5.722   2.056 -0.2975  1.3101 -1.4740
18106TIP3    H275810   3.664   5.691   1.916 -0.7853 -2.7957 -0.5383
18107TIP3   OH275811   2.686   1.072   4.636  0.5982 -0.5221  0.0206
18107TIP3    H175812   2.596   1.079   4.667 -0.4818 -1.5703 -2.5867
18107TIP3    H275813   2.702   1.153   4.589  0.0372 -1.3615 -1.6985
18108TIP3   OH275814   5.439   5.708   2.729  0.0037  0.4335  0.6250
18108TIP3    H175815   5.373   5.697   2.661 -0.9984  2.7093  1.1060
18108TIP3    H275816   5.523   5.707   2.683 -0.5068 -0.3701 -0.3018
18109TIP3   OH275817   4.405   1.396  12.278 -0.8984  0.1136  0.2758
18109TIP3    H175818   4.430   1.401  12.370 -0.5299  1.6433  0.1038
18109TIP3    H275819   4.346   1.470  12.265 -1.0025 -0.1299 -0.7105
18110TIP3   OH275820   2.573   6.297  16.975 -0.5195 -0.7091  0.1356
18110TIP3    H175821   2.488   6.320  17.014 -1.0042 -0.9631 -0.7388
18110TIP3    H275822   2.558   6.212  16.935  0.7742 -1.8013  1.8411
18111TIP3   OH275823   4.147   4.399  13.934  0.4076  0.0081  0.2583
18111TIP3    H175824   4.228   4.354  13.959  1.5910  0.9479 -1.5846
18111TIP3    H275825   4.163   4.491  13.956 -0.4204  0.1153  0.4501
18112TIP3   OH275826   1.546   2.564  17.031 -0.4417  0.4617 -0.0407
18112TIP3    H175827   1.474   2.502  17.021 -1.6453  1.5524  1.4931
18112TIP3    H275828   1.618   2.511  17.065 -1.7041  0.0048  2.0922
18113TIP3   OH275829   0.294   5.612  12.506 -0.0188  0.0293  0.0748
18113TIP3    H175830   0.309   5.595  12.413 -0.7092  0.5248 -0.1326
18113TIP3    H275831   0.248   5.534  12.537  0.4054 -0.2310  0.0523
18114TIP3   OH275832   4.080   1.037  13.245  0.4081 -0.8103  0.2423
18114TIP3    H175833   4.125   1.120  13.229  0.8709 -0.9656  0.7057
18114TIP3    H275834   3.989   1.061  13.260  0.7321 -0.2584  1.4845
18115TIP3   OH275835   2.789   3.101  15.636  0.1059  0.4478 -0.0073
18115TIP3    H175836   2.704   3.124  15.598  0.9213 -0.2335 -2.4355
18115TIP3    H275837   2.769   3.029  15.697 -1.2769  1.6750  1.0573
18116TIP3   OH275838   2.915   4.616   3.688 -0.4312  0.3831 -0.3065
18116TIP3    H175839   2.910   4.643   3.779  0.5262 -0.6752  0.0812
18116TIP3    H275840   2.840   4.659   3.646 -1.6972 -0.2085  1.2587
18117TIP3   OH275841   3.117   0.453   1.598 -0.4951 -0.4782  0.5640
18117TIP3    H175842   3.038   0.428   1.550 -0.2409 -1.3662  0.5942
18117TIP3    H275843   3.164   0.371   1.612  0.0667 -0.0577  1.2120
18118TIP3   OH275844   5.684   4.343  13.757 -0.3716  0.9596  0.8321
18118TIP3    H175845   5.706   4.324  13.848  0.0416 -0.6870  0.4232
18118TIP3    H275846   5.758   4.396  13.726  1.4687 -1.5927  0.4724
18119TIP3   OH275847   0.874   2.965  12.681  0.6125 -0.8588  0.3693
18119TIP3    H175848   0.953   2.921  12.648  1.5173  0.1912  1.0666
18119TIP3    H275849   0.874   2.947  12.775  1.8170  1.7698  0.9496
18120TIP3   OH275850   2.761   6.202  13.159  0.5726  0.1164  0.3570
18120TIP3    H175851   2.712   6.134  13.114  1.6844  0.9211 -2.2774
18120TIP3    H275852   2.703   6.231  13.230 -2.0286 -0.1467 -1.5186
18121TIP3   OH275853   2.803   2.438   0.863  0.8117 -0.4881 -0.0590
18121TIP3    H175854   2.735   2.416   0.926 -0.2842 -0.2715 -1.1392
18121TIP3    H275855   2.883   2.443   0.915  0.0712 -1.0862  1.1759
18122TIP3   OH275856   4.453   0.728  13.246 -0.0085  0.0857  0.2695
18122TIP3    H175857   4.431   0.789  13.316  1.4208  0.4345  0.4398
18122TIP3    H275858   4.511   0.664  13.287 -2.6552 -2.3846  0.5057
18123TIP3   OH275859   4.392   4.766  11.608  0.3864  0.4918 -0.2797
18123TIP3    H175860   4.403   4.749  11.701  0.5142 -0.8102 -0.5148
18123TIP3    H275861   4.366   4.858  11.603  1.3736  0.8627  0.9613
18124TIP3   OH275862   3.616   0.964   3.495 -0.0257 -0.1000 -0.4363
18124TIP3    H175863   3.677   0.895   3.470  0.2486 -0.4986  1.1748
18124TIP3    H275864   3.573   0.989   3.414  1.4075 -0.6564 -1.4197
18125TIP3   OH275865   3.423   2.665   2.335  0.2484  0.2600  0.5781
18125TIP3    H175866   3.509   2.650   2.294  0.7007  0.9520  1.2560
18125TIP3    H275867   3.429   2.618   2.419 -0.5700 -0.9082  0.0177
18126TIP3   OH275868   2.357   6.304   2.394  0.3387 -0.0958 -0.0544
18126TIP3    H175869   2.292   6.348   2.340  1.0570  0.8462 -0.1768
18126TIP3    H275870   2.399   6.241   2.335 -0.8437 -1.1450  0.1786
18127TIP3   OH275871   4.976   2.085  15.548  0.0465 -0.2446  0.4927
18127TIP3    H175872   5.039   2.103  15.618  1.7336  0.6120 -1.1329
18127TIP3    H275873   4.952   1.993  15.561 -1.7920  0.5337  3.6874
18128TIP3   OH275874   6.607   4.335   3.050 -0.4389  0.0402  0.1725
18128TIP3    H175875   6.532   4.385   3.017 -0.2515 -0.0475 -0.3877
18128TIP3    H275876   6.624   4.269   2.983  0.7569  0.6766 -0.1843
18129TIP3   OH275877   4.142   1.472  14.362 -0.2150  0.0581  0.1459
18129TIP3    H175878   4.141   1.400  14.424 -0.9662 -0.5208 -0.5198
18129TIP3    H275879   4.229   1.468  14.322 -0.2413 -0.4659  0.1361
18130TIP3   OH275880   1.183   6.712  14.476 -0.4386  0.0480 -0.0691
18130TIP3    H175881   1.151   6.789  14.428  0.3982  0.4933  0.0618
18130TIP3    H275882   1.118   6.644  14.458  0.3423 -0.1074 -2.6649
18131TIP3   OH275883   5.212   3.650  15.631  0.6620 -0.5215  0.2800
18131TIP3    H175884   5.205   3.573  15.576 -0.1421  1.4063 -2.5081
18131TIP3    H275885   5.301   3.682  15.616 -0.1089  0.9822 -1.4109
18132TIP3   OH275886   6.758   4.038  13.190 -0.0490 -0.6512 -0.2226
18132TIP3    H175887   6.715   3.990  13.119  0.4890 -1.7423  0.1719
18132TIP3    H275888   6.719   4.125  13.187 -1.8758 -1.4300 -0.2230
18133TIP3   OH275889   1.187   4.036  11.762  0.4533 -0.1715 -0.0431
18133TIP3    H175890   1.247   4.110  11.764  2.1342 -1.4709  0.6128
18133TIP3    H275891   1.117   4.060  11.823 -1.5175  2.6985 -3.1067
18134TIP3   OH275892   4.252   2.097  14.325  0.0165  0.1155  0.6343
18134TIP3    H175893   4.174   2.043  14.341  0.4658 -0.0172  2.7814
18134TIP3    H275894   4.219   2.187  14.323 -0.6018 -0.0977 -1.9579
18135TIP3   OH275895   2.323   4.058  14.420  0.0903 -0.6364  0.0886
18135TIP3    H175896   2.371   4.108  14.354  0.0417 -0.1030  0.4527
18135TIP3    H275897   2.254   4.117  14.450 -1.5782 -1.7878 -1.2709
18136TIP3   OH275898   4.056   5.008  15.546 -0.0682 -0.2358  0.2315
18136TIP3    H175899   3.999   4.948  15.593  0.8724 -1.8349 -0.5701
18136TIP3    H275900   3.998   5.052  15.483 -0.7466 -0.4557  0.6927
18137TIP3   OH275901   0.652   5.845  16.057 -0.2471 -0.6331  0.0721
18137TIP3    H175902   0.584   5.888  16.109 -0.9871 -0.4623 -1.0045
18137TIP3    H275903   0.690   5.915  16.004  0.3368 -0.8466  0.2016
18138TIP3   OH275904   4.219   1.933   1.160 -0.1804  0.5052 -0.5193
18138TIP3    H175905   4.313   1.947   1.167 -0.3530  1.7425 -0.3799
18138TIP3    H275906   4.198   1.952   1.069 -0.4305  1.2244 -0.3191
18139TIP3   OH275907   5.626   3.334   0.395  0.9078 -0.1802 -0.8117
18139TIP3    H175908   5.660   3.258   0.348  1.2067 -0.4274 -0.1914
18139TIP3    H275909   5.694   3.401   0.387  0.1537  0.4659 -2.3982
18140TIP3   OH275910   5.524   2.604   3.611 -0.2299 -0.1198 -0.1793
18140TIP3    H175911   5.511   2.615   3.706 -1.2277 -0.8196 -0.2157
18140TIP3    H275912   5.614   2.630   3.596 -0.3529  0.9764  0.8161
18141TIP3   OH275913   4.244   4.512  14.702  0.2752  0.5501 -0.3323
18141TIP3    H175914   4.234   4.417  14.691  0.5110  0.4195  0.5223
18141TIP3    H275915   4.175   4.536  14.765 -0.1829  1.0529 -1.0128
18142TIP3   OH275916   1.609   0.430   5.133  0.7534  0.4670  0.3172
18142TIP3    H175917   1.653   0.420   5.049  3.2986 -0.0504  1.5796
18142TIP3    H275918   1.550   0.503   5.122  2.5444  1.7498 -1.3749
18143TIP3   OH275919   4.963   3.548   6.356 -0.5625  0.1605  0.0243
18143TIP3    H175920   4.903   3.484   6.394 -0.3967  0.6689  1.2193
18143TIP3    H275921   4.993   3.599   6.432  1.1785  0.0827 -0.5701
18144TIP3   OH275922   5.443   4.148   3.131 -0.1310  0.5217  0.0254
18144TIP3    H175923   5.458   4.064   3.089  1.0960 -0.0543  1.5092
18144TIP3    H275924   5.459   4.132   3.224 -1.7739  1.9624  0.6212
18145TIP3   OH275925   4.106   3.575   0.128  0.4603  0.2461  0.1097
18145TIP3    H175926   4.110   3.670   0.118  1.2300  0.4301  1.8102
18145TIP3    H275927   4.051   3.561   0.205  1.4401 -0.6023  0.6837
18146TIP3   OH275928   5.798   1.984  13.519 -0.0161  0.3924 -0.5143
18146TIP3    H175929   5.767   1.934  13.444 -1.4849 -0.8530  0.8462
18146TIP3    H275930   5.863   1.927  13.561 -1.5020 -0.3274  0.8936
18147TIP3   OH275931   1.551   5.013   0.331  0.5133  0.1721 -0.2204
18147TIP3    H175932   1.576   5.102   0.357 -0.1017  0.0885  0.6647
18147TIP3    H275933   1.616   4.957   0.374 -1.0935 -0.0469  2.0971
18148TIP3   OH275934   0.645   1.884   4.405  0.0910  0.7205 -0.3996
18148TIP3    H175935   0.646   1.946   4.478  3.2473 -0.5313  0.7805
18148TIP3    H275936   0.674   1.935   4.329  2.3421  0.8642  0.4931
18149TIP3   OH275937   5.224   3.076  10.538  0.3931  0.1435 -0.4099
18149TIP3    H175938   5.307   3.070  10.490  2.1305 -0.1949  2.3898
18149TIP3    H275939   5.172   3.003  10.504  1.3226  0.1787 -2.0295
18150TIP3   OH275940   2.251   6.381   1.714  0.4088 -0.1708 -0.5265
18150TIP3    H175941   2.167   6.425   1.730  0.8444  0.5064 -0.0509
18150TIP3    H275942   2.288   6.369   1.801 -0.3881 -2.9347 -0.4780
18151TIP3   OH275943   1.857   0.112  17.030 -0.4394  0.1066 -0.1451
18151TIP3    H175944   1.780   0.062  17.001  1.6099 -2.9535 -0.7303
18151TIP3    H275945   1.912   0.119  16.951  0.4175  1.2477  0.5244
18152TIP3   OH275946   4.513   2.466  12.606 -0.0886  0.3367  0.2567
18152TIP3    H175947   4.504   2.400  12.538 -0.8565  1.0097 -0.3096
18152TIP3    H275948   4.445   2.531  12.586 -0.4054  0.4948  1.7174
18153TIP3   OH275949   6.828   4.579  12.708 -0.1720  0.7682 -0.0932
18153TIP3    H175950   6.748   4.631  12.698 -1.6389 -0.6325  2.8931
18153TIP3    H275951   6.887   4.635  12.758 -0.4484  0.7820  0.2243
18154TIP3   OH275952   4.114   1.201  16.593  0.5953 -0.0583 -0.5199
18154TIP3    H175953   4.089   1.244  16.674 -0.7337  0.3965 -1.1379
18154TIP3    H275954   4.092   1.109  16.606  2.7293 -0.4871  0.5211
18155TIP3   OH275955   2.259   5.305  15.327  0.5369 -0.2870 -0.2980
18155TIP3    H175956   2.166   5.302  15.306  0.0401  1.3603  1.3426
18155TIP3    H275957   2.300   5.247  15.263 -1.4463 -0.0512 -1.8954
18156TIP3   OH275958   6.043   3.204   2.317 -0.1799  0.3003 -0.4265
18156TIP3    H175959   6.120   3.157   2.349  0.6236  1.6751 -0.2470
18156TIP3    H275960   5.976   3.187   2.382  0.2744 -0.1086 -0.0584
18157TIP3   OH275961   5.404   6.279  17.186 -0.2375 -0.0163 -0.7438
18157TIP3    H175962   5.346   6.355  17.183  3.0617  2.7799 -2.5294
18157TIP3    H275963   5.460   6.295  17.263  1.5514  0.4027 -2.0490
18158TIP3   OH275964   3.887   0.849  10.968  0.7255  0.0159  0.0021
18158TIP3    H175965   3.823   0.878  11.033  1.0367 -0.5930  0.5945
18158TIP3    H275966   3.933   0.929  10.943  0.0678  0.3802 -0.0616
18159TIP3   OH275967   0.405   1.021  13.147  0.2415  0.0419 -0.0029
18159TIP3    H175968   0.413   1.115  13.159  0.3278  0.1298 -0.7199
18159TIP3    H275969   0.397   0.986  13.236  2.3434  0.5192  0.4125
18160TIP3   OH275970   2.021   3.706  12.454 -0.1271  0.7707  0.5943
18160TIP3    H175971   2.075   3.638  12.413  0.4908  0.6583  1.5732
18160TIP3    H275972   2.028   3.689  12.548 -0.6593  1.6720  0.8035
18161TIP3   OH275973   2.475   4.629   1.171 -0.4471  0.2120 -0.0066
18161TIP3    H175974   2.405   4.564   1.167  1.1440 -1.5254 -2.2103
18161TIP3    H275975   2.513   4.629   1.083  1.2671  2.3013  0.6371
18162TIP3   OH275976   1.227   3.338  11.230 -0.4495 -0.3141 -0.1098
18162TIP3    H175977   1.276   3.416  11.203  1.5299 -0.7928  1.7896
18162TIP3    H275978   1.264   3.315  11.315 -2.7103 -1.9039  0.5295
18163TIP3   OH275979   0.066   0.636  10.902 -0.2650 -0.0648 -0.2175
18163TIP3    H175980   0.044   0.722  10.865 -0.5073  0.4688  1.1113
18163TIP3    H275981   0.010   0.628  10.979  1.2483 -0.4688  0.9016
18164TIP3   OH275982   3.181   0.404  16.157  0.1216  0.0363 -0.3111
18164TIP3    H175983   3.111   0.377  16.217  0.2073  0.4628 -0.0171
18164TIP3    H275984   3.136   0.453  16.089  0.1778  0.6478  0.0868
18165TIP3   OH275985   0.841   0.343  14.599 -0.4545 -0.2428  0.0077
18165TIP3    H175986   0.767   0.293  14.565  0.6139 -2.0303  0.1653
18165TIP3    H275987   0.875   0.390  14.523 -0.9050 -0.5173 -0.3701
18166TIP3   OH275988   2.666   0.999  11.451  0.3885  0.1848  0.3374
18166TIP3    H175989   2.761   0.994  11.439  0.4506  1.6092  0.0181
18166TIP3    H275990   2.654   1.057  11.526 -0.2283 -0.6881  0.9318
18167TIP3   OH275991   1.643   1.459  15.522 -0.0415 -0.0966 -0.4100
18167TIP3    H175992   1.696   1.483  15.598 -2.5588  0.6347  1.2127
18167TIP3    H275993   1.664   1.525  15.456 -1.3097  2.2649  1.3835
18168TIP3   OH275994   3.878   2.637   5.037 -0.6069 -0.0992 -0.2643
18168TIP3    H175995   3.869   2.685   4.955  1.8776  0.7198 -0.1428
18168TIP3    H275996   3.967   2.657   5.067 -0.7835 -1.8727  1.6781
18169TIP3   OH275997   5.122   3.693   3.981 -0.1685 -0.2888 -0.6268
18169TIP3    H175998   5.143   3.614   4.032  0.8565 -0.2949 -1.0446
18169TIP3    H275999   5.200   3.748   3.989 -0.4670  0.2248 -1.2144
18170TIP3   OH276000   4.743   5.883  11.553 -0.2886  0.2510 -0.4277
18170TIP3    H176001   4.827   5.875  11.598  0.3756 -0.8636 -1.7726
18170TIP3    H276002   4.686   5.820  11.598 -0.0156  0.0896 -0.3008
18171TIP3   OH276003   0.507   1.146   0.840  0.1057 -0.6063  0.0854
18171TIP3    H176004   0.434   1.179   0.787  0.1156 -0.3275  0.2382
18171TIP3    H276005   0.467   1.125   0.924 -0.1273 -2.1500 -0.3907
18172TIP3   OH276006   5.014   0.503   0.314  0.2040 -0.0091 -0.0871
18172TIP3    H176007   5.060   0.420   0.323 -0.4258 -0.4123 -0.5334
18172TIP3    H276008   4.991   0.528   0.404  1.7880  0.5010  0.2103
18173TIP3   OH276009   1.496   2.565   6.347  0.2056  0.0005 -0.2065
18173TIP3    H176010   1.424   2.542   6.405 -0.9512  0.0865 -1.5364
18173TIP3    H276011   1.511   2.486   6.295  0.8983  0.0640 -0.1075
18174TIP3   OH276012   4.057   1.739  14.205 -0.2511  0.2445  0.4730
18174TIP3    H176013   4.078   1.659  14.253  2.7908  0.0889 -0.8992
18174TIP3    H276014   4.052   1.807  14.273 -0.1373 -0.6411  1.3895
18175TIP3   OH276015   0.840   2.323   4.535 -0.1749  0.0780 -0.0630
18175TIP3    H176016   0.929   2.290   4.535 -0.0296  0.4470  0.6724
18175TIP3    H276017   0.821   2.341   4.627 -0.4372  1.5319 -0.3776
18176TIP3   OH276018   1.728   0.534   2.636 -0.2960 -0.1296  0.5025
18176TIP3    H176019   1.762   0.623   2.630  0.6823 -0.5753 -2.1095
18176TIP3    H276020   1.648   0.541   2.688 -1.0343  2.5134 -0.8641
18177TIP3   OH276021   4.136   2.527   3.106 -0.1696 -0.3079  0.4547
18177TIP3    H176022   4.051   2.482   3.114  1.1040 -3.2950 -1.1521
18177TIP3    H276023   4.175   2.520   3.193 -0.6476 -0.9688  0.6277
18178TIP3   OH276024   0.908   5.367   3.649  0.2504  0.1803  0.0308
18178TIP3    H176025   0.888   5.393   3.559 -0.0718  2.7545  0.7670
18178TIP3    H276026   1.003   5.377   3.657  0.4437 -1.1777 -0.3084
18179TIP3   OH276027   2.746   2.591   4.189 -0.0066  0.3489 -0.4507
18179TIP3    H176028   2.826   2.643   4.196 -0.7464  1.2768  2.8546
18179TIP3    H276029   2.731   2.558   4.278 -2.4125 -1.1824 -1.3413
18180TIP3   OH276030   3.679   6.701   3.396 -0.2128 -0.3518  0.1143
18180TIP3    H176031   3.617   6.766   3.362  0.2695  1.4671  2.4798
18180TIP3    H276032   3.624   6.634   3.437 -0.6555 -0.2503 -0.2976
18181TIP3   OH276033   2.664   1.385   4.252 -0.0104 -0.0581 -0.1263
18181TIP3    H176034   2.613   1.337   4.317  1.3186 -0.5371  0.5995
18181TIP3    H276035   2.740   1.330   4.236  0.3186  0.6549 -1.1623
18182TIP3   OH276036   1.933   2.106   3.219 -0.2314 -0.6458  0.1643
18182TIP3    H176037   1.960   2.054   3.144  3.4164  1.6340 -0.3282
18182TIP3    H276038   1.999   2.090   3.286  0.0593  1.9228  0.6021
18183TIP3   OH276039   3.820   5.013  13.565 -0.8537  0.4134 -0.3196
18183TIP3    H176040   3.782   5.100  13.578  1.3758  1.4288 -0.1404
18183TIP3    H276041   3.779   4.958  13.631 -2.1499  1.3569 -0.3057
18184TIP3   OH276042   0.096   5.598  15.748 -0.5339 -0.3175 -0.3929
18184TIP3    H176043   0.057   5.621  15.832 -1.1947 -0.3546 -0.6776
18184TIP3    H276044   0.090   5.502  15.744 -1.6437 -0.2462 -0.9946
18185TIP3   OH276045   0.456   2.662   3.093 -0.0536 -0.2942  0.6737
18185TIP3    H176046   0.419   2.734   3.145 -0.7949 -0.3600  0.2493
18185TIP3    H276047   0.480   2.702   3.010 -1.3301 -0.7069  0.0872
18186TIP3   OH276048   2.139   5.148  16.936  0.3544 -0.2723 -0.2765
18186TIP3    H176049   2.058   5.127  16.982  1.3242  0.1398  1.7808
18186TIP3    H276050   2.207   5.139  17.003  1.5783  3.1113 -0.8455
18187TIP3   OH276051   1.463   4.771   2.333  0.1427  0.4100  0.2997
18187TIP3    H176052   1.482   4.810   2.418 -0.4555  1.2145  0.0661
18187TIP3    H276053   1.406   4.697   2.353 -1.1227  1.4144  0.4922
18188TIP3   OH276054   4.524   5.310   1.786 -0.0455  0.8145  0.0401
18188TIP3    H176055   4.590   5.259   1.833  0.7425  0.5610 -1.2855
18188TIP3    H276056   4.487   5.368   1.852  0.7249  0.1775  1.0567
18189TIP3   OH276057   4.820   3.530   0.836 -0.4997 -0.1240  0.3382
18189TIP3    H176058   4.751   3.468   0.815  0.1778 -0.3693 -1.2922
18189TIP3    H276059   4.835   3.579   0.755  0.2281  0.9312  1.0745
18190TIP3   OH276060   5.619   3.492   4.837  0.2034  0.0139  0.5683
18190TIP3    H176061   5.655   3.499   4.749  1.0293 -0.7580  0.8322
18190TIP3    H276062   5.524   3.497   4.825  0.3151  0.0008 -0.3564
18191TIP3   OH276063   2.663   2.378   5.576  0.0841 -0.5693  0.2839
18191TIP3    H176064   2.720   2.328   5.517  1.8285 -1.1513  2.3492
18191TIP3    H276065   2.641   2.317   5.646  0.5268  0.9032  1.7810
18192TIP3   OH276066   4.998   5.369  16.232  0.1971 -0.3487  0.2468
18192TIP3    H176067   5.093   5.357  16.229 -0.0445 -2.4834 -0.5957
18192TIP3    H276068   4.963   5.280  16.228 -1.8451  0.3918  0.8070
18193TIP3   OH276069   6.481   1.467   6.010 -0.4237  0.1596  0.2645
18193TIP3    H176070   6.410   1.447   6.070 -0.7890 -0.2474 -0.2968
18193TIP3    H276071   6.551   1.407   6.034 -0.9397 -0.7223 -0.3683
18194TIP3   OH276072   2.830   0.987   2.357  0.4032 -0.1480  0.3001
18194TIP3    H176073   2.831   0.963   2.450  2.4340 -0.6145  0.2134
18194TIP3    H276074   2.903   1.049   2.348  0.0503  0.1121 -0.9368
18195TIP3   OH276075   4.754   6.204   0.063  0.2616 -0.0901  0.1539
18195TIP3    H176076   4.788   6.179  -0.023  1.1009 -1.9103  0.9568
18195TIP3    H276077   4.676   6.149   0.074  0.2196  0.0566  0.6007
18196TIP3   OH276078   5.219   6.612   3.078  0.2979 -0.2850 -0.0506
18196TIP3    H176079   5.208   6.660   3.160  2.1033  0.7163 -0.3397
18196TIP3    H276080   5.137   6.565   3.067 -1.6682  2.8328  0.1700
18197TIP3   OH276081   0.001   5.221   5.019  0.6600 -0.2330 -0.1839
18197TIP3    H176082   0.069   5.288   5.010  1.7993 -0.9352  2.3414
18197TIP3    H276083   0.049   5.140   5.035 -0.5408 -0.2720  4.9024
18198TIP3   OH276084   0.683   3.939   3.769 -0.8932  0.2620 -0.6967
18198TIP3    H176085   0.701   4.028   3.800  1.2569 -0.2511 -0.3582
18198TIP3    H276086   0.700   3.942   3.675  0.5889 -0.0933 -0.4626
18199TIP3   OH276087   1.505   6.174  11.278  0.3661 -0.3813 -0.4075
18199TIP3    H176088   1.448   6.245  11.307  0.6873 -0.2897 -0.0001
18199TIP3    H276089   1.551   6.211  11.202  0.0817 -0.3660 -0.5751
18200TIP3   OH276090   1.331   0.215  12.690  0.0019 -0.1846  0.3975
18200TIP3    H176091   1.256   0.237  12.746 -0.2259 -1.7101  0.7571
18200TIP3    H276092   1.293   0.197  12.605  0.1925  0.8454  0.0863
18201TIP3   OH276093   3.265   6.810  14.817  0.2978  0.0499 -0.5899
18201TIP3    H176094   3.217   6.820  14.735  1.6140  1.8578 -1.2033
18201TIP3    H276095   3.353   6.781  14.791  1.0563  1.6635  0.0482
18202TIP3   OH276096   0.186   0.628  11.588  0.2975  0.1318  0.2572
18202TIP3    H176097   0.223   0.635  11.500 -2.4199 -2.7622 -1.2897
18202TIP3    H276098   0.199   0.537  11.613  2.0224  1.1073  3.5019
18203TIP3   OH276099   6.132   1.000   0.812  0.0179  0.5541  0.2276
18203TIP3    H176100   6.205   1.040   0.764 -0.9406  0.9896 -0.8948
18203TIP3    H276101   6.174   0.934   0.867  1.2430  0.6598 -0.5358
18204TIP3   OH276102   6.303   2.816   6.064  0.4408  0.5254 -0.1495
18204TIP3    H176103   6.349   2.818   6.148  0.6213  1.5075 -0.2529
18204TIP3    H276104   6.212   2.831   6.086  0.5348  1.1396 -0.1376
18205TIP3   OH276105   1.803   2.535  11.962 -0.7779  0.0628  0.6435
18205TIP3    H176106   1.729   2.585  11.928  0.0928  0.1603 -1.1863
18205TIP3    H276107   1.781   2.444  11.942 -0.1963  0.1326 -0.3440
18206TIP3   OH276108   3.163   3.928  12.776  0.2145  0.0266 -0.2068
18206TIP3    H176109   3.186   3.953  12.866 -2.1801  0.8748  0.2542
18206TIP3    H276110   3.075   3.963  12.763 -0.0940 -1.3294 -2.4024
18207TIP3   OH276111   1.250   2.371   1.262  0.2933 -0.4661  0.3815
18207TIP3    H176112   1.344   2.381   1.254  0.1899 -0.9998 -2.1846
18207TIP3    H276113   1.219   2.457   1.292  1.5426 -0.2575  1.1547
18208TIP3   OH276114   1.797   4.635  14.043 -0.6278 -0.0653  0.0968
18208TIP3    H176115   1.844   4.578  13.982 -0.2842 -0.6799  0.9173
18208TIP3    H276116   1.812   4.723  14.009 -1.4040 -0.4669 -1.3454
18209TIP3   OH276117   3.264   1.318  11.030 -0.4009 -0.3896 -0.3433
18209TIP3    H176118   3.242   1.312  11.123  0.5387  1.1614  0.0165
18209TIP3    H276119   3.178   1.318  10.986 -0.8330 -1.8823  0.4324
18210TIP3   OH276120   3.748   3.474  13.726  1.0071 -0.6627 -0.1757
18210TIP3    H176121   3.654   3.463  13.743  0.8357  0.8090 -0.0645
18210TIP3    H276122   3.777   3.386  13.700 -0.2978 -1.2504  0.2244
18211TIP3   OH276123   0.187   1.651   1.748  0.6692 -0.2421 -0.7441
18211TIP3    H176124   0.117   1.628   1.687  0.5287 -1.6332 -0.0791
18211TIP3    H276125   0.184   1.747   1.753  0.5146 -0.1043 -2.6933
18212TIP3   OH276126   0.442   3.754   2.383 -0.0055  0.2494  0.3694
18212TIP3    H176127   0.529   3.732   2.418  0.5494  0.1052 -1.0110
18212TIP3    H276128   0.429   3.846   2.406  0.7962  0.4473  0.0709
18213TIP3   OH276129   3.041   5.716  12.204 -0.4463  0.5824  0.1975
18213TIP3    H176130   2.976   5.738  12.272  0.2878  3.0560  0.2218
18213TIP3    H276131   3.080   5.634  12.234 -1.4535  0.6332  1.8004
18214TIP3   OH276132   6.142   5.662  13.333  0.1551  0.4945  0.3291
18214TIP3    H176133   6.171   5.745  13.295 -1.4561  0.9339 -0.0254
18214TIP3    H276134   6.167   5.668  13.425  1.3621  0.7372 -0.0022
18215TIP3   OH276135   6.441   6.322   1.822 -0.0151  0.0990  0.2963
18215TIP3    H176136   6.515   6.366   1.863  1.7698 -2.9754  0.6937
18215TIP3    H276137   6.437   6.359   1.734  0.3676  2.0750  1.0596
18216TIP3   OH276138   3.858   6.567  12.025 -0.4111  0.3564  0.1570
18216TIP3    H176139   3.919   6.494  12.031 -2.0783 -1.1675 -0.5455
18216TIP3    H276140   3.823   6.576  12.114 -0.8390 -0.2927  0.0591
18217TIP3   OH276141   3.209   4.253   5.148  0.5964  0.0876  0.2227
18217TIP3    H176142   3.182   4.323   5.088 -1.4053 -1.1674 -0.4412
18217TIP3    H276143   3.152   4.263   5.224  1.5750  0.2826  0.9510
18218TIP3   OH276144   2.706   4.115   4.342  0.2227 -0.4487  0.1345
18218TIP3    H176145   2.781   4.117   4.282 -0.4739  2.4603 -0.8137
18218TIP3    H276146   2.744   4.118   4.429  1.2176 -0.9959 -0.2644
18219TIP3   OH276147   4.676   4.443  11.398  0.5147 -0.0036 -0.1520
18219TIP3    H176148   4.735   4.420  11.326  0.7725  1.9421 -0.6143
18219TIP3    H276149   4.694   4.378  11.466  3.0857  0.4217 -0.3344
18220TIP3   OH276150   5.479   5.933   0.953 -0.4971 -0.1746 -0.2938
18220TIP3    H176151   5.489   5.871   1.025  1.3120 -0.5068 -0.7640
18220TIP3    H276152   5.409   5.897   0.899 -1.6630 -0.0793  1.1170
18221TIP3   OH276153   2.960   5.809   5.008 -0.0046 -0.6549 -0.2000
18221TIP3    H176154   3.020   5.843   4.940 -1.5568  0.4388 -1.1004
18221TIP3    H276155   3.001   5.728   5.037  1.2752 -0.6071 -1.6800
18222TIP3   OH276156   3.305   4.330   4.442 -0.0331 -0.5200  0.2426
18222TIP3    H176157   3.281   4.344   4.350  0.8802 -1.8544 -0.2305
18222TIP3    H276158   3.226   4.295   4.482 -1.0673  1.8991  0.4851
18223TIP3   OH276159   1.036   3.987   2.950 -0.1726  0.3349 -0.1185
18223TIP3    H176160   1.120   4.001   2.994  1.0221  0.0913 -2.1865
18223TIP3    H276161   0.997   3.914   2.998  1.3729 -0.3593  0.1723
18224TIP3   OH276162   4.490   3.259   1.226  0.1804  0.3803 -0.1196
18224TIP3    H176163   4.550   3.204   1.277  0.8619  0.4968 -0.7916
18224TIP3    H276164   4.414   3.203   1.210  1.4528 -0.8862 -2.0264
18225TIP3   OH276165   1.410   2.497   5.188 -0.2908  1.0202  0.7248
18225TIP3    H176166   1.400   2.441   5.264 -2.7155  1.3064  0.7123
18225TIP3    H276167   1.331   2.481   5.136  0.9211  1.3972 -1.3582
18226TIP3   OH276168   2.629   2.895  13.653  0.0710  0.0166  0.1874
18226TIP3    H176169   2.560   2.961  13.647  0.2721  0.2237  0.1313
18226TIP3    H276170   2.710   2.946  13.651  0.2368 -0.2630 -0.2624
18227TIP3   OH276171   3.849   0.199  14.746 -0.3149  0.1310 -0.8858
18227TIP3    H176172   3.880   0.114  14.714  1.6874  0.1541  0.7756
18227TIP3    H276173   3.829   0.248  14.667 -0.8046 -1.6207 -1.9065
18228TIP3   OH276174   4.346   5.929  13.487 -0.2964  0.5984 -0.1769
18228TIP3    H176175   4.331   6.022  13.476 -1.1078  0.4816 -0.0926
18228TIP3    H276176   4.260   5.889  13.475  0.2477 -0.2584 -1.5659
18229TIP3   OH276177   2.830   4.930  16.027  0.0455 -0.3304  0.0914
18229TIP3    H176178   2.876   4.861  16.075  1.3499  0.4703  0.0342
18229TIP3    H276179   2.896   4.966  15.968 -1.0679 -0.1421 -1.0825
18230TIP3   OH276180   5.252   2.321  15.306  0.0973  0.1762  0.0027
18230TIP3    H176181   5.288   2.318  15.395 -0.6387  1.5819  0.3871
18230TIP3    H276182   5.254   2.231  15.276  0.7820 -0.2620  1.2816
18231TIP3   OH276183   0.503   4.680   5.329 -0.3807 -0.2213  0.2414
18231TIP3    H176184   0.421   4.689   5.378  0.2872 -1.3889  1.6569
18231TIP3    H276185   0.480   4.701   5.239 -1.8260  1.3022  0.9126
18232TIP3   OH276186   6.261   5.150  15.172  0.0363 -0.3075 -0.0887
18232TIP3    H176187   6.186   5.137  15.230  0.8440 -3.5693  0.3994
18232TIP3    H276188   6.231   5.121  15.086  0.5669 -1.1411 -0.0015
18233TIP3   OH276189   1.643   3.075   1.168 -0.7269 -0.1522 -0.6275
18233TIP3    H176190   1.618   3.155   1.121 -3.4761 -1.1539 -1.0745
18233TIP3    H276191   1.635   3.098   1.260  0.6823  0.6760 -0.6876
18234TIP3   OH276192   1.601   1.807   3.001 -0.5891  0.1854 -0.6370
18234TIP3    H176193   1.639   1.759   2.927  0.0530  0.4959 -0.5177
18234TIP3    H276194   1.596   1.742   3.071 -2.1132 -0.3713 -1.2256
18235TIP3   OH276195   1.529   4.666  14.904  0.1816 -0.7021 -0.3428
18235TIP3    H176196   1.560   4.592  14.851  0.0431 -1.8073  1.0568
18235TIP3    H276197   1.582   4.740  14.875 -0.2771 -1.0965 -2.4196
18236TIP3   OH276198   3.307   0.955   1.102 -0.5374  0.2218 -0.2290
18236TIP3    H176199   3.388   0.909   1.084 -0.2676  0.6974 -0.2541
18236TIP3    H276200   3.264   0.963   1.017 -0.2178  0.6876 -0.3537
18237TIP3   OH276201   6.202   4.071  15.582  0.6229  0.0628  0.0353
18237TIP3    H176202   6.143   4.146  15.579 -1.3244 -1.3215 -3.7811
18237TIP3    H276203   6.287   4.106  15.556 -0.2398  1.0330 -1.6428
18238TIP3   OH276204   1.787   1.315  14.533 -0.7579 -0.3439 -0.6058
18238TIP3    H176205   1.856   1.252  14.553  0.9570  1.0460 -1.7078
18238TIP3    H276206   1.777   1.310  14.438 -1.6601 -0.0260 -0.5320
18239TIP3   OH276207   3.211   6.724  15.567  0.4502 -0.0436  0.2688
18239TIP3    H176208   3.203   6.630  15.553 -0.3198 -0.1097  1.0390
18239TIP3    H276209   3.141   6.762  15.515  1.1923  0.1659 -0.5880
18240TIP3   OH276210   5.616   6.412  13.692  0.2232 -0.4276  0.0031
18240TIP3    H176211   5.631   6.415  13.597  3.3862 -2.7252  0.2734
18240TIP3    H276212   5.529   6.373  13.701 -0.3913  0.3836 -1.9408
18241TIP3   OH276213   4.379   5.545  13.485  0.6230 -0.0179 -0.0649
18241TIP3    H176214   4.294   5.517  13.453  0.8845 -0.7618 -0.1399
18241TIP3    H276215   4.433   5.555  13.406  0.9515 -0.7757  0.0485
18242TIP3   OH276216   2.826   0.282  11.542  0.2337  0.1193  0.3768
18242TIP3    H176217   2.885   0.347  11.580  0.3809  0.3432 -0.2244
18242TIP3    H276218   2.876   0.243  11.470  1.1387 -2.4796  2.2484
18243TIP3   OH276219   4.925   3.460   2.849  0.4015 -0.0289 -0.3156
18243TIP3    H176220   4.865   3.447   2.776  0.5308 -0.8908 -0.2735
18243TIP3    H276221   4.934   3.374   2.889 -0.6670  0.6412  1.5030
18244TIP3   OH276222   6.424   3.057  14.657 -0.1899 -0.4489 -0.2322
18244TIP3    H176223   6.447   3.072  14.749  0.5902 -1.4098 -0.2547
18244TIP3    H276224   6.475   2.980  14.632  0.2990  0.3344 -1.7460
18245TIP3   OH276225   0.744   5.724   0.903  0.2076  0.2942 -0.3212
18245TIP3    H176226   0.829   5.764   0.919 -0.2565  0.6229  1.6231
18245TIP3    H276227   0.740   5.713   0.809  3.3422 -1.8461 -0.3507
18246TIP3   OH276228   5.841   2.339  11.147  0.5118 -0.3280  0.0746
18246TIP3    H176229   5.873   2.366  11.233  0.0222  0.3566  0.0499
18246TIP3    H276230   5.886   2.256  11.129  0.2916 -0.7026  1.1832
18247TIP3   OH276231   0.983   2.161   5.026 -0.6445  0.1375 -0.6991
18247TIP3    H176232   0.981   2.249   5.064 -0.5289  0.1563 -0.7360
18247TIP3    H276233   1.062   2.121   5.062 -1.0924 -0.2256 -0.0778
18248TIP3   OH276234   4.221   4.794   5.520  0.3436  0.0110  0.6305
18248TIP3    H176235   4.134   4.761   5.498  0.4837  0.4836 -0.7467
18248TIP3    H276236   4.204   4.871   5.574 -0.1474  0.7050 -0.4808
18249TIP3   OH276237   0.084   0.391  11.079  0.9365 -0.0305  0.8147
18249TIP3    H176238   0.048   0.324  11.021  1.6671  0.5685 -0.3642
18249TIP3    H276239   0.008   0.433  11.118  0.4547 -1.8788  2.0218
18250TIP3   OH276240   6.582   6.026   5.762 -0.3867 -0.1305 -0.1390
18250TIP3    H176241   6.613   6.107   5.722  0.0576  0.5444  1.5005
18250TIP3    H276242   6.613   6.030   5.852 -1.2694 -1.6378  0.2669
18251TIP3   OH276243   2.861   1.776  14.316 -0.0983 -0.7162 -0.4849
18251TIP3    H176244   2.941   1.725  14.304  0.8958 -0.0564  2.5148
18251TIP3    H276245   2.790   1.715  14.296  1.1108 -2.4922  0.4307
18252TIP3   OH276246   3.210   2.883  12.338  0.5451 -0.5045 -0.2478
18252TIP3    H176247   3.304   2.891  12.324  0.9840 -2.1904  1.3923
18252TIP3    H276248   3.190   2.791  12.319 -0.7501 -0.2137 -0.4099
18253TIP3   OH276249   0.458   6.320   1.219 -0.4291 -0.1521  0.1691
18253TIP3    H176250   0.456   6.337   1.313  2.9750 -2.2582  0.8293
18253TIP3    H276251   0.418   6.234   1.209 -1.8382  0.5500 -0.5594
18254TIP3   OH276252   5.961   1.623   2.196  0.4904  0.1438  0.0456
18254TIP3    H176253   5.924   1.691   2.140 -0.5190  0.2981  0.8862
18254TIP3    H276254   5.960   1.544   2.141 -1.0373  0.1521  0.0244
18255TIP3   OH276255   2.482   6.239  15.814  0.3738 -0.4647  0.3254
18255TIP3    H176256   2.411   6.238  15.878  0.7526 -1.3377  0.7448
18255TIP3    H276257   2.562   6.249  15.866  0.5144  1.8937 -0.2237
18256TIP3   OH276258   4.092   6.464   3.363  0.2553  0.5167  0.2758
18256TIP3    H176259   4.063   6.489   3.275  0.0310  2.5128  0.8743
18256TIP3    H276260   4.055   6.531   3.420  0.3765 -0.7566  1.9148
18257TIP3   OH276261   0.305   5.806   5.329  0.0803 -0.4654 -0.1025
18257TIP3    H176262   0.339   5.755   5.255 -1.9746 -2.5991  0.2921
18257TIP3    H276263   0.378   5.861   5.356  1.6912 -1.4859 -2.0995
18258TIP3   OH276264   1.394   4.565   5.960 -0.0851  0.2553  0.7651
18258TIP3    H176265   1.338   4.490   5.978  1.4814 -1.0968  0.2786
18258TIP3    H276266   1.364   4.597   5.875 -0.3898 -0.1922  0.7004
18259TIP3   OH276267   0.797   2.320   2.168 -0.2132  0.1196 -0.0816
18259TIP3    H176268   0.841   2.249   2.122  0.7998  0.9722 -0.4697
18259TIP3    H276269   0.727   2.277   2.217  1.8351 -1.4622  1.6216
18260TIP3   OH276270   3.477   1.938  12.765 -0.2911  0.0492 -0.1739
18260TIP3    H176271   3.541   1.940  12.693 -0.0248  0.8199  0.0806
18260TIP3    H276272   3.485   2.023  12.807  0.2350 -0.7394  1.3784
18261TIP3   OH276273   4.687   5.688   0.521 -0.6359  0.2571 -0.4123
18261TIP3    H176274   4.637   5.724   0.594 -1.6407 -0.8441 -0.5336
18261TIP3    H276275   4.741   5.619   0.560  1.9822  2.3590 -0.0107
18262TIP3   OH276276   4.812   4.970  12.533  0.4592  0.4791 -0.1999
18262TIP3    H176277   4.784   4.999  12.620 -0.9387 -1.1753 -0.0519
18262TIP3    H276278   4.772   4.884  12.522  2.6909 -0.4739 -1.4806
18263TIP3   OH276279   6.712   0.086   2.308 -0.2195 -0.0113 -0.3284
18263TIP3    H176280   6.695   0.126   2.394 -1.3971 -0.8598 -0.1307
18263TIP3    H276281   6.688   0.154   2.246 -0.4023  0.2426  0.0128
18264TIP3   OH276282   5.739   1.649   2.369 -0.0936 -0.6797 -0.3300
18264TIP3    H176283   5.769   1.613   2.453 -0.7033 -0.3230  0.0512
18264TIP3    H276284   5.814   1.640   2.310  0.9065  0.5627  0.6918
18265TIP3   OH276285   2.109   0.043  15.151  0.2322 -0.3251 -0.5572
18265TIP3    H176286   2.191   0.079  15.118  0.6520  0.1660  0.9457
18265TIP3    H276287   2.065   0.116  15.194 -1.2442 -0.4642 -1.7549
18266TIP3   OH276288   2.229   5.941   4.364 -0.0147  0.1113  0.0460
18266TIP3    H176289   2.174   5.923   4.441 -1.1595  2.2144 -0.2136
18266TIP3    H276290   2.174   5.918   4.289  0.2200  0.3296 -0.1928
18267TIP3   OH276291   0.977   2.232   2.413 -0.5211  0.4586 -0.0181
18267TIP3    H176292   1.056   2.286   2.412 -0.8362  0.9826  1.2313
18267TIP3    H276293   0.905   2.295   2.421 -1.1915  0.0747 -2.3505
18268TIP3   OH276294   2.670   1.160  11.667 -0.3925  0.0835  0.6553
18268TIP3    H176295   2.760   1.179  11.694 -0.7354  0.3390  1.6652
18268TIP3    H276296   2.630   1.246  11.653 -0.5146 -0.0259  0.3288
18269TIP3   OH276297   1.881   2.753   5.363  0.0693 -0.0711  0.4491
18269TIP3    H176298   1.823   2.779   5.290 -0.3263  1.1865  1.1760
18269TIP3    H276299   1.963   2.797   5.345  0.4253 -0.8696  0.0635
18270TIP3   OH276300   6.535   1.131  13.182 -0.7315  0.3489  0.2625
18270TIP3    H176301   6.505   1.200  13.241 -2.9005  0.0982 -0.4725
18270TIP3    H276302   6.508   1.050  13.223  0.5234 -0.0124  0.4105
18271TIP3   OH276303   5.344   4.621  13.567 -0.0478 -0.0822 -0.5499
18271TIP3    H176304   5.402   4.697  13.579  0.8134 -0.9139  0.7238
18271TIP3    H276305   5.292   4.644  13.490 -1.8606  3.0886  1.3623
18272TIP3   OH276306   6.728   6.562  12.572 -0.1566  0.3823  0.6820
18272TIP3    H176307   6.705   6.483  12.622 -1.4619  0.3158  0.0197
18272TIP3    H276308   6.775   6.529  12.496 -1.0976  0.1834  0.1726
18273TIP3   OH276309   1.339   5.441   4.000 -0.3917 -0.1724  0.4530
18273TIP3    H176310   1.259   5.391   4.015  1.4022 -2.6185  2.6737
18273TIP3    H276311   1.403   5.375   3.972  0.8321  1.7799 -1.7061
18274TIP3   OH276312   4.007   6.333   4.459 -0.1185 -0.4646 -0.0639
18274TIP3    H176313   4.059   6.388   4.402  1.4654  0.4862  2.1598
18274TIP3    H276314   3.926   6.382   4.473 -0.7087 -0.9101 -1.7671
18275TIP3   OH276315   3.488   6.772  13.460  0.0849 -0.7418  0.0812
18275TIP3    H176316   3.540   6.712  13.406 -0.3077 -1.6776  0.7158
18275TIP3    H276317   3.493   6.736  13.548 -1.2825 -0.6119  0.2385
18276TIP3   OH276318   2.776   0.333  13.627  0.1438  0.1453 -0.8944
18276TIP3    H176319   2.786   0.425  13.649  2.2454  0.3737 -2.4967
18276TIP3    H276320   2.829   0.287  13.694 -1.6589 -0.0385  0.4755
18277TIP3   OH276321   2.070   4.370   5.069 -0.7416 -0.5969 -0.8199
18277TIP3    H176322   2.003   4.325   5.017 -2.2972  0.5879  0.0473
18277TIP3    H276323   2.035   4.370   5.158  1.0668 -1.0954 -0.0756
18278TIP3   OH276324   2.196   1.897  13.917 -0.0744 -0.3527 -0.2780
18278TIP3    H176325   2.173   1.845  13.995  0.9107 -0.5256 -0.0910
18278TIP3    H276326   2.235   1.977  13.952 -0.5758  0.0325 -0.5878
18279TIP3   OH276327   3.641   5.780  13.948 -0.2138  0.2218 -0.1967
18279TIP3    H176328   3.558   5.791  13.995  0.2605  0.0715  0.6886
18279TIP3    H276329   3.699   5.846  13.985  0.4119 -0.4220 -0.0155
18280TIP3   OH276330   3.313   5.533   1.854  0.2664  0.0170  0.3029
18280TIP3    H176331   3.344   5.492   1.935  0.8477  2.5976  1.5017
18280TIP3    H276332   3.368   5.612   1.846 -0.9761  0.7349 -1.6509
18281TIP3   OH276333   2.057   0.839  16.860 -0.5879  0.0929  0.0107
18281TIP3    H176334   1.970   0.803  16.877 -0.2692 -0.2725  0.9160
18281TIP3    H276335   2.055   0.927  16.898 -0.5807  0.1033 -0.0126
18282TIP3   OH276336   4.914   3.386   3.566 -0.7276  0.1458  0.2890
18282TIP3    H176337   4.899   3.304   3.520  0.3945  0.6232 -0.9844
18282TIP3    H276338   4.826   3.415   3.592 -1.4702  0.0376 -1.9038
18283TIP3   OH276339   6.769   3.354  16.067 -0.0791 -0.4366  0.0230
18283TIP3    H176340   6.806   3.440  16.048 -0.0874 -0.4314  0.0303
18283TIP3    H276341   6.804   3.331  16.153 -0.2197 -0.3618  0.1010
18284TIP3   OH276342   1.184   3.013  12.262 -0.3038 -0.3185 -0.5699
18284TIP3    H176343   1.230   3.096  12.248  0.4603 -0.7755 -0.8550
18284TIP3    H276344   1.091   3.036  12.257 -0.1004  0.4510 -1.0184
18285TIP3   OH276345   5.176   3.883   2.703 -0.3297 -0.3283 -0.6145
18285TIP3    H176346   5.112   3.813   2.691  0.2411 -1.2415  1.3060
18285TIP3    H276347   5.147   3.952   2.644 -1.8494 -1.5413 -1.3578
18286TIP3   OH276348   5.538   3.789   5.448 -0.2684  0.0689  0.1010
18286TIP3    H176349   5.547   3.757   5.358 -0.1990 -0.9464  0.4539
18286TIP3    H276350   5.626   3.817   5.472 -0.2369  0.1145 -0.0657
18287TIP3   OH276351   0.242   1.464  16.057  0.0741 -0.6235 -0.2371
18287TIP3    H176352   0.296   1.400  16.103 -1.7405 -0.9938  1.5283
18287TIP3    H276353   0.188   1.412  15.997 -0.2655 -0.5893  0.0325
18288TIP3   OH276354   6.235   1.420  14.279 -0.1531  0.1995  0.0231
18288TIP3    H176355   6.253   1.514  14.290 -1.0515  0.6983 -2.1477
18288TIP3    H276356   6.319   1.382  14.254  0.0549  0.5958  0.1212
18289TIP3   OH276357   1.912   3.065   3.836  0.3599 -0.2487 -0.7102
18289TIP3    H176358   1.994   3.035   3.876 -1.3497  0.5984  4.2081
18289TIP3    H276359   1.926   3.159   3.822  0.3854 -0.1752 -0.2227
18290TIP3   OH276360   5.399   2.722  12.249 -0.4095 -0.2363  0.1659
18290TIP3    H176361   5.414   2.816  12.264  0.8546 -0.5109  0.7673
18290TIP3    H276362   5.350   2.693  12.326 -1.8996  0.1514 -0.5991
18291TIP3   OH276363   0.232   0.369   4.835  0.3206 -0.7732 -0.0509
18291TIP3    H176364   0.241   0.283   4.875 -0.6752 -1.3435 -0.9936
18291TIP3    H276365   0.238   0.431   4.908  1.8216 -1.5679  0.5479
18292TIP3   OH276366   3.204   3.938  13.447  0.8432 -0.5834  0.9284
18292TIP3    H176367   3.198   4.033  13.460  1.0062 -0.2999 -0.8767
18292TIP3    H276368   3.230   3.904  13.533  1.5052  1.0748  1.4195
18293TIP3   OH276369   6.572   6.068  12.587  0.1389 -0.1807  0.3320
18293TIP3    H176370   6.616   6.091  12.505 -1.5402  0.1649 -0.5146
18293TIP3    H276371   6.478   6.074  12.567 -0.3271  0.4912  2.4413
18294TIP3   OH276372   2.108   2.897   5.340 -0.3595  0.2313  0.1511
18294TIP3    H176373   2.107   2.972   5.280  0.9837  0.0278 -0.1718
18294TIP3    H276374   2.150   2.931   5.419  0.3148 -0.1940 -0.0234
18295TIP3   OH276375   3.372   0.470  12.054 -0.3097 -0.4197  0.2570
18295TIP3    H176376   3.302   0.537  12.054  0.9203  0.9890  2.3234
18295TIP3    H276377   3.327   0.389  12.030 -2.5886  0.5252  0.9767
18296TIP3   OH276378   5.475   6.367   1.456  0.0559  0.4570  0.2068
18296TIP3    H176379   5.566   6.376   1.430  0.2189 -2.6122 -0.7726
18296TIP3    H276380   5.425   6.410   1.386  0.7243  1.3113  0.2501
18297TIP3   OH276381   0.810   0.428   3.455 -0.0367 -0.1826  0.6624
18297TIP3    H176382   0.766   0.507   3.488 -0.6309 -0.4481  0.5162
18297TIP3    H276383   0.881   0.412   3.517  0.0620  0.4383  0.7194
18298TIP3   OH276384   2.087   5.052   1.847 -0.0178  0.2797  0.4342
18298TIP3    H176385   2.149   5.033   1.776 -1.1350 -0.5093 -0.3558
18298TIP3    H276386   2.143   5.074   1.922  1.1888  1.8850 -0.8514
18299TIP3   OH276387   2.476   1.475  15.243  0.0395  0.4445  0.0586
18299TIP3    H176388   2.527   1.538  15.194  0.2552 -0.8644 -1.4912
18299TIP3    H276389   2.534   1.445  15.313  0.5059  0.7464 -0.2000
18300TIP3   OH276390   6.164   5.926   2.084  0.1825  0.5423 -0.1721
18300TIP3    H176391   6.226   5.855   2.064 -0.7320 -0.2703 -0.2271
18300TIP3    H276392   6.177   5.943   2.177 -1.5567 -1.7595  0.6001
18301TIP3   OH276393   5.748   2.166   3.234  0.1367  0.5189  0.5399
18301TIP3    H176394   5.695   2.223   3.178 -1.0784 -1.0382  0.0088
18301TIP3    H276395   5.804   2.226   3.284 -1.7213  2.2414  0.7004
18302TIP3   OH276396   4.586   4.396  14.408  0.4372  0.8298  0.4122
18302TIP3    H176397   4.578   4.425  14.317  1.1880 -1.2615 -0.3788
18302TIP3    H276398   4.680   4.395  14.425  0.7490 -3.3448 -0.5010
18303TIP3   OH276399   6.196   0.691  14.501 -0.3392 -0.0079 -0.3961
18303TIP3    H176400   6.201   0.778  14.540 -2.1518 -0.3375  0.7013
18303TIP3    H276401   6.110   0.658  14.527 -0.3889 -1.4683 -2.1954
18304TIP3   OH276402   6.250   4.158  11.335 -0.3653  0.3359 -0.6063
18304TIP3    H176403   6.342   4.181  11.325  0.0691 -1.4206 -1.1159
18304TIP3    H276404   6.202   4.222  11.282  0.2987  2.7271  1.5006
18305TIP3   OH276405   6.575   4.303  16.454 -0.5134 -0.2320  0.7087
18305TIP3    H176406   6.666   4.324  16.476 -0.0130 -0.0326 -1.3475
18305TIP3    H276407   6.530   4.387  16.460 -0.1615  0.0175 -0.0027
18306TIP3   OH276408   2.036   0.946  10.744 -0.0621  1.0526  0.1062
18306TIP3    H176409   1.987   1.023  10.773 -0.2990  0.4248  1.4289
18306TIP3    H276410   1.974   0.874  10.753 -0.1061  0.7897 -1.8980
18307TIP3   OH276411   1.385   1.533   4.453  0.0818 -0.2108 -0.1296
18307TIP3    H176412   1.347   1.476   4.387 -0.2861 -1.0749  0.7870
18307TIP3    H276413   1.425   1.605   4.404 -1.7208  0.1290 -1.1841
18308TIP3   OH276414   1.581   1.863  11.968 -0.2033  0.1533  0.6227
18308TIP3    H176415   1.552   1.792  12.025 -1.7720  0.2485 -0.0152
18308TIP3    H276416   1.613   1.931  12.028  0.7218 -0.8257  1.2543
18309TIP3   OH276417   5.342   4.301   4.020 -0.2748 -0.0424 -0.4948
18309TIP3    H176418   5.344   4.384   3.974 -2.3708 -0.4073 -1.3410
18309TIP3    H276419   5.269   4.309   4.082  1.6113 -0.0679  1.8838
18310TIP3   OH276420   1.856   5.344  16.886  0.4045 -0.5148 -0.0277
18310TIP3    H176421   1.917   5.281  16.925 -0.8269 -1.3048  0.7078
18310TIP3    H276422   1.798   5.368  16.958  1.5344  2.4034  0.0149
18311TIP3   OH276423   3.986   6.052   4.857  1.1604  0.3134 -0.6500
18311TIP3    H176424   3.960   6.140   4.828 -0.6052  0.7268  1.8218
18311TIP3    H276425   4.054   6.026   4.796  1.5817  3.3014 -1.6446
18312TIP3   OH276426   4.999   3.951  12.785  0.2637  0.7003  0.6660
18312TIP3    H176427   5.017   3.978  12.695  1.7877  1.6842  1.2314
18312TIP3    H276428   5.075   3.898  12.810 -0.8432 -0.8511  0.9035
18313TIP3   OH276429   5.476   0.987  16.291 -0.5596 -0.2869 -0.0426
18313TIP3    H176430   5.485   1.066  16.238  0.3074  0.5264  1.2664
18313TIP3    H276431   5.565   0.953  16.299 -0.8414 -1.0540 -0.0672
18314TIP3   OH276432   1.238   5.155   0.492 -0.2686 -0.3378 -0.3285
18314TIP3    H176433   1.216   5.062   0.485  2.2351 -0.9301 -1.6891
18314TIP3    H276434   1.184   5.198   0.426 -1.4545 -0.8055  0.3138
18315TIP3   OH276435   5.627   2.083  12.153  0.2423  0.5983  0.2630
18315TIP3    H176436   5.687   2.103  12.082 -1.1488  2.3242 -0.4998
18315TIP3    H276437   5.674   2.107  12.232  0.5622  1.9722 -0.3165
18316TIP3   OH276438   3.951   6.484  16.754 -0.5386  0.0412 -0.5095
18316TIP3    H176439   3.980   6.572  16.773 -0.7154  0.1164 -0.5807
18316TIP3    H276440   4.027   6.441  16.715 -0.1509 -0.1402  0.4226
18317TIP3   OH276441   3.585   4.674   0.590 -0.1488 -1.2407  0.0883
18317TIP3    H176442   3.566   4.586   0.624  0.9506 -1.5766 -0.1330
18317TIP3    H276443   3.677   4.670   0.565 -0.1589 -0.0895 -0.1522
18318TIP3   OH276444   4.411   6.770  13.838 -0.2210  0.5562  0.1971
18318TIP3    H176445   4.502   6.794  13.856 -0.7366  1.0472  2.5131
18318TIP3    H276446   4.415   6.719  13.758  1.7632  2.7384 -1.2158
18319TIP3   OH276447   2.703   0.790   1.780 -0.2227  0.3697 -0.2729
18319TIP3    H176448   2.633   0.851   1.759 -1.2417 -0.0268  1.6879
18319TIP3    H276449   2.662   0.726   1.839  1.8755  0.4214  1.3597
18320TIP3   OH276450   0.552   0.721  12.126 -0.3508  0.5311  0.2782
18320TIP3    H176451   0.578   0.659  12.194 -0.6058  1.3747  1.1701
18320TIP3    H276452   0.627   0.724  12.066  0.0143  0.0326  0.7017
18321TIP3   OH276453   2.559   1.065  10.400  0.5294 -0.4945  0.1421
18321TIP3    H176454   2.499   1.136  10.422  3.4501  2.5024 -0.8902
18321TIP3    H276455   2.512   1.014  10.334 -0.8307  1.9102 -0.8665
18322TIP3   OH276456   5.786   2.899  11.477 -0.2756  0.0914  0.4778
18322TIP3    H176457   5.851   2.879  11.410 -0.1531  0.0401  0.6112
18322TIP3    H276458   5.704   2.910  11.429 -0.1655  0.1724  0.3078
18323TIP3   OH276459   2.150   4.420  14.180 -0.0710  0.2509  0.3559
18323TIP3    H176460   2.193   4.433  14.265  0.7509 -3.4685  0.7069
18323TIP3    H276461   2.059   4.401  14.203 -0.1964  0.7380  0.2645
18324TIP3   OH276462   2.549   4.962  12.260  0.4997 -0.3118 -0.6439
18324TIP3    H176463   2.465   4.942  12.303  0.6984 -1.1186 -0.6164
18324TIP3    H276464   2.561   5.056  12.274 -0.6367 -0.0820 -1.0586
18325TIP3   OH276465   1.918   4.632  11.217  0.0501  0.2083  0.1440
18325TIP3    H176466   1.890   4.713  11.174 -0.1326  0.4076  0.6256
18325TIP3    H276467   1.844   4.608  11.273 -0.6377 -1.2874 -1.3258
18326TIP3   OH276468   6.565   4.219  13.736  0.0190  0.0996  0.0875
18326TIP3    H176469   6.489   4.171  13.770 -0.0860  0.2767  0.1017
18326TIP3    H276470   6.609   4.254  13.813  0.6145 -0.7432  0.1391
18327TIP3   OH276471   5.775   6.314   2.551 -0.0305 -0.4043  0.9134
18327TIP3    H176472   5.721   6.319   2.630  0.0687 -0.1631  0.9672
18327TIP3    H276473   5.783   6.221   2.533 -0.5776 -0.4438  0.8297
18328TIP3   OH276474   1.829   6.820  14.626  0.5261  0.3728  0.0594
18328TIP3    H176475   1.753   6.778  14.667  1.3454 -1.6597 -0.4100
18328TIP3    H276476   1.899   6.810  14.690  0.5203  1.9482  0.3506
18329TIP3   OH276477   3.382   0.680  15.560  0.4699 -0.1690  0.5696
18329TIP3    H176478   3.345   0.713  15.478  0.7950 -0.3794  0.3362
18329TIP3    H276479   3.408   0.590  15.541 -4.0960 -2.1729  2.2443
18330TIP3   OH276480   1.839   2.859   1.171  0.0464  0.2314  0.0496
18330TIP3    H176481   1.761   2.805   1.160  0.5738 -0.2733 -1.3755
18330TIP3    H276482   1.808   2.948   1.157 -0.6658  0.2576  1.5900
18331TIP3   OH276483   0.316   1.137  11.888 -0.5865 -0.6251  0.8927
18331TIP3    H176484   0.321   1.068  11.955 -0.6185  1.0037  2.6423
18331TIP3    H276485   0.275   1.211  11.933  1.6083  1.3796 -0.1587
18332TIP3   OH276486   5.455   2.785  15.193 -0.1834  0.3423 -0.3282
18332TIP3    H176487   5.540   2.777  15.236 -0.4191  1.0169  0.2827
18332TIP3    H276488   5.394   2.802  15.264 -0.9446 -0.8285 -0.6873
18333TIP3   OH276489   2.235   5.195  14.578 -0.3541  0.4483  0.5008
18333TIP3    H176490   2.225   5.291  14.584 -2.4089  0.2714  0.5960
18333TIP3    H276491   2.275   5.171  14.662  2.2171  1.3722 -0.3401
18334TIP3   OH276492   1.592   0.020  16.984  0.4312 -0.4291  0.1927
18334TIP3    H176493   1.574  -0.066  17.022  0.4517 -0.4892  0.0667
18334TIP3    H276494   1.531   0.028  16.911  1.1479 -0.7912 -0.4651
18335TIP3   OH276495   1.180   4.231  12.547 -0.1092 -0.4098  1.1146
18335TIP3    H176496   1.112   4.184  12.498 -1.3386 -1.2552  3.4185
18335TIP3    H276497   1.131   4.297  12.598  0.6104 -1.4392  3.2876
18336TIP3   OH276498   6.291   1.405  15.468  0.2242  0.6462  0.3057
18336TIP3    H176499   6.373   1.420  15.419  0.1375 -0.4017 -0.1916
18336TIP3    H276500   6.222   1.424  15.404  0.0878  1.0370  0.5722
18337TIP3   OH276501   0.184   5.365   2.330 -0.2748 -0.1493  0.0844
18337TIP3    H176502   0.186   5.368   2.235  0.5665 -2.7570 -0.0620
18337TIP3    H276503   0.095   5.390   2.354 -0.3745  0.9503 -1.3403
18338TIP3   OH276504   0.892   4.645   5.597 -0.0347  0.2071 -0.7411
18338TIP3    H176505   0.887   4.562   5.643  0.7805  0.3752 -0.3298
18338TIP3    H276506   0.832   4.635   5.522 -1.0983 -0.1847  0.1411
18339TIP3   OH276507   3.574   3.030   0.694  0.1344 -0.5127  0.3653
18339TIP3    H176508   3.641   2.988   0.640  1.1350  1.5993 -0.1644
18339TIP3    H276509   3.492   3.014   0.648  0.9147  0.8987 -1.6940
18340TIP3   OH276510   3.905   1.404  11.482 -0.0235 -0.1359  0.4102
18340TIP3    H176511   3.933   1.443  11.399 -0.9796 -0.0924  0.0857
18340TIP3    H276512   3.901   1.310  11.463  0.5187 -0.2044  0.6424
18341TIP3   OH276513   1.874   1.169   2.892  0.2116 -0.1628  0.2224
18341TIP3    H176514   1.912   1.257   2.899 -0.2141  0.0293  0.1228
18341TIP3    H276515   1.891   1.129   2.977  0.0702  0.1494  0.3999
18342TIP3   OH276516   5.643   3.161   2.954  0.3773  0.1806  0.1410
18342TIP3    H176517   5.581   3.232   2.965  0.4099  0.2718 -0.2562
18342TIP3    H276518   5.608   3.090   3.007 -1.5126 -0.7081 -2.1562
18343TIP3   OH276519   5.184   0.952   1.264 -0.1498 -0.3559 -0.5224
18343TIP3    H176520   5.176   0.971   1.357 -0.6790 -1.0761 -0.4113
18343TIP3    H276521   5.247   1.016   1.232  0.2087 -0.2415  0.3752
18344TIP3   OH276522   6.202   5.911   2.697 -0.1149 -0.4939 -0.5503
18344TIP3    H176523   6.145   5.868   2.762 -2.2849  2.0113 -0.6143
18344TIP3    H276524   6.178   5.869   2.614  0.2468 -1.4073 -0.2128
18345TIP3   OH276525   2.382   0.528  16.827  0.0291  0.2140 -0.6500
18345TIP3    H176526   2.363   0.435  16.817 -0.7976  0.3586 -0.5738
18345TIP3    H276527   2.329   0.555  16.903 -0.3308  0.8941 -1.1284
18346TIP3   OH276528   2.385   0.433  11.354  0.0091 -0.0029 -0.1087
18346TIP3    H176529   2.349   0.521  11.366 -0.1672  0.1109 -1.3956
18346TIP3    H276530   2.462   0.431  11.411 -0.7408  0.5074  0.9701
18347TIP3   OH276531   2.278   3.916   4.690  0.3103  0.2294  0.2230
18347TIP3    H176532   2.259   3.986   4.752 -0.1597  1.7342 -1.5109
18347TIP3    H276533   2.360   3.942   4.648  0.7530 -0.8816  0.3670
18348TIP3   OH276534   3.914   0.320   1.716 -0.1869  0.3888  0.5710
18348TIP3    H176535   3.853   0.387   1.747 -0.2292  0.3576  0.5552
18348TIP3    H276536   3.986   0.369   1.677  0.8385  0.5062  2.4699
18349TIP3   OH276537   1.578   0.729  15.383 -0.0621 -0.3606 -0.0076
18349TIP3    H176538   1.525   0.798  15.342  0.4763  0.6716  0.9807
18349TIP3    H276539   1.668   0.758  15.374  0.5410 -2.5942 -2.5876
18350TIP3   OH276540   4.526   5.736  11.662  0.7181  0.1731  0.2077
18350TIP3    H176541   4.532   5.642  11.677 -2.4583 -0.0336  0.9590
18350TIP3    H276542   4.488   5.770  11.742 -0.7128  1.6645 -1.0390
18351TIP3   OH276543   0.002   2.323   6.157 -0.4771 -0.2228 -0.0202
18351TIP3    H176544   0.066   2.252   6.145  1.3739  1.4151 -0.4227
18351TIP3    H276545  -0.062   2.287   6.218  1.6021 -1.5277  1.5643
18352TIP3   OH276546   2.248   0.818  13.686 -0.1440 -0.6660  0.5252
18352TIP3    H176547   2.280   0.728  13.677  1.6896 -0.2681  2.2162
18352TIP3    H276548   2.222   0.825  13.778 -0.0453  0.5655  0.4791
18353TIP3   OH276549   4.332   0.556  12.756 -0.1623  0.5094  0.1884
18353TIP3    H176550   4.248   0.596  12.735  0.4462  2.4710  1.2471
18353TIP3    H276551   4.347   0.577  12.848  1.1586 -0.4218  0.2204
18354TIP3   OH276552   6.199   5.014  15.438 -0.3051  0.5772  0.2174
18354TIP3    H176553   6.122   4.962  15.415 -0.0282  0.5421 -0.6388
18354TIP3    H276554   6.179   5.101  15.404 -1.0713  1.2507  2.2487
18355TIP3   OH276555   5.720   4.098  15.393 -0.1542 -0.1507 -0.1730
18355TIP3    H176556   5.815   4.109  15.390 -0.1857  0.0352 -0.5460
18355TIP3    H276557   5.704   4.044  15.470  0.2762 -0.3968 -0.2572
18356TIP3   OH276558   1.302   4.832  14.930  0.4103  0.1862 -0.1521
18356TIP3    H176559   1.348   4.748  14.929  0.9723  0.4699 -1.6417
18356TIP3    H276560   1.211   4.809  14.911  0.6366 -0.0745 -0.9995
18357TIP3   OH276561   4.754   0.666  13.296 -0.6112  0.1891 -0.0981
18357TIP3    H176562   4.839   0.663  13.340 -1.1999  0.5516  1.1355
18357TIP3    H276563   4.740   0.758  13.277 -0.1403 -0.0183 -1.5545
18358TIP3   OH276564   2.128   0.417   1.269  0.3918  0.1308 -0.2072
18358TIP3    H176565   2.138   0.429   1.364  0.8502 -1.9858  0.0632
18358TIP3    H276566   2.068   0.342   1.261 -1.7976  1.8997 -1.6598
18359TIP3   OH276567   2.094   5.893   5.009 -0.4532  0.7447 -0.4580
18359TIP3    H176568   2.036   5.906   5.084  0.6842 -0.9197  0.8057
18359TIP3    H276569   2.043   5.841   4.947 -0.5470 -0.2112  0.3889
18360TIP3   OH276570   1.623   5.422  16.984 -0.4043 -0.3200  0.8574
18360TIP3    H176571   1.660   5.475  16.913  2.0062 -1.4876  1.1405
18360TIP3    H276572   1.543   5.469  17.009 -0.8760  0.6225 -1.9839
18361TIP3   OH276573   3.289   6.269   1.803  0.5249 -0.0664 -0.4365
18361TIP3    H176574   3.262   6.219   1.726  1.0030 -0.9629 -0.0450
18361TIP3    H276575   3.247   6.224   1.876  1.7786 -0.5395  0.0193
18362TIP3   OH276576   1.842   4.565   3.477  0.2435  0.1769  0.3117
18362TIP3    H176577   1.791   4.556   3.396 -1.2162 -1.2359  1.3256
18362TIP3    H276578   1.890   4.482   3.485  0.9896  0.6154  0.5235
18363TIP3   OH276579   3.042   3.331  12.682 -0.1113  0.2901  0.0412
18363TIP3    H176580   2.958   3.331  12.637 -0.8523  0.1935  1.3723
18363TIP3    H276581   3.097   3.391  12.631 -1.1510  0.7672 -0.5378
18364TIP3   OH276582   6.620   5.108   6.302 -0.3541  0.4418  0.4457
18364TIP3    H176583   6.677   5.177   6.338  0.8502 -0.3742  0.1773
18364TIP3    H276584   6.674   5.065   6.235 -1.6181  0.2173 -0.4755
18365TIP3   OH276585   1.568   2.567  16.456  0.5697 -0.2535 -0.7602
18365TIP3    H176586   1.510   2.492  16.464 -0.0341  0.1842 -0.9721
18365TIP3    H276587   1.598   2.585  16.545 -1.8753  1.2721 -0.1466
18366TIP3   OH276588   0.242   2.925   1.437 -0.2485  0.0896 -0.1810
18366TIP3    H176589   0.329   2.949   1.470 -0.5993  0.8845  0.1932
18366TIP3    H276590   0.259   2.861   1.367  0.7315  1.4318 -1.2115
18367TIP3   OH276591   4.192   1.270  14.557 -0.4356  0.0145  0.2359
18367TIP3    H176592   4.252   1.236  14.622 -0.7816 -0.9535  0.0591
18367TIP3    H276593   4.105   1.241  14.586 -0.5900 -0.4468 -0.6611
18368TIP3   OH276594   4.400   0.923  11.984 -0.4909  0.0424  0.1011
18368TIP3    H176595   4.402   0.937  12.078 -0.9454  0.2888  0.0762
18368TIP3    H276596   4.397   0.827  11.974 -0.8908  0.0255  0.3480
18369TIP3   OH276597   5.425   0.546  13.387 -0.1171 -0.4169  0.0795
18369TIP3    H176598   5.364   0.513  13.453 -0.1044  0.2418  0.4272
18369TIP3    H276599   5.438   0.638  13.410 -0.0773 -0.1868 -0.8097
18370TIP3   OH276600   0.646   1.068   5.101 -0.8671 -0.1708  0.5064
18370TIP3    H176601   0.682   0.996   5.153 -1.2376 -0.7022  0.0325
18370TIP3    H276602   0.557   1.041   5.081 -0.6109 -0.1491 -0.7121
18371TIP3   OH276603   2.403   4.199   0.856  0.1005 -1.0083 -0.2597
18371TIP3    H176604   2.342   4.272   0.842  0.0088 -1.2015 -0.8846
18371TIP3    H276605   2.455   4.226   0.931 -2.0622 -1.6787  1.6209
18372TIP3   OH276606   3.742   2.261   3.897  0.4668  0.1465  0.2222
18372TIP3    H176607   3.712   2.326   3.961 -2.7644  0.2095 -1.2189
18372TIP3    H276608   3.733   2.304   3.812 -2.6317 -2.3293 -0.8710
18373TIP3   OH276609   1.517   0.499   1.578 -0.2663  0.1792  0.3690
18373TIP3    H176610   1.554   0.488   1.490 -1.7293  0.0852 -0.2577
18373TIP3    H276611   1.586   0.469   1.637  0.0005 -1.7159 -0.8255
18374TIP3   OH276612   0.159   5.417  12.643 -0.5557  0.1144 -0.5972
18374TIP3    H176613   0.227   5.391  12.706 -1.1229 -1.5456 -0.6231
18374TIP3    H276614   0.121   5.335  12.614 -2.4521  0.9917 -0.7394
18375TIP3   OH276615   0.118   2.305   1.626 -0.0114 -0.5061 -0.2113
18375TIP3    H176616   0.091   2.284   1.716  0.1299  0.8257  0.1688
18375TIP3    H276617   0.214   2.297   1.629  0.1323  1.0022  0.1983
18376TIP3   OH276618   4.156   1.551   0.783 -0.5861  0.0601  0.5701
18376TIP3    H176619   4.141   1.491   0.856 -0.5740 -0.5641  0.0741
18376TIP3    H276620   4.181   1.494   0.710  1.0159  0.7954  0.5020
18377TIP3   OH276621   3.123   0.066   4.836  1.4178  0.8043  0.3180
18377TIP3    H176622   3.158  -0.014   4.875 -0.4571 -0.4069 -0.3596
18377TIP3    H276623   3.178   0.082   4.759  0.1614 -1.4433 -1.1319
18378TIP3   OH276624   3.808   6.231  11.814 -0.2478 -0.0347 -0.0032
18378TIP3    H176625   3.854   6.230  11.898  2.2090 -0.5128 -1.2560
18378TIP3    H276626   3.760   6.149  11.812  0.2968 -0.3863  0.6282
18379TIP3   OH276627   1.632   4.126  15.156  0.0629 -0.1133 -0.2452
18379TIP3    H176628   1.575   4.049  15.163 -0.3655  0.1982 -0.2963
18379TIP3    H276629   1.630   4.166  15.242  0.8158 -0.5210 -0.0240
18380TIP3   OH276630   2.591   5.151  14.640  0.3571  0.6324  0.3166
18380TIP3    H176631   2.591   5.085  14.571 -1.3740 -0.6840  1.4662
18380TIP3    H276632   2.642   5.224  14.605 -1.8686  0.7942 -3.0767
18381TIP3   OH276633   3.948   2.796  17.193 -0.1699 -0.5335 -0.4105
18381TIP3    H176634   4.014   2.806  17.262  1.6378 -1.6948 -1.8805
18381TIP3    H276635   3.901   2.715  17.216 -0.0651 -0.5262 -0.1691
18382TIP3   OH276636   1.706   5.366   4.794  0.5522 -0.1365 -0.1949
18382TIP3    H176637   1.646   5.291   4.787 -0.1146  0.3088  0.5509
18382TIP3    H276638   1.651   5.442   4.774  0.7190  0.3303  1.0356
18383TIP3   OH276639   1.021   2.641   0.753  0.5067  0.5266  0.2388
18383TIP3    H176640   1.073   2.608   0.680 -0.1957  0.0819 -0.0705
18383TIP3    H276641   0.961   2.704   0.713  1.3305  1.6543  0.7151
18384TIP3   OH276642   2.074   2.727  11.427 -0.1136  0.4490 -0.0450
18384TIP3    H176643   2.148   2.676  11.394 -2.0273 -0.4391 -3.4124
18384TIP3    H276644   2.114   2.809  11.457  2.4529 -0.9436  0.6567
18385TIP3   OH276645   1.144   3.486   0.504 -0.3202  0.0713 -0.3375
18385TIP3    H176646   1.141   3.467   0.597 -0.3083 -1.3093 -0.5894
18385TIP3    H276647   1.236   3.507   0.487 -0.4994  1.2755  0.1148
18386TIP3   OH276648   1.868   1.319   3.891 -0.2746  0.2207  0.3683
18386TIP3    H176649   1.839   1.270   3.814  0.6176 -0.3529  0.3824
18386TIP3    H276650   1.855   1.411   3.868 -0.5034  0.0322 -0.2576
18387TIP3   OH276651   1.157   5.596   1.796 -0.0423 -0.0187 -0.3203
18387TIP3    H176652   1.103   5.661   1.752 -0.4206 -0.7776 -1.0036
18387TIP3    H276653   1.185   5.639   1.877  0.6938  1.4041 -1.2979
18388TIP3   OH276654   3.241   5.685   2.778 -0.0541  0.4100 -0.0033
18388TIP3    H176655   3.267   5.728   2.696 -0.2728  1.5143  0.4869
18388TIP3    H276656   3.321   5.680   2.829 -0.3994  2.1651  0.7752
18389TIP3   OH276657   5.784   4.783  14.516 -0.3048  0.2704  0.0292
18389TIP3    H176658   5.733   4.736  14.583  1.3828  2.3754  3.0222
18389TIP3    H276659   5.868   4.739  14.515  0.3128  1.3735  0.7638
18390TIP3   OH276660   4.374   6.720   0.065  0.3235  0.6527 -0.8299
18390TIP3    H176661   4.441   6.658   0.035  0.1177  1.5292 -3.3082
18390TIP3    H276662   4.297   6.700   0.012 -1.4619 -0.2489  1.8728
18391TIP3   OH276663   3.946   0.773  11.837 -0.0048 -0.3301  0.1015
18391TIP3    H176664   4.010   0.760  11.907 -0.9295 -0.6639  0.9064
18391TIP3    H276665   3.987   0.837  11.779  1.3274 -1.0237  0.2440
18392TIP3   OH276666   1.546   6.303   3.557  0.3980  0.0576 -0.5640
18392TIP3    H176667   1.528   6.316   3.651  0.4185 -3.8838  0.1446
18392TIP3    H276668   1.637   6.273   3.554  0.6341  0.8319 -1.9790
18393TIP3   OH276669   6.702   5.652  13.906 -0.1205  0.0297 -0.3372
18393TIP3    H176670   6.762   5.727  13.917 -0.3665  0.4278 -1.5498
18393TIP3    H276671   6.713   5.601  13.985 -0.0172  1.4146  0.5844
18394TIP3   OH276672   5.969   3.271   3.437 -0.0716 -0.1766 -0.2013
18394TIP3    H176673   5.987   3.234   3.351  3.3647 -0.0092  0.3004
18394TIP3    H276674   5.917   3.349   3.419  0.3365 -0.2877 -2.1192
18395TIP3   OH276675   6.202   0.634   5.411  0.2369 -0.3096  0.2490
18395TIP3    H176676   6.243   0.596   5.333 -0.1033 -2.5097  1.0605
18395TIP3    H276677   6.143   0.702   5.377  0.7361 -0.6320 -1.3285
18396TIP3   OH276678   5.625   4.240   0.982  0.0082 -0.1332  0.3251
18396TIP3    H176679   5.609   4.314   1.040  0.3159 -0.5180  0.9140
18396TIP3    H276680   5.599   4.271   0.896  0.6642  0.8540  0.4637
18397TIP3   OH276681   4.841   4.943  15.934  0.1388  0.2007 -0.2717
18397TIP3    H176682   4.935   4.936  15.950  0.0996  1.0452  0.3600
18397TIP3    H276683   4.805   4.864  15.974  0.6551 -0.5498 -1.2442
18398TIP3   OH276684   0.576   2.049   1.650  0.3599  0.7530  0.3398
18398TIP3    H176685   0.656   2.097   1.636 -0.0346  1.0415 -1.0208
18398TIP3    H276686   0.537   2.089   1.728  1.9014  0.0702  1.5122
18399TIP3   OH276687   5.925   0.024  15.438  0.7359  0.2353 -0.3217
18399TIP3    H176688   5.936   0.097  15.378  1.4548 -0.3091 -0.8832
18399TIP3    H276689   5.874  -0.041  15.389  2.0105 -0.5418 -0.6769
18400TIP3   OH276690   5.476   3.227   4.624 -0.3468  0.2633  0.1214
18400TIP3    H176691   5.522   3.306   4.596 -1.2648  0.5076 -0.7394
18400TIP3    H276692   5.385   3.254   4.634 -0.6061 -0.6034  0.1620
18401TIP3   OH276693   3.641   4.327  12.999  0.5383  0.3223 -0.0880
18401TIP3    H176694   3.683   4.400  13.045  0.6584 -0.1321  0.5334
18401TIP3    H276695   3.666   4.249  13.049  2.1016 -0.4114 -1.9062
18402TIP3   OH276696   1.606   1.353   3.420  0.1470  0.5466  0.0475
18402TIP3    H176697   1.585   1.317   3.507 -0.2506  0.5054 -0.0646
18402TIP3    H276698   1.686   1.404   3.434  1.3111 -1.1560  0.0321
18403TIP3   OH276699   6.048   1.619   2.870  0.2377 -0.3834 -0.7309
18403TIP3    H176700   5.997   1.657   2.798  0.2612 -1.9562 -1.6153
18403TIP3    H276701   6.069   1.530   2.841  0.2524 -1.0736  1.2132
18404TIP3   OH276702   5.661   2.716  15.365  0.2019 -0.0563  0.2380
18404TIP3    H176703   5.612   2.648  15.411  1.7429 -1.9819 -0.8276
18404TIP3    H276704   5.692   2.775  15.434  0.0599 -1.2460  1.3482
18405TIP3   OH276705   2.106   2.952  14.782 -0.1061  0.0674 -0.0311
18405TIP3    H176706   2.189   2.981  14.820 -0.4942  2.0125 -0.5779
18405TIP3    H276707   2.123   2.943  14.689 -0.6458  1.0550 -0.2338
18406TIP3   OH276708   3.308   1.720  14.054 -0.0323 -0.4725 -0.7368
18406TIP3    H176709   3.312   1.816  14.053 -1.5702 -0.3867 -0.6281
18406TIP3    H276710   3.331   1.694  13.965  0.5522 -0.0297 -0.7269
18407TIP3   OH276711   0.688   5.962  12.551 -0.2226  0.1961  0.3320
18407TIP3    H176712   0.682   5.966  12.455  3.7483 -1.6490 -0.2147
18407TIP3    H276713   0.616   5.905  12.577 -1.7351  1.2009 -1.4484
18408TIP3   OH276714   1.455   4.903   1.482 -0.0448  0.3250 -0.1134
18408TIP3    H176715   1.465   4.825   1.538 -0.8262  0.9749  0.9590
18408TIP3    H276716   1.433   4.973   1.543 -0.6529  1.1113 -1.2212
18409TIP3   OH276717   5.953   2.071  17.155 -0.0628 -0.2581 -0.2865
18409TIP3    H176718   5.890   2.002  17.132  1.0722 -1.0936 -0.9878
18409TIP3    H276719   6.037   2.026  17.161  0.7177  1.0744 -0.7893
18410TIP3   OH276720   0.468   4.370   0.265  0.1767  0.5440  0.3564
18410TIP3    H176721   0.498   4.282   0.286  1.7691  1.0425  0.2821
18410TIP3    H276722   0.396   4.387   0.325  1.2279 -0.0219  1.8148
18411TIP3   OH276723   1.878   0.269   1.216 -0.3123 -0.6757 -0.2875
18411TIP3    H176724   1.863   0.205   1.286 -1.7103 -0.5471 -0.4452
18411TIP3    H276725   1.802   0.261   1.160 -0.0234  0.4474 -0.8560
18412TIP3   OH276726   2.524   2.951  13.416 -0.6019 -0.5400 -0.4317
18412TIP3    H176727   2.556   2.884  13.476  1.5811  1.0411  0.2918
18412TIP3    H276728   2.554   2.923  13.330  2.7712  0.7432  0.1850
18413TIP3   OH276729   4.059   4.101  10.815  0.2178  0.1378  0.1946
18413TIP3    H176730   4.129   4.166  10.807  0.3747 -0.0564 -0.0257
18413TIP3    H276731   3.979   4.149  10.791  0.3601  0.1999 -0.1719
18414TIP3   OH276732   6.038   5.017   0.727 -0.7559 -0.1287  0.2163
18414TIP3    H176733   6.083   5.038   0.645 -1.8399 -2.3107 -1.0472
18414TIP3    H276734   6.079   4.935   0.757 -3.1725 -1.7195 -0.5352
18415TIP3   OH276735   4.164   6.322   5.700  0.3579 -0.1365  0.4024
18415TIP3    H176736   4.122   6.237   5.692  1.9160 -0.9588  0.6388
18415TIP3    H276737   4.257   6.304   5.693  0.6815  1.7955 -1.5335
18416TIP3   OH276738   5.509   0.316   5.595  0.1837  0.1582  0.0098
18416TIP3    H176739   5.467   0.259   5.530  1.3137 -0.1472 -0.4706
18416TIP3    H276740   5.557   0.381   5.544 -1.0534  1.5650  0.5556
18417TIP3   OH276741   5.355   1.522  13.832 -0.0186  0.0625 -0.3468
18417TIP3    H176742   5.259   1.521  13.836 -0.1561  3.1326 -0.4373
18417TIP3    H276743   5.383   1.524  13.923 -0.0801  0.1860 -0.3313
18418TIP3   OH276744   1.379   5.550  14.176  0.0066  0.2352 -0.7175
18418TIP3    H176745   1.368   5.479  14.239 -1.4478 -1.7258 -2.9614
18418TIP3    H276746   1.452   5.522  14.121 -1.2637 -0.1535 -2.2895
18419TIP3   OH276747   3.540   2.549  16.996  0.0807  0.3157  0.2513
18419TIP3    H176748   3.547   2.555  17.091  1.3614 -0.8767  0.2552
18419TIP3    H276749   3.626   2.519  16.967 -0.6623 -0.5512 -1.1718
18420TIP3   OH276750   5.734   1.039  14.315 -0.0641  0.4336 -0.2630
18420TIP3    H176751   5.767   0.954  14.343  0.2559  0.7710  0.4327
18420TIP3    H276752   5.641   1.037  14.337  0.0583  0.4626  0.2703
18421TIP3   OH276753   5.998   0.670  15.195  0.2602  0.2115 -0.1930
18421TIP3    H176754   5.963   0.725  15.266 -2.1078 -0.1782 -0.9690
18421TIP3    H276755   6.052   0.605  15.239 -0.8329  0.2201  1.2292
18422TIP3   OH276756   3.490   0.556   4.809  0.1421 -0.7785  0.8262
18422TIP3    H176757   3.412   0.607   4.790  0.2545 -0.4723  1.1684
18422TIP3    H276758   3.460   0.466   4.814 -0.5768 -0.4658  2.9906
18423TIP3   OH276759   4.078   6.693   1.455  0.0474 -0.1243  0.3153
18423TIP3    H176760   3.983   6.683   1.459 -0.1901  0.2451 -2.4230
18423TIP3    H276761   4.093   6.753   1.381  2.4179 -0.4392  0.4536
18424TIP3   OH276762   1.638   4.016  16.594 -0.1194  0.9510 -0.1331
18424TIP3    H176763   1.719   3.981  16.555 -1.0178  0.1032 -1.3225
18424TIP3    H276764   1.607   3.947  16.652 -0.6111  0.7755 -0.5980
18425TIP3   OH276765   1.918   2.573   0.845  0.4898  0.2116  0.2413
18425TIP3    H176766   1.973   2.506   0.886 -0.8192 -1.1072 -0.0925
18425TIP3    H276767   1.974   2.651   0.843  2.0583 -0.8466  0.6444
18426TIP3   OH276768   0.946   1.203  13.839  0.4339 -0.5329 -0.0143
18426TIP3    H176769   0.934   1.110  13.860 -0.6244 -0.3187  0.3689
18426TIP3    H276770   0.896   1.216  13.759 -2.7763  0.5160  1.9644
18427TIP3   OH276771   5.656   1.700   1.162  0.1431  0.2043  0.0029
18427TIP3    H176772   5.595   1.759   1.207  1.5603  1.7866 -0.0590
18427TIP3    H276773   5.618   1.687   1.076 -0.1983  1.0396  0.0224
18428TIP3   OH276774   3.012   3.201  16.425  0.2553 -0.4226  0.2346
18428TIP3    H176775   3.063   3.121  16.418  3.2782  1.4144 -0.4443
18428TIP3    H276776   2.937   3.176  16.479  1.7128 -3.3830  1.1255
18429TIP3   OH276777   4.045   6.765   4.360 -0.3203  0.2974  0.1889
18429TIP3    H176778   4.114   6.754   4.295 -0.9898  0.4030 -0.5549
18429TIP3    H276779   4.003   6.679   4.365  0.5319 -0.0879  1.4502
18430TIP3   OH276780   3.703   4.155  14.425 -0.2444 -0.5579  0.0815
18430TIP3    H176781   3.737   4.069  14.450 -1.8226 -1.7777 -1.7435
18430TIP3    H276782   3.776   4.197  14.380  0.6941 -0.7092  1.3952
18431TIP3   OH276783   0.429   3.951   5.768 -0.3867  0.2596  0.5457
18431TIP3    H176784   0.374   4.016   5.812 -1.3250  1.3606 -2.0227
18431TIP3    H276785   0.370   3.905   5.709  0.9154 -0.5667 -0.1737
18432TIP3   OH276786   5.755   0.471  11.807  0.2313 -0.1492  0.1300
18432TIP3    H176787   5.732   0.563  11.793 -1.6169 -0.0137  3.0630
18432TIP3    H276788   5.719   0.425  11.732 -1.0216  1.2746 -0.1948
18433TIP3   OH276789   0.632   0.251  16.174  0.1098  0.0770  0.0730
18433TIP3    H176790   0.583   0.326  16.140  0.3259  1.1621  2.0334
18433TIP3    H276791   0.571   0.207  16.233  0.1298 -1.0861 -0.7310
18434TIP3   OH276792   2.737   0.470  10.908  0.1442  0.4555 -0.0743
18434TIP3    H176793   2.722   0.388  10.860  0.5778  0.1978  0.2254
18434TIP3    H276794   2.793   0.522  10.851  1.3932 -0.2083  0.5135
18435TIP3   OH276795   3.715   2.641   5.256  0.3299  0.1193 -0.2690
18435TIP3    H176796   3.687   2.560   5.299 -1.0593  0.3285 -0.7273
18435TIP3    H276797   3.785   2.615   5.197  0.2325 -0.6695 -0.0391
18436TIP3   OH276798   1.640   3.197  15.793  0.5015 -0.1579  0.5125
18436TIP3    H176799   1.570   3.261  15.779 -0.5407 -1.1847  0.7906
18436TIP3    H276800   1.636   3.177  15.886 -0.9943 -2.5171  0.0398
18437TIP3   OH276801   0.611   0.011   4.203  0.3100 -0.0284  0.3650
18437TIP3    H176802   0.515   0.005   4.199  0.2310  1.2461 -0.3600
18437TIP3    H276803   0.638  -0.067   4.251 -1.1158 -0.2312  0.8910
18438TIP3   OH276804   4.215   6.179  15.310 -0.3960 -0.1172  0.2197
18438TIP3    H176805   4.135   6.227  15.290 -0.8792 -0.4791  1.2451
18438TIP3    H276806   4.222   6.114  15.240  0.2709  1.3886 -1.2011
18439TIP3   OH276807   4.164   5.705  14.518  0.3041 -0.2601  0.0747
18439TIP3    H176808   4.154   5.679  14.610 -1.1115 -1.1641 -0.3127
18439TIP3    H276809   4.116   5.788  14.511  1.2701  0.3377  0.3618
18440TIP3   OH276810   4.191   5.075  11.723 -0.1449  0.4132 -0.5952
18440TIP3    H176811   4.249   5.097  11.649 -1.1705  1.3686 -1.1524
18440TIP3    H276812   4.102   5.087  11.688 -0.6851 -0.7476  0.3194
18441TIP3   OH276813   3.663   2.794  11.834 -0.5530 -0.0646  0.0481
18441TIP3    H176814   3.690   2.704  11.846  0.4140  0.4007  1.5448
18441TIP3    H276815   3.567   2.790  11.827 -0.5823 -1.1248  0.9078
18442TIP3   OH276816   3.376   2.903   3.693  0.3879  0.3457 -0.0827
18442TIP3    H176817   3.449   2.844   3.714 -0.4853 -0.4966  0.7389
18442TIP3    H276818   3.417   2.985   3.668  1.6154 -0.0273  0.6249
18443TIP3   OH276819   1.578   2.833   1.043 -0.0013  0.5002  0.1622
18443TIP3    H176820   1.607   2.920   1.071 -1.0241  1.5206 -1.7227
18443TIP3    H276821   1.494   2.849   0.999 -1.6415 -1.8399  2.1624
18444TIP3   OH276822   2.867   4.790  13.701  0.0273  0.4536  0.0942
18444TIP3    H176823   2.861   4.705  13.745 -1.8182  0.2147 -0.5028
18444TIP3    H276824   2.872   4.854  13.772 -0.6666 -0.0434  0.6068
18445TIP3   OH276825   0.654   6.631   0.458 -0.1373  0.0469  0.0866
18445TIP3    H176826   0.639   6.689   0.532  0.2768 -0.9954  1.0104
18445TIP3    H276827   0.567   6.606   0.429 -0.3835  2.0705 -1.1395
18446TIP3   OH276828   0.744   3.064   1.123  0.1321 -0.2487 -0.4516
18446TIP3    H176829   0.737   3.147   1.074  0.8310  0.9251  1.3444
18446TIP3    H276830   0.684   3.075   1.197  1.4168 -0.6971  0.6808
18447TIP3   OH276831   5.698   4.908   4.014 -0.6562  0.2718  0.1069
18447TIP3    H176832   5.763   4.976   4.031  0.0696 -0.3489 -0.0912
18447TIP3    H276833   5.642   4.945   3.946 -1.4063  1.3751  1.2865
18448TIP3   OH276834   4.805   6.687  16.469  0.4956  0.2401  0.3613
18448TIP3    H176835   4.719   6.648  16.455  1.3469 -1.6845  0.1469
18448TIP3    H276836   4.839   6.702  16.380  0.5862  0.5299  0.4424
18449TIP3   OH276837   0.696   2.773   3.207  0.0429 -0.0917  0.1939
18449TIP3    H176838   0.727   2.828   3.135 -1.5684 -0.5195 -0.8788
18449TIP3    H276839   0.635   2.712   3.166  1.1746 -2.2069  1.4714
18450TIP3   OH276840   6.040   4.858  16.921  0.1447 -0.0071 -0.2827
18450TIP3    H176841   6.097   4.856  16.997 -0.6303 -0.2507  0.3164
18450TIP3    H276842   6.092   4.822  16.850  1.1711  1.0417 -0.0820
18451TIP3   OH276843   5.502   6.347   5.111  0.4650 -0.1473 -0.3198
18451TIP3    H176844   5.500   6.437   5.146  0.5918 -0.3810  0.2987
18451TIP3    H276845   5.437   6.300   5.162 -1.2395  0.0984 -2.1464
18452TIP3   OH276846   2.694   3.197  16.192  0.1312 -0.4175  0.4385
18452TIP3    H176847   2.756   3.255  16.235  0.0588  0.7553 -0.9704
18452TIP3    H276848   2.608   3.234  16.212  0.0990  0.1399 -0.6895
18453TIP3   OH276849   3.768   3.892   2.536 -0.2840 -0.2666 -0.0495
18453TIP3    H176850   3.736   3.982   2.541  1.0381  0.1811  0.6927
18453TIP3    H276851   3.706   3.842   2.589 -0.1442  0.4631  0.8150
18454TIP3   OH276852   2.486   6.175  14.739 -0.1743 -0.1626 -0.0075
18454TIP3    H176853   2.432   6.162  14.817 -1.1087  1.3924 -0.3444
18454TIP3    H276854   2.498   6.270  14.734  0.0266 -0.2409 -1.6343
18455TIP3   OH276855   4.459   0.456  15.043 -0.2134  0.4551  0.6142
18455TIP3    H176856   4.541   0.504  15.027 -0.8645  1.6215  0.6463
18455TIP3    H276857   4.433   0.482  15.131 -0.0597 -0.7698  1.0266
18456TIP3   OH276858   0.411   3.071  16.591  0.0142 -0.4168 -0.5431
18456TIP3    H176859   0.435   3.096  16.501 -0.3638 -0.7419 -0.7364
18456TIP3    H276860   0.327   3.027  16.582 -0.7046  0.7603  0.1367
18457TIP3   OH276861   0.935   3.132  11.342 -0.4006 -0.7030  0.0358
18457TIP3    H176862   0.894   3.065  11.287 -0.6498 -1.3091  0.9385
18457TIP3    H276863   0.880   3.135  11.421 -0.5275  0.7314 -0.0835
18458TIP3   OH276864   6.739   6.445  13.411  0.3545 -0.1002 -0.1044
18458TIP3    H176865   6.765   6.372  13.467 -2.0854 -1.5512 -0.7225
18458TIP3    H276866   6.786   6.430  13.329  1.2203  0.0477  0.3558
18459TIP3   OH276867   3.702   2.815   4.596  0.0326 -0.2478 -0.2454
18459TIP3    H176868   3.621   2.791   4.640  0.8702 -3.5754 -0.3139
18459TIP3    H276869   3.743   2.879   4.654 -2.0203  0.6035  0.3599
18460TIP3   OH276870   1.987   1.872  11.668  0.4655 -0.2317  0.0919
18460TIP3    H176871   2.010   1.905  11.755  0.8108  0.1993 -0.1585
18460TIP3    H276872   1.930   1.940  11.631  0.8400 -0.1085 -0.2640
18461TIP3   OH276873   2.956   5.880  14.754 -0.4509 -0.2317 -0.9081
18461TIP3    H176874   2.863   5.889  14.736 -0.3531  0.2378 -1.1790
18461TIP3    H276875   2.960   5.858  14.847 -0.7128  2.6762 -0.1065
18462TIP3   OH276876   1.749   1.622   0.948 -0.3459 -0.2703  0.1233
18462TIP3    H176877   1.670   1.585   0.988 -0.5829  0.4320  0.3142
18462TIP3    H276878   1.821   1.582   0.997 -0.5487 -1.3267 -0.3970
18463TIP3   OH276879   4.786   6.531   2.233 -0.1656 -0.0877 -0.2899
18463TIP3    H176880   4.873   6.519   2.196 -0.7244 -1.9447 -1.1068
18463TIP3    H276881   4.801   6.540   2.327  0.9143 -0.4460 -0.4213
18464TIP3   OH276882   3.445   1.550   6.152 -0.1453  0.2752  0.2873
18464TIP3    H176883   3.425   1.456   6.145  0.8031 -0.1161  2.1092
18464TIP3    H276884   3.480   1.560   6.240  0.3765  2.2497 -0.0973
18465TIP3   OH276885   5.684   2.212  16.876  0.1197 -0.1659 -0.5283
18465TIP3    H176886   5.710   2.124  16.904  0.6156  0.1673  0.0778
18465TIP3    H276887   5.710   2.269  16.948 -1.9671  0.2422 -0.0168
18466TIP3   OH276888   3.326   3.437   4.084 -1.1276 -0.6385 -0.3817
18466TIP3    H176889   3.349   3.402   3.997 -0.2731  2.6055 -1.5965
18466TIP3    H276890   3.233   3.415   4.095 -1.8011  0.4884 -3.0456
18467TIP3   OH276891   3.474   2.509  11.131 -0.2866 -0.3802 -0.6751
18467TIP3    H176892   3.471   2.482  11.222 -0.0198  1.1054 -0.1943
18467TIP3    H276893   3.557   2.557  11.123  0.8374 -2.4181 -2.2879
18468TIP3   OH276894   3.925   4.672   4.547 -0.0328 -0.2797 -0.1152
18468TIP3    H176895   4.020   4.663   4.545  0.4814  3.3036  0.4731
18468TIP3    H276896   3.903   4.671   4.640 -0.5400 -0.7463 -0.2357
18469TIP3   OH276897   3.535   5.724  11.868 -0.2868 -0.2886 -1.1484
18469TIP3    H176898   3.449   5.683  11.877 -0.4038 -0.1939 -1.7777
18469TIP3    H276899   3.528   5.806  11.917 -0.0876 -0.9562  0.0173
18470TIP3   OH276900   6.394   5.868   5.878  1.0212 -0.0245  0.9472
18470TIP3    H176901   6.459   5.807   5.913  2.6383  1.5633  0.8682
18470TIP3    H276902   6.445   5.930   5.826 -0.6396  0.9756  0.4450
18471TIP3   OH276903   2.810   2.036  17.158  0.4272  0.1268  0.0946
18471TIP3    H176904   2.823   2.109  17.219 -0.9773  1.2898 -0.9251
18471TIP3    H276905   2.715   2.023  17.157  0.5209 -0.5826 -1.0207
18472TIP3   OH276906   0.884   0.354   1.250 -0.1277 -0.1165  0.3512
18472TIP3    H176907   0.918   0.405   1.324 -1.5741 -0.1696  1.0911
18472TIP3    H276908   0.835   0.282   1.290  0.9126 -1.4626 -0.6809
18473TIP3   OH276909   1.210   1.042  13.588  0.2837  0.2276  0.4004
18473TIP3    H176910   1.157   1.101  13.534 -1.0521 -0.7084  0.6253
18473TIP3    H276911   1.160   1.033  13.670 -1.1138 -3.3112 -0.6148
18474TIP3   OH276912   3.314   5.809  16.808  0.0936 -0.0210 -0.3472
18474TIP3    H176913   3.399   5.834  16.771 -0.9830  2.7470 -1.2001
18474TIP3    H276914   3.250   5.834  16.742 -1.4525 -2.2535  0.1694
18475TIP3   OH276915   4.124   4.511  15.896 -0.2489  0.1601  0.1215
18475TIP3    H176916   4.074   4.593  15.894 -1.2753 -0.4578 -0.1641
18475TIP3    H276917   4.149   4.501  15.988  0.4624  1.1117  0.0555
18476TIP3   OH276918   1.934   5.467   4.115  0.3863 -0.2102 -0.6556
18476TIP3    H176919   1.972   5.393   4.163  0.3181  0.6556  0.8145
18476TIP3    H276920   2.010   5.518   4.087  0.4073 -0.3034 -0.7681
18477TIP3   OH276921   5.661   3.070  16.348  0.2621  0.1460  0.3950
18477TIP3    H176922   5.649   3.125  16.426  1.7703 -0.5949  1.1750
18477TIP3    H276923   5.729   3.008  16.372  2.1342  1.0486 -2.1151
18478TIP3   OH276924   4.150   0.082   1.636 -0.4771  0.0274  0.0859
18478TIP3    H176925   4.084   0.013   1.630 -0.6416  0.1554  0.4047
18478TIP3    H276926   4.144   0.129   1.553 -2.1858  1.3028  0.8644
18479TIP3   OH276927   0.119   4.511  12.473  0.0426  0.7890 -0.1424
18479TIP3    H176928   0.076   4.559  12.402 -0.6795 -0.3805 -0.5443
18479TIP3    H276929   0.066   4.530  12.551 -0.8890 -0.1695 -0.5156
18480TIP3   OH276930   5.784   3.887   0.032 -0.3099 -1.0511 -0.0569
18480TIP3    H176931   5.851   3.899   0.099 -1.0983 -1.4017  0.8119
18480TIP3    H276932   5.833   3.877  -0.050  0.6459  0.0856  0.3489
18481TIP3   OH276933   5.327   0.305  13.520 -0.0454  0.0819 -0.5580
18481TIP3    H176934   5.235   0.285  13.504 -0.9517  3.1653  0.0478
18481TIP3    H276935   5.329   0.338  13.610  1.4394  1.0881 -0.9147
18482TIP3   OH276936   0.584   6.740  15.273  0.2989 -0.2808 -0.3802
18482TIP3    H176937   0.580   6.825  15.316 -0.0837 -0.0878 -0.7936
18482TIP3    H276938   0.667   6.741  15.225  0.4971 -0.3128 -0.0483
18483TIP3   OH276939   5.125   2.266   0.068  0.3491  0.0864 -0.3678
18483TIP3    H176940   5.046   2.294   0.115  0.3928 -0.8230  0.2951
18483TIP3    H276941   5.193   2.265   0.136  0.0436 -2.9121  0.0409
18484TIP3   OH276942   4.471   1.904   5.818  0.2452  0.1317  0.2690
18484TIP3    H176943   4.386   1.946   5.833  0.5132  0.5267  0.7220
18484TIP3    H276944   4.534   1.976   5.823  0.8679 -0.4727  2.4561
18485TIP3   OH276945   1.416   2.226   5.296 -0.3417  0.6227 -0.2948
18485TIP3    H176946   1.494   2.207   5.243 -0.1777  0.8562 -0.1426
18485TIP3    H276947   1.451   2.246   5.383 -0.6616 -0.5789  0.1285
18486TIP3   OH276948   2.373   2.285  17.032  0.1454  0.1437 -0.5128
18486TIP3    H176949   2.287   2.246  17.042  0.7054 -1.3099 -1.1064
18486TIP3    H276950   2.367   2.337  16.952 -0.0116 -0.4299 -0.8756
18487TIP3   OH276951   2.158   2.223  15.748  0.2989  0.3311 -0.2029
18487TIP3    H176952   2.163   2.138  15.792 -0.1250  0.6401  0.4512
18487TIP3    H276953   2.190   2.206  15.659  2.2127 -0.0882  0.5144
18488TIP3   OH276954   4.928   1.248  13.322  0.6738 -0.1369 -0.2723
18488TIP3    H176955   4.906   1.327  13.272 -1.3265 -0.6710 -0.3429
18488TIP3    H276956   4.844   1.203  13.333  1.2302 -0.6614  2.5355
18489TIP3   OH276957   2.057   6.279   4.541 -0.2115  0.4232  0.3665
18489TIP3    H176958   2.150   6.301   4.538  0.0993 -0.8812 -0.6383
18489TIP3    H276959   2.019   6.327   4.467  0.0117 -0.4359 -0.3207
18490TIP3   OH276960   1.393   3.122  13.685 -0.4035  0.0347  0.0732
18490TIP3    H176961   1.421   3.211  13.663 -2.4900  0.3312 -1.7827
18490TIP3    H276962   1.436   3.067  13.620  0.1768 -0.2245  0.6658
18491TIP3   OH276963   6.697   2.850   2.551 -0.0376 -0.2659 -0.0352
18491TIP3    H176964   6.658   2.763   2.550  1.3157 -0.9084  0.1668
18491TIP3    H276965   6.707   2.871   2.644 -1.6559  0.7411 -0.0588
18492TIP3   OH276966   5.319   6.029   3.832  1.1243 -0.5089 -0.3046
18492TIP3    H176967   5.261   6.077   3.891  0.0458 -0.6896 -1.1851
18492TIP3    H276968   5.270   5.950   3.809  1.5352 -0.4621 -1.3999
18493TIP3   OH276969   0.645   4.442  14.763  0.3220  0.0642  0.0755
18493TIP3    H176970   0.596   4.500  14.704  1.9166  1.6942  0.2693
18493TIP3    H276971   0.637   4.483  14.849  0.9172 -0.3845  0.3517
18494TIP3   OH276972   3.443   3.277  12.148 -0.2940  0.3107 -0.2821
18494TIP3    H176973   3.355   3.299  12.181  0.1296 -0.0966  1.1720
18494TIP3    H276974   3.447   3.320  12.063 -1.4684  1.3608  0.1523
18495TIP3   OH276975   0.324   5.914  15.155  0.2901 -0.1851  0.3607
18495TIP3    H176976   0.266   5.850  15.196  0.2391 -1.3135 -1.3334
18495TIP3    H276977   0.406   5.867  15.142 -0.1064 -0.3838 -1.9744
18496TIP3   OH276978   2.222   6.347  14.941  1.1741  0.0564  0.3625
18496TIP3    H176979   2.217   6.425  14.886  4.1768 -1.0811 -1.7890
18496TIP3    H276980   2.277   6.373  15.015 -0.3846  0.7407  1.3422
18497TIP3   OH276981   3.558   0.326   5.936 -0.3088  0.3048 -0.1066
18497TIP3    H176982   3.525   0.238   5.952  0.9095  0.2012  2.1357
18497TIP3    H276983   3.624   0.315   5.868 -1.2608 -0.2307 -0.9835
18498TIP3   OH276984   0.199   0.491  13.025  0.3027 -0.2891 -0.0041
18498TIP3    H176985   0.161   0.407  13.001  2.4426 -0.9746 -1.2047
18498TIP3    H276986   0.291   0.471  13.046  0.1966  1.3219  2.4753
18499TIP3   OH276987   4.094   4.470  16.157 -0.3694 -0.6381  0.3282
18499TIP3    H176988   4.000   4.454  16.162 -0.5181  0.4210  1.1205
18499TIP3    H276989   4.131   4.416  16.227 -0.0093 -3.4064 -1.8174
18500TIP3   OH276990   6.685   2.613   3.608  0.2101  0.4071  0.2306
18500TIP3    H176991   6.767   2.600   3.560 -1.2604  1.2082 -2.7782
18500TIP3    H276992   6.644   2.526   3.611  0.6389  0.2181  0.7293
18501TIP3   OH276993   2.259   0.534  15.623  0.8121  0.2214 -0.4671
18501TIP3    H176994   2.166   0.529  15.644  1.1576 -0.3773  1.0083
18501TIP3    H276995   2.295   0.450  15.652  1.5653 -0.1792 -2.4038
18502TIP3   OH276996   3.981   6.310  12.060  0.5559 -0.7593  0.0390
18502TIP3    H176997   4.007   6.230  12.106  1.7929 -1.2517 -1.4255
18502TIP3    H276998   4.062   6.360  12.051  0.0824 -0.0490 -0.4027
18503TIP3   OH276999   3.688   2.484   3.695 -0.5388  0.1448  0.4125
18503TIP3    H177000   3.677   2.571   3.732  0.9693  1.7690 -2.5532
18503TIP3    H277001   3.780   2.480   3.668 -0.5020 -2.4801  0.6418
18504TIP3   OH277002   0.714   4.073   0.492 -0.5688 -0.2371  0.7684
18504TIP3    H177003   0.746   4.143   0.434  0.2688 -0.5999  0.7781
18504TIP3    H277004   0.768   4.081   0.570 -0.5490 -0.8175  0.8182
18505TIP3   OH277005   0.381   1.164   5.744 -0.1355 -0.0120 -0.4758
18505TIP3    H177006   0.337   1.244   5.772  0.9292  0.4605 -0.0718
18505TIP3    H277007   0.417   1.127   5.824  1.3676  0.3646 -0.9470
18506TIP3   OH277008   4.416   4.016  13.445  1.0640  0.8813  0.5652
18506TIP3    H177009   4.336   3.964  13.441  2.1077 -0.6717 -2.3355
18506TIP3    H277010   4.390   4.094  13.494 -2.2871  0.5433 -0.4067
18507TIP3   OH277011   4.285   6.306   2.226 -0.6147  0.0819 -0.2215
18507TIP3    H177012   4.362   6.275   2.274 -0.7311 -0.6489 -0.4929
18507TIP3    H277013   4.319   6.371   2.165 -0.4572  0.9812  0.7948
18508TIP3   OH277014   5.339   2.769   0.475 -0.0927 -0.3624 -0.4171
18508TIP3    H177015   5.427   2.743   0.450  0.9395  1.2857  1.2241
18508TIP3    H277016   5.321   2.848   0.424  0.5837  0.9302  1.2260
18509TIP3   OH277017   1.571   6.620   5.799 -0.0637 -1.2827  0.1820
18509TIP3    H177018   1.584   6.710   5.769 -0.7861 -1.2541 -0.0480
18509TIP3    H277019   1.492   6.590   5.755  0.2578 -2.0947  0.1264
18510TIP3   OH277020   4.867   1.545  13.288  0.0191  0.0060 -0.3343
18510TIP3    H177021   4.783   1.555  13.243 -0.9928 -0.3506  1.3929
18510TIP3    H277022   4.902   1.634  13.292 -1.1941  0.4719  0.5730
18511TIP3   OH277023   0.592   3.506  15.377 -0.3726  0.1295  0.0180
18511TIP3    H177024   0.682   3.515  15.349  0.2108 -0.5971  1.5377
18511TIP3    H277025   0.598   3.479  15.469 -2.1378  1.3818  0.5537
18512TIP3   OH277026   2.346   0.563   3.054  0.5161  0.1750 -0.5274
18512TIP3    H177027   2.394   0.574   3.137  0.5578 -0.0915 -0.5160
18512TIP3    H277028   2.371   0.476   3.023 -1.0468 -0.5622  0.1903
18513TIP3   OH277029   3.640   6.198  14.495  0.0986 -0.2181  1.0793
18513TIP3    H177030   3.573   6.180  14.429 -0.5055  3.9520  0.2566
18513TIP3    H277031   3.722   6.171  14.454 -0.6255 -1.0994  0.1582
18514TIP3   OH277032   6.734   3.839  16.031 -0.0106  0.1540  0.2824
18514TIP3    H177033   6.661   3.822  15.972  0.2347 -0.4470  0.1408
18514TIP3    H277034   6.726   3.770  16.098 -0.6406  1.1742  1.3048
18515TIP3   OH277035   0.255   1.868   3.080  0.7449 -0.0763  0.1470
18515TIP3    H177036   0.289   1.838   2.995  0.8963  2.0319 -0.6078
18515TIP3    H277037   0.161   1.850   3.076  0.6343  0.5761 -0.7834
18516TIP3   OH277038   1.932   4.002   5.780  0.5156 -0.0177  0.6740
18516TIP3    H177039   1.884   3.925   5.748 -0.5437  0.9153 -0.0627
18516TIP3    H277040   1.915   4.003   5.874  0.7689 -0.8393  0.7359
18517TIP3   OH277041   0.265   2.779  11.305 -0.0963  0.2592 -0.0190
18517TIP3    H177042   0.275   2.833  11.226 -0.3693  0.0494 -0.2005
18517TIP3    H277043   0.320   2.703  11.289 -0.8318 -0.2073 -0.3965
18518TIP3   OH277044   6.725   1.549  15.166  0.3171 -0.0370  0.5637
18518TIP3    H177045   6.709   1.591  15.082  1.7846  0.2613  0.4043
18518TIP3    H277046   6.801   1.493  15.151  0.7189  0.1627  1.7373
18519TIP3   OH277047   4.060   3.151   3.003  0.2528  0.4308  0.2963
18519TIP3    H177048   4.144   3.109   3.020  0.8713  0.8787 -1.3756
18519TIP3    H277049   4.080   3.216   2.935 -1.5166  0.2415 -0.4620
18520TIP3   OH277050   5.880   4.294  13.053 -0.1561 -0.2880 -0.3885
18520TIP3    H177051   5.921   4.341  13.125  1.4514 -0.3864 -1.1975
18520TIP3    H277052   5.837   4.363  13.002 -0.3120 -0.0779  0.0172
18521TIP3   OH277053   1.793   0.664   4.191  0.7995  0.6249  0.1770
18521TIP3    H177054   1.860   0.723   4.157  1.0623 -0.6643 -1.6403
18521TIP3    H277055   1.821   0.576   4.165 -1.1096 -0.0404  0.1738
18522TIP3   OH277056   1.284   2.652  15.578  0.0030 -0.5260 -0.2615
18522TIP3    H177057   1.370   2.611  15.574  1.1089  1.6817 -1.0019
18522TIP3    H277058   1.239   2.622  15.499  0.8766 -0.1416 -0.9197
18523TIP3   OH277059   2.456   5.233   3.145  0.4549 -0.2712  0.6404
18523TIP3    H177060   2.430   5.323   3.125  0.7853 -0.5220 -1.0953
18523TIP3    H277061   2.489   5.198   3.062 -0.7391 -2.3720  0.9572
18524TIP3   OH277062   2.711   1.519   0.075  0.0699 -0.2008 -0.1822
18524TIP3    H177063   2.734   1.593   0.018 -0.7973  1.2450  1.2493
18524TIP3    H277064   2.625   1.491   0.044 -0.7874  1.1333  0.8633
18525TIP3   OH277065   5.016   3.127  11.989 -0.0533 -1.4351  0.3323
18525TIP3    H177066   5.072   3.057  11.955  0.0903 -0.6976 -1.0172
18525TIP3    H277067   5.016   3.114  12.084  2.8561 -1.1312  0.4583
18526TIP3   OH277068   6.417   0.372   6.460  0.5203  0.0528  0.4662
18526TIP3    H177069   6.327   0.378   6.427  0.7086  0.0353 -0.0521
18526TIP3    H277070   6.470   0.417   6.395  1.2138 -2.0789 -0.5350
18527TIP3   OH277071   2.077   3.547  14.626 -0.3664  0.6892  0.1538
18527TIP3    H177072   2.171   3.534  14.611 -0.2435  1.9607 -0.2868
18527TIP3    H277073   2.034   3.483  14.570  0.2281 -1.1342  1.6631
18528TIP3   OH277074   5.450   3.460   0.592 -0.2954 -0.3892  0.6325
18528TIP3    H177075   5.461   3.555   0.598 -0.1700 -0.3854  0.3341
18528TIP3    H277076   5.512   3.432   0.524 -0.9881 -0.5638  0.0595
18529TIP3   OH277077   6.137   1.461  11.400 -0.1293 -0.1895 -0.1132
18529TIP3    H177078   6.107   1.495  11.316  0.1129 -1.1925 -0.6138
18529TIP3    H277079   6.147   1.540  11.454  0.9112  0.6264 -1.3995
18530TIP3   OH277080   1.880   3.603   5.376 -1.0546 -0.1526 -0.1668
18530TIP3    H177081   1.925   3.589   5.459 -3.1275 -0.6332  0.9515
18530TIP3    H277082   1.938   3.662   5.327  0.8861 -0.9871  1.0118
18531TIP3   OH277083   4.229   3.281   5.690  0.7186 -0.9084 -0.0220
18531TIP3    H177084   4.221   3.242   5.603  1.2121  0.3116 -0.6477
18531TIP3    H277085   4.235   3.375   5.673  0.0963 -0.5913  1.3868
18532TIP3   OH277086   1.501   5.471  12.141  1.0069  0.5274  0.6474
18532TIP3    H177087   1.534   5.458  12.052  0.3986 -0.2916  0.5304
18532TIP3    H277088   1.553   5.411  12.195 -0.1504 -0.6683  0.4835
18533TIP3   OH277089   0.872   0.260  14.314  0.5344 -0.0637 -0.5527
18533TIP3    H177090   0.782   0.291  14.317  1.0880  1.5338  1.3752
18533TIP3    H277091   0.914   0.315  14.248 -0.1678 -1.8149 -2.5779
18534TIP3   OH277092   0.465   0.662   4.848 -0.0780 -0.3141  0.6327
18534TIP3    H177093   0.466   0.757   4.837 -1.7752 -0.2880  0.5527
18534TIP3    H277094   0.402   0.646   4.918 -1.2948 -1.4983 -0.6643
18535TIP3   OH277095   1.661   2.590   3.103 -0.5715  0.3957 -0.2657
18535TIP3    H177096   1.652   2.534   3.026  0.5743 -0.5271  0.2356
18535TIP3    H277097   1.602   2.550   3.168 -1.1922  0.9046 -0.5096
18536TIP3   OH277098   5.214   6.768  16.150 -0.4464  0.1467 -0.5868
18536TIP3    H177099   5.291   6.738  16.101  0.9684 -0.0445  1.5839
18536TIP3    H277100   5.223   6.725  16.235 -3.6731 -0.8565 -0.6504
18537TIP3   OH277101   5.778   6.024  14.642 -0.5913 -0.1375 -0.5479
18537TIP3    H177102   5.752   6.025  14.734 -0.9740 -1.5166 -0.6192
18537TIP3    H277103   5.719   6.086  14.600 -2.5550 -1.7643 -0.3685
18538TIP3   OH277104   3.414   5.559   5.422  0.3184 -0.2644 -0.4978
18538TIP3    H177105   3.393   5.589   5.334 -0.8798  0.6080  0.0518
18538TIP3    H277106   3.373   5.472   5.429 -1.4353  0.5535 -0.1306
18539TIP3   OH277107   1.945   5.074  16.703 -0.0475 -0.4176  0.7097
18539TIP3    H177108   2.016   5.132  16.729 -0.7118  0.8162 -0.1426
18539TIP3    H277109   1.989   4.992  16.680  1.2603  0.6644 -0.9000
18540TIP3   OH277110   0.250   3.685  11.931  0.3529 -0.4595  0.2319
18540TIP3    H177111   0.259   3.773  11.966 -0.7660  0.4608 -1.6379
18540TIP3    H277112   0.327   3.638  11.964  1.0666  1.2542  1.1308
18541TIP3   OH277113   4.064   4.200   3.327  0.2032  0.4895 -0.0966
18541TIP3    H177114   4.021   4.275   3.285 -0.3218  0.6689  0.7488
18541TIP3    H277115   3.996   4.134   3.335  0.5529  0.0826 -0.4286
18542TIP3   OH277116   0.946   5.335  14.993 -0.1430 -0.1456  0.4591
18542TIP3    H177117   0.954   5.273  15.066 -0.1344 -1.5431 -0.6958
18542TIP3    H277118   0.965   5.420  15.032 -3.3125 -0.3302  2.8859
18543TIP3   OH277119   6.022   1.295  11.997 -0.0078  0.1890  0.1400
18543TIP3    H177120   5.954   1.229  11.980  0.9027 -0.3942 -1.4864
18543TIP3    H277121   6.024   1.303  12.093 -1.3949 -0.7917  0.2861
18544TIP3   OH277122   5.478   4.484   5.660  0.1222  0.5028  0.1586
18544TIP3    H177123   5.466   4.514   5.570  2.2883  1.2679  0.0726
18544TIP3    H277124   5.430   4.548   5.713 -1.8930 -0.4292 -0.4356
18545TIP3   OH277125   5.856   2.191  11.509 -0.0288  0.1380  0.3938
18545TIP3    H177126   5.865   2.276  11.466 -1.4400  0.3314  0.4230
18545TIP3    H277127   5.762   2.171  11.503 -0.2669  0.0272  3.0582
18546TIP3   OH277128   0.931   3.907   4.420  0.1788  0.0477 -0.2512
18546TIP3    H177129   0.848   3.893   4.374  1.9893 -0.0276 -3.8321
18546TIP3    H277130   0.948   4.001   4.409  0.2716  0.2106  1.1237
18547TIP3   OH277131   2.482   1.405  12.107  0.0649  0.2125 -0.3778
18547TIP3    H177132   2.552   1.449  12.060  1.4026 -1.7512 -0.3591
18547TIP3    H277133   2.410   1.399  12.044  0.4350  0.9894 -0.8753
18548TIP3   OH277134   4.581   5.422  13.653 -0.1627 -0.4621 -0.1477
18548TIP3    H177135   4.626   5.485  13.709  1.0392 -0.5982 -0.9291
18548TIP3    H277136   4.502   5.467  13.624 -1.0414 -0.5346  1.9720
18549TIP3   OH277137   6.176   0.209  14.078 -0.4078 -0.4466  0.5332
18549TIP3    H177138   6.117   0.136  14.097 -0.3301 -1.3298 -2.2030
18549TIP3    H277139   6.263   0.170  14.075 -0.3468 -0.2509 -0.7897
18550TIP3   OH277140   5.950   0.131  12.686  0.3128  0.2108 -0.4557
18550TIP3    H177141   5.889   0.163  12.753 -0.1085  0.4843 -0.9670
18550TIP3    H277142   6.020   0.090  12.736 -0.7572 -0.9677  0.1373
18551TIP3   OH277143   5.356   3.986  15.439 -0.4390  0.0409 -0.3863
18551TIP3    H177144   5.326   3.897  15.422 -0.3559 -0.0454 -0.0935
18551TIP3    H277145   5.439   3.993  15.392 -0.0725 -0.2877  0.1958
18552TIP3   OH277146   6.613   1.294  11.258  0.2567  0.5191 -0.1078
18552TIP3    H177147   6.551   1.277  11.186 -1.0681  3.9726  0.0238
18552TIP3    H277148   6.696   1.258  11.227 -1.0444 -1.3011 -1.7490
18553TIP3   OH277149   1.654   5.128   3.452  0.1924 -0.0383 -0.1663
18553TIP3    H177150   1.659   5.104   3.359  1.1170 -1.4900  0.2138
18553TIP3    H277151   1.731   5.182   3.467  0.0732  0.1490 -0.2219
18554TIP3   OH277152   4.954   2.263   6.158 -0.0796  0.1744  0.0938
18554TIP3    H177153   4.880   2.251   6.218 -0.4144  0.8437 -0.1785
18554TIP3    H277154   4.977   2.174   6.131 -0.5131 -0.0710  0.5016
18555TIP3   OH277155   5.297   6.332   6.484 -0.1367  0.5718  0.1413
18555TIP3    H177156   5.287   6.426   6.499 -0.6715  0.6039 -0.3561
18555TIP3    H277157   5.389   6.314   6.500 -0.4788  0.7133  2.7356
18556TIP3   OH277158   3.323   1.034  15.398 -0.3463 -0.1606 -0.1348
18556TIP3    H177159   3.349   1.041  15.305 -0.7024  0.8388 -0.1772
18556TIP3    H277160   3.298   0.943  15.409  1.6329 -0.7992 -0.5072
18557TIP3   OH277161   1.323   1.250   4.813  0.2194 -0.2850  0.1825
18557TIP3    H177162   1.279   1.241   4.897 -0.4331 -0.3831 -0.1607
18557TIP3    H277163   1.291   1.177   4.760  0.0327  0.2095 -0.4031
18558TIP3   OH277164   2.562   3.030  15.312  0.1398 -0.0942 -0.1112
18558TIP3    H177165   2.578   2.949  15.359 -0.6428 -1.6881 -2.3955
18558TIP3    H277166   2.484   3.067  15.352 -0.6663 -1.5446 -0.2924
18559TIP3   OH277167   0.876   6.510  15.481 -0.9525  0.0769 -0.2161
18559TIP3    H177168   0.797   6.476  15.437 -0.8992  2.3212 -2.2916
18559TIP3    H277169   0.946   6.499  15.416 -0.2437  0.9849  0.3675
18560TIP3   OH277170   4.097   3.748  13.170  0.2397 -0.1082  0.3157
18560TIP3    H177171   4.059   3.793  13.094 -1.3704  0.4356  1.4117
18560TIP3    H277172   4.057   3.661  13.168  1.3992 -0.6489 -0.3276
18561TIP3   OH277173   1.552   5.660   2.256 -0.5441  0.1175  0.0055
18561TIP3    H177174   1.634   5.630   2.216 -0.9810 -1.8065  0.4635
18561TIP3    H277175   1.495   5.680   2.182  0.0304  0.6371 -0.3106
18562TIP3   OH277176   2.433   6.424  11.947 -0.1756 -0.0909  0.1654
18562TIP3    H177177   2.475   6.402  12.030 -1.1229 -1.2886  0.3704
18562TIP3    H277178   2.339   6.426  11.968 -0.4349 -0.4868 -0.8808
18563TIP3   OH277179   4.107   2.238   0.911  0.5002  0.1712  0.0372
18563TIP3    H177180   4.116   2.289   0.991  0.7673  1.2138 -0.6316
18563TIP3    H277181   4.152   2.290   0.844  1.1016 -1.1270 -0.6050
18564TIP3   OH277182   3.958   1.584   6.006 -0.1875  0.3817  0.5562
18564TIP3    H177183   3.940   1.574   5.912 -0.6411  1.0067  0.5653
18564TIP3    H277184   4.004   1.668   6.012  0.1263  0.1912  0.8653
18565TIP3   OH277185   3.623   6.113  12.653 -0.3123 -0.4536 -0.1236
18565TIP3    H177186   3.678   6.176  12.701 -1.0170 -0.7552  1.1302
18565TIP3    H277187   3.613   6.039  12.714  0.7567 -1.9496 -1.6802
18566TIP3   OH277188   1.216   6.257  14.913 -0.2689 -0.3027 -0.4707
18566TIP3    H177189   1.296   6.309  14.912 -0.1891 -0.4232 -0.3586
18566TIP3    H277190   1.188   6.257  15.005 -0.4657 -0.1574 -0.5288
18567TIP3   OH277191   6.494   1.398  15.278 -0.0056 -0.1979 -0.2112
18567TIP3    H177192   6.542   1.331  15.327 -0.7433  0.2033  1.1107
18567TIP3    H277193   6.559   1.468  15.264  0.6406 -0.9723 -1.2134
18568TIP3   OH277194   4.532   4.607  12.899  0.0827 -0.1316 -0.2887
18568TIP3    H177195   4.482   4.685  12.925 -0.5421 -0.1233 -1.4486
18568TIP3    H277196   4.624   4.633  12.908 -0.1032  0.0580  1.2797
18569TIP3   OH277197   1.374   0.369  14.173 -1.0913 -0.4367 -0.4376
18569TIP3    H177198   1.343   0.280  14.190 -2.0430 -0.0536 -0.1302
18569TIP3    H277199   1.334   0.392  14.089 -0.4569 -0.4689 -0.7535
18570TIP3   OH277200   3.325   3.566   6.368 -0.5126 -0.2296 -0.5779
18570TIP3    H177201   3.411   3.580   6.408 -1.0509 -0.4082  0.6589
18570TIP3    H277202   3.332   3.478   6.330 -0.0300 -0.0924 -0.8255
18571TIP3   OH277203   3.340   5.237  16.725  0.5538  0.0144  0.1954
18571TIP3    H177204   3.283   5.179  16.675  0.8239 -0.3639  0.3279
18571TIP3    H277205   3.302   5.238  16.813 -0.6406  1.6315 -0.2814
18572TIP3   OH277206   5.642   2.176  14.800  0.7040  0.3190 -0.1478
18572TIP3    H177207   5.645   2.108  14.867 -0.7636  0.4082  0.0254
18572TIP3    H277208   5.668   2.256  14.846 -0.6457  0.4497  0.4314
18573TIP3   OH277209   2.087   2.643   2.014 -0.5179 -0.3817 -0.2451
18573TIP3    H177210   2.174   2.640   1.975  0.4198  0.7062  1.5836
18573TIP3    H277211   2.076   2.557   2.054 -0.1122 -0.4202 -0.2089
18574TIP3   OH277212   4.886   5.294  11.755  0.3003 -0.3283 -0.4608
18574TIP3    H177213   4.919   5.359  11.694  0.6588  1.0480  1.1268
18574TIP3    H277214   4.961   5.273  11.811 -0.1950 -1.0201 -0.0378
18575TIP3   OH277215   5.596   1.196   6.082  0.5887  0.4772  0.3070
18575TIP3    H177216   5.600   1.100   6.087  0.4895  0.4740  0.3111
18575TIP3    H277217   5.504   1.217   6.097  0.5100  0.5425 -0.2591
18576TIP3   OH277218   5.635   6.300  16.524 -0.2999 -0.0607 -0.3030
18576TIP3    H177219   5.582   6.379  16.537 -0.3017  0.0191 -0.7764
18576TIP3    H277220   5.617   6.274  16.434  0.6741  0.1292 -0.5597
18577TIP3   OH277221   1.644   0.026   5.711 -0.2872  0.5078 -0.0762
18577TIP3    H177222   1.713   0.061   5.768 -1.0392 -2.3745  2.9050
18577TIP3    H277223   1.571   0.086   5.723  0.4538  1.4827 -0.2720
18578TIP3   OH277224   5.689   5.428   2.751  0.2335  0.5081  0.0125
18578TIP3    H177225   5.681   5.441   2.845  0.3463  0.2738  0.0549
18578TIP3    H277226   5.705   5.334   2.740 -2.4036  0.0214 -0.3945
18579TIP3   OH277227   3.717   1.280  13.433 -0.4052 -0.1640 -0.3301
18579TIP3    H177228   3.778   1.318  13.496 -1.3347  1.1186 -0.1498
18579TIP3    H277229   3.681   1.203  13.477  0.6242 -0.5981 -0.2146
18580TIP3   OH277230   4.364   2.503  12.281  0.2688 -0.0073  0.8070
18580TIP3    H177231   4.328   2.572  12.225  0.0334 -1.6946 -1.1978
18580TIP3    H277232   4.329   2.523  12.368 -0.4750  1.8934  0.1290
18581TIP3   OH277233   4.927   2.570  13.243  0.4150  0.2577 -0.0920
18581TIP3    H177234   4.990   2.519  13.294 -0.2541  0.4400  0.9538
18581TIP3    H277235   4.974   2.593  13.163  0.9563 -1.3857 -0.2778
18582TIP3   OH277236   1.114   3.257  16.080 -0.9237 -0.4904 -0.6610
18582TIP3    H177237   1.178   3.210  16.134  0.4161  1.6148 -0.2901
18582TIP3    H277238   1.166   3.323  16.035 -2.9712  2.1889  0.6552
18583TIP3   OH277239   5.278   1.840   6.652 -0.2571 -0.3006 -0.1499
18583TIP3    H177240   5.336   1.863   6.579  1.9905  1.6335  2.0742
18583TIP3    H277241   5.289   1.911   6.715 -1.9479 -1.9479  2.1654
18584TIP3   OH277242   5.820   5.141   4.645 -0.4799  0.2870 -0.7033
18584TIP3    H177243   5.762   5.175   4.713 -0.9672 -0.8559 -0.5296
18584TIP3    H277244   5.908   5.156   4.679 -0.7137 -0.1035  0.1028
18585TIP3   OH277245   5.580   4.609   6.254  0.2936 -0.2742  0.4733
18585TIP3    H177246   5.558   4.568   6.337  1.0595  0.3276  0.9841
18585TIP3    H277247   5.660   4.564   6.225 -0.0715 -0.6117 -0.0460
18586TIP3   OH277248   3.980   0.389   4.536 -0.3002 -0.1714 -0.4286
18586TIP3    H177249   4.017   0.424   4.617 -0.3267  2.3803 -1.4175
18586TIP3    H277250   4.056   0.375   4.480 -0.4084 -0.5076 -0.4956
18587TIP3   OH277251   2.522   3.412  15.616 -0.6436 -0.0020  0.3819
18587TIP3    H177252   2.521   3.384  15.524 -2.4890  1.5589 -0.1251
18587TIP3    H277253   2.562   3.499  15.614  1.6729 -0.9434  1.4685
18588TIP3   OH277254   2.956   5.044  16.559  0.5662 -0.3886 -0.3873
18588TIP3    H177255   2.958   4.997  16.642 -0.8278 -1.5906 -0.9741
18588TIP3    H277256   2.892   5.114  16.572  0.2976 -0.6185 -0.4470
18589TIP3   OH277257   6.173   1.377   3.283 -0.2295 -0.4764  0.1055
18589TIP3    H177258   6.101   1.367   3.221 -0.2302  2.0187 -0.3929
18589TIP3    H277259   6.226   1.449   3.248  1.1477 -0.6255  1.7193
18590TIP3   OH277260   2.050   1.335  16.520  0.1212  0.4693 -0.2740
18590TIP3    H177261   2.114   1.290  16.465 -0.1164  1.5910 -1.5230
18590TIP3    H277262   2.039   1.421  16.479 -1.0763  0.8483  0.7681
18591TIP3   OH277263   5.142   0.645  16.449  0.2024 -0.1640 -0.1416
18591TIP3    H177264   5.140   0.549  16.456 -1.0122 -0.1218  0.1724
18591TIP3    H277265   5.218   0.662  16.393 -0.8321 -1.4190 -2.0563
18592TIP3   OH277266   2.207   6.120  16.859 -0.1081 -0.3741 -0.2946
18592TIP3    H177267   2.173   6.054  16.798 -0.9605 -0.2360  0.0203
18592TIP3    H277268   2.182   6.088  16.945  0.9812 -0.4997 -0.0046
18593TIP3   OH277269   5.627   1.747  13.442 -0.2880 -0.4746  0.4356
18593TIP3    H177270   5.574   1.817  13.481 -0.9330  0.3239 -1.7360
18593TIP3    H277271   5.576   1.668  13.456  0.3230 -0.5436  2.6878
18594TIP3   OH277272   5.078   4.986   2.080  0.0130  0.5171 -0.0964
18594TIP3    H177273   5.059   4.907   2.031  0.7595 -0.5669  1.2946
18594TIP3    H277274   5.013   4.987   2.150 -0.0845  1.2252 -0.1870
18595TIP3   OH277275   1.054   0.261   0.220 -0.2983 -1.1640 -0.4042
18595TIP3    H177276   1.119   0.191   0.207 -0.9320 -2.0538  0.9511
18595TIP3    H277277   0.973   0.215   0.240 -1.3076 -0.0522 -1.7521
18596TIP3   OH277278   3.144   0.722   1.554 -0.1671 -0.1681 -0.3568
18596TIP3    H177279   3.131   0.633   1.585 -2.4428  0.0712 -0.4399
18596TIP3    H277280   3.109   0.777   1.623  0.1639  0.6167 -0.7966
18597TIP3   OH277281   5.160   2.731   3.053  0.1533  0.2886 -0.7783
18597TIP3    H177282   5.207   2.746   2.971  1.8236 -2.1328 -0.3756
18597TIP3    H277283   5.069   2.714   3.026  0.5057  0.3450 -2.0606
18598TIP3   OH277284   3.796   6.737   1.379 -0.1065  0.5295  0.3551
18598TIP3    H177285   3.736   6.759   1.451  1.3788  0.6703  1.6036
18598TIP3    H277286   3.836   6.820   1.355  1.0190  0.1617  0.8937
18599TIP3   OH277287   0.434   3.509   0.398  0.4014 -0.6825  0.1680
18599TIP3    H177288   0.523   3.534   0.423 -0.5105  3.0540  0.2338
18599TIP3    H277289   0.414   3.563   0.321 -1.1502 -2.9804 -1.1786
18600TIP3   OH277290   6.231   5.240  16.955  0.7488  0.0238 -0.3930
18600TIP3    H177291   6.229   5.269  16.864  1.3131 -0.8257 -0.6901
18600TIP3    H277292   6.157   5.179  16.963  1.7492 -1.2836 -0.7867
18601TIP3   OH277293   2.131   4.217   3.665  0.1086  0.7594  0.9950
18601TIP3    H177294   2.092   4.253   3.745  0.6962  2.0945  0.7117
18601TIP3    H277295   2.192   4.285   3.635  0.2817  0.0670 -0.3106
18602TIP3   OH277296   1.771   1.379   0.237  0.0057 -0.3018  0.4424
18602TIP3    H177297   1.746   1.385   0.144  1.5843 -1.2255 -0.0756
18602TIP3    H277298   1.709   1.315   0.273  0.7915 -1.6953 -0.5480
18603TIP3   OH277299   4.154   6.135   1.230 -0.0975 -0.1646  0.5108
18603TIP3    H177300   4.206   6.104   1.304  2.3127  1.1524 -0.5174
18603TIP3    H277301   4.099   6.061   1.206  1.4789 -1.7356  1.5278
18604TIP3   OH277302   4.568   0.940   5.239 -0.6235  0.2173  0.0521
18604TIP3    H177303   4.512   0.898   5.305  0.0725  1.7492  1.7035
18604TIP3    H277304   4.631   0.991   5.291  0.2231  1.1439 -1.8158
18605TIP3   OH277305   0.782   4.334   0.408 -0.7610 -0.4613 -0.4922
18605TIP3    H177306   0.801   4.348   0.315 -0.6235 -0.7517 -0.5094
18605TIP3    H277307   0.865   4.353   0.452 -0.6715 -0.8674 -0.4829
18606TIP3   OH277308   0.379   1.180   4.814 -0.5595 -0.7746 -0.5605
18606TIP3    H177309   0.337   1.104   4.853  2.3964 -1.8838  0.7131
18606TIP3    H277310   0.372   1.248   4.880 -1.2644 -0.5769 -0.8203
18607TIP3   OH277311   5.697   2.089   4.221  0.0721  0.1270 -0.5174
18607TIP3    H177312   5.792   2.102   4.214  0.7110 -1.8792  2.6399
18607TIP3    H277313   5.681   2.006   4.175  0.0595 -0.0898 -0.1295
18608TIP3   OH277314   4.846   0.525   2.667 -0.0257 -0.4375  0.1308
18608TIP3    H177315   4.930   0.490   2.636  0.2141  0.4113 -0.2003
18608TIP3    H277316   4.856   0.620   2.661 -0.2036 -0.2457  2.1793
18609TIP3   OH277317   6.094   2.414  14.070 -0.0971 -0.3933  0.4787
18609TIP3    H177318   6.052   2.500  14.071  0.5769 -0.0497  2.0101
18609TIP3    H277319   6.055   2.368  14.145  0.0332 -1.1882  0.0667
18610TIP3   OH277320   2.591   0.973  12.443 -0.0481  0.4113 -0.2330
18610TIP3    H177321   2.683   0.999  12.435 -0.5500  2.2089 -0.4793
18610TIP3    H277322   2.542   1.047  12.408 -1.6259 -0.2437  0.5132
18611TIP3   OH277323   1.391   4.852  11.371 -0.2577 -0.0085 -0.2536
18611TIP3    H177324   1.385   4.759  11.348 -0.2484 -0.8128  2.5700
18611TIP3    H277325   1.483   4.874  11.358 -0.3961 -0.1400 -1.6415
18612TIP3   OH277326   0.540   4.171   4.849 -0.1277 -0.0235  0.0841
18612TIP3    H177327   0.515   4.083   4.820  0.0339 -0.2945  0.7598
18612TIP3    H277328   0.530   4.169   4.944  1.1496  0.2830  0.2454
18613TIP3   OH277329   4.325   4.059  16.718 -0.0629  0.6826 -0.5890
18613TIP3    H177330   4.277   4.133  16.682 -1.8140 -0.6173 -1.0121
18613TIP3    H277331   4.277   3.981  16.689  0.7913 -0.5766  1.1629
18614TIP3   OH277332   0.483   5.017  12.504  0.0166  0.4100  0.0783
18614TIP3    H177333   0.484   4.977  12.418 -0.2024  2.8937 -1.1871
18614TIP3    H277334   0.514   4.949  12.563  0.9045 -1.1451 -2.0481
18615TIP3   OH277335   2.413   1.863  12.994 -0.8011 -0.1411 -0.0084
18615TIP3    H177336   2.340   1.801  12.981 -1.2069  0.5338 -1.1426
18615TIP3    H277337   2.374   1.935  13.043 -0.8070  0.0486 -0.2897
18616TIP3   OH277338   1.610   6.210   4.470 -0.7487 -0.3974  0.6026
18616TIP3    H177339   1.603   6.296   4.429  0.1043 -0.6382 -0.0745
18616TIP3    H277340   1.596   6.227   4.563  0.3029  0.6233  0.6047
18617TIP3   OH277341   1.392   3.950  14.455 -0.1403 -0.2013 -0.6272
18617TIP3    H177342   1.352   4.008  14.520  0.7734  1.1718 -1.2413
18617TIP3    H277343   1.463   3.907  14.501 -0.9363 -0.9945 -0.1169
18618TIP3   OH277344   1.848   0.043   1.440 -0.3546 -0.1785  0.2345
18618TIP3    H177345   1.840  -0.049   1.418  0.4667  0.0087 -0.9917
18618TIP3    H277346   1.761   0.070   1.468 -0.0663 -1.9221  3.2465
18619TIP3   OH277347   0.643   6.273   4.985  0.1917  0.3366 -0.4321
18619TIP3    H177348   0.664   6.180   4.977 -0.3073  0.1998 -0.1785
18619TIP3    H277349   0.550   6.279   4.963  0.2010  0.7647 -0.3661
18620TIP3   OH277350   0.786   2.610  16.417  0.2075  0.5159 -0.1850
18620TIP3    H177351   0.765   2.690  16.466  0.0798  0.7667 -0.6412
18620TIP3    H277352   0.733   2.617  16.338 -3.0253 -1.9548  1.5042
18621TIP3   OH277353   0.424   4.286   1.626 -0.6286  0.3366 -0.0529
18621TIP3    H177354   0.400   4.258   1.538 -0.4216  0.8081 -0.2612
18621TIP3    H277355   0.514   4.254   1.638 -1.5994 -2.2964  1.0926
18622TIP3   OH277356   6.288   2.249  16.803 -0.1144 -0.2571  0.1024
18622TIP3    H177357   6.264   2.172  16.751 -0.6011  0.2613 -0.4417
18622TIP3    H277358   6.380   2.266  16.780 -0.5967  0.5510 -1.3452
18623TIP3   OH277359   1.431   3.795  12.749  0.0046  0.0954 -0.0279
18623TIP3    H177360   1.509   3.836  12.711 -0.7651 -0.3827 -2.2552
18623TIP3    H277361   1.436   3.816  12.842  2.6759  0.2574 -0.1350
18624TIP3   OH277362   6.476   0.025   0.041  0.1056 -0.2043  0.1173
18624TIP3    H177363   6.492   0.119   0.053 -1.6118  0.1161  0.1106
18624TIP3    H277364   6.406   0.005   0.102  0.5646 -1.5470  0.2347
18625TIP3   OH277365   5.931   6.682  13.485  0.5101  0.3767 -0.0270
18625TIP3    H177366   5.973   6.766  13.497  1.9192  0.0026 -1.9406
18625TIP3    H277367   5.986   6.635  13.422 -1.5296 -1.0328 -0.9021
18626TIP3   OH277368   4.444   1.225  16.817 -0.4779 -0.3465 -0.1211
18626TIP3    H177369   4.406   1.273  16.743  0.7163  1.8097  0.5957
18626TIP3    H277370   4.470   1.292  16.879  0.3950 -1.9971  1.3904
18627TIP3   OH277371   2.537   2.285  12.638 -0.2249  0.0947 -0.1850
18627TIP3    H177372   2.579   2.280  12.552 -2.6761  2.3818 -1.6773
18627TIP3    H277373   2.515   2.194  12.659  1.2198 -0.6094 -1.5207
18628TIP3   OH277374   3.837   5.870   2.136  0.3799  0.5993 -0.0431
18628TIP3    H177375   3.873   5.876   2.048  1.0889 -1.2136  0.0859
18628TIP3    H277376   3.913   5.852   2.192 -0.2786  0.0899  0.7099
18629TIP3   OH277377   5.140   6.691   1.171  0.2587 -0.1749 -0.1823
18629TIP3    H177378   5.212   6.640   1.135  0.4230 -0.7922  0.9756
18629TIP3    H277379   5.139   6.670   1.265  0.0452  1.6032  0.2538
18630TIP3   OH277380   2.319   1.823  14.516  0.0190 -0.4025 -0.4095
18630TIP3    H177381   2.257   1.858  14.579  0.3544  1.1943 -0.9409
18630TIP3    H277382   2.274   1.747  14.478 -0.4246 -1.0446  1.2799
18631TIP3   OH277383   1.221   6.634   1.897 -0.2173 -0.3308 -0.2864
18631TIP3    H177384   1.195   6.683   1.974  1.1304 -1.2584  0.7994
18631TIP3    H277385   1.255   6.700   1.836 -1.2381  0.3938 -0.0849
18632TIP3   OH277386   4.756   4.627  12.708  0.4869 -0.1960  0.0199
18632TIP3    H177387   4.836   4.611  12.757  0.0793 -0.7319  0.5339
18632TIP3    H277388   4.741   4.546  12.660 -0.1488 -0.3920  0.5292
18633TIP3   OH277389   6.226   0.604  12.393  0.3428 -0.1510  0.4887
18633TIP3    H177390   6.166   0.537  12.360  1.5233 -0.0931 -1.9846
18633TIP3    H277391   6.169   0.678  12.415 -0.5860  0.0053 -2.0426
18634TIP3   OH277392   1.176   5.637  14.015  0.1282  0.2619  0.1168
18634TIP3    H177393   1.247   5.590  14.057 -0.2243  0.1152  0.5554
18634TIP3    H277394   1.096   5.604  14.056 -0.2292  0.1208 -0.6602
18635TIP3   OH277395   5.478   3.715   5.107 -0.0251 -0.6499 -0.3601
18635TIP3    H177396   5.552   3.721   5.047 -0.5117 -0.3958 -0.9525
18635TIP3    H277397   5.429   3.796   5.092  0.6416  0.1468  1.4631
18636TIP3   OH277398   0.311   3.522   5.519  0.0866 -0.2153 -0.4988
18636TIP3    H177399   0.248   3.511   5.447 -0.2358 -1.0258 -0.1072
18636TIP3    H277400   0.364   3.442   5.517 -0.4310 -0.6102  0.6440
18637TIP3   OH277401   3.035   0.017  11.427 -0.5832  0.5948  0.1681
18637TIP3    H177402   2.997   0.092  11.380 -0.9221 -0.0273 -0.5718
18637TIP3    H277403   2.964  -0.048  11.429 -0.4700  0.4945  1.2883
18638TIP3   OH277404   1.885   1.759   4.780  0.2335  0.0061  0.5283
18638TIP3    H177405   1.971   1.749   4.821 -0.1494 -0.8175  1.1594
18638TIP3    H277406   1.887   1.848   4.743  1.7609 -0.4001 -0.4569
18639TIP3   OH277407   4.107   2.222   3.865 -0.1987  0.2743 -0.0236
18639TIP3    H177408   4.199   2.197   3.858  0.0474  0.7457  1.3219
18639TIP3    H277409   4.063   2.169   3.798  0.8689 -0.8504  0.1271
18640TIP3   OH277410   5.978   0.463   6.310 -0.1766  0.2942 -0.2250
18640TIP3    H177411   5.918   0.535   6.332  0.4428  0.5364  0.7423
18640TIP3    H277412   6.012   0.486   6.224 -0.8151  0.6022 -0.3974
18641TIP3   OH277413   3.684   6.366   3.380  0.3664  0.3322  0.8245
18641TIP3    H177414   3.740   6.348   3.305  0.3820  0.3621  0.8287
18641TIP3    H277415   3.731   6.330   3.455 -0.3357 -1.0279  0.6422
18642TIP3   OH277416   6.075   1.621  15.515  0.1511  0.4278 -0.2763
18642TIP3    H177417   6.026   1.625  15.432  0.7252  1.3179 -0.5835
18642TIP3    H277418   6.013   1.582  15.577 -0.2843 -0.2805 -1.1239
18643TIP3   OH277419   2.248   0.895  11.584 -1.3111 -0.1916  0.0280
18643TIP3    H177420   2.208   0.961  11.527 -0.5158 -0.1260 -0.4642
18643TIP3    H277421   2.269   0.943  11.664  0.4224  0.5048 -0.7843
18644TIP3   OH277422   6.206   5.748  16.796  0.1178 -0.3276  0.2038
18644TIP3    H177423   6.214   5.689  16.871  1.5447 -2.0634 -1.2262
18644TIP3    H277424   6.112   5.763  16.787 -0.4417 -3.2344  0.0719
18645TIP3   OH277425   0.773   3.787   0.411 -0.5698 -0.0756  0.3717
18645TIP3    H177426   0.782   3.826   0.499  0.3886 -0.7208  0.5806
18645TIP3    H277427   0.835   3.836   0.357 -0.2447 -0.4982  0.3544
18646TIP3   OH277428   3.442   5.792  10.527 -0.2762  0.2398  0.0860
18646TIP3    H177429   3.489   5.716  10.561  0.3577  0.8550  0.5999
18646TIP3    H277430   3.354   5.759  10.509  0.4258 -1.0439 -1.2864
18647TIP3   OH277431   6.771   2.287  11.623  0.8295  0.1208  0.0142
18647TIP3    H177432   6.822   2.236  11.560  0.3617  0.5942 -0.7767
18647TIP3    H277433   6.789   2.247  11.708  0.9155 -0.9842 -0.5119
18648TIP3   OH277434   1.710   3.001   2.263 -0.0063  0.1615 -0.0606
18648TIP3    H177435   1.622   2.981   2.230 -0.1185 -1.3943  1.0677
18648TIP3    H277436   1.769   2.957   2.201 -0.0709  0.1195 -0.0926
18649TIP3   OH277437   1.276   1.798  16.060 -0.5249 -0.0008  0.7204
18649TIP3    H177438   1.309   1.833  15.977  0.0768 -1.3203  0.3637
18649TIP3    H277439   1.220   1.724  16.033  0.9298 -1.4498  1.5006
18650TIP3   OH277440   0.464   3.525   2.070 -0.0486  0.3623 -0.2304
18650TIP3    H177441   0.384   3.534   2.122 -0.2493  4.2839 -0.9783
18650TIP3    H277442   0.532   3.510   2.135 -1.0123 -0.7331  0.5964
18651TIP3   OH277443   2.517   2.474  12.951 -0.0390  0.7518  0.6711
18651TIP3    H177444   2.559   2.388  12.957 -4.1224 -1.4774  0.5474
18651TIP3    H277445   2.432   2.463  12.994 -0.9251  4.6713  0.3374
18652TIP3   OH277446   0.744   3.047   1.844 -0.2014  0.5835 -0.7330
18652TIP3    H177447   0.824   3.064   1.795 -0.0831 -0.2906 -0.8551
18652TIP3    H277448   0.682   3.014   1.778  0.2281 -1.4359 -0.1954
18653TIP3   OH277449   1.900   4.088  15.235  0.2338 -0.2381 -0.3646
18653TIP3    H177450   1.816   4.081  15.190  0.2314 -0.2440 -0.3592
18653TIP3    H277451   1.885   4.044  15.319 -0.4256  1.6823  0.5896
18654TIP3   OH277452   3.379   6.790   5.920  0.3201 -0.0564 -0.4553
18654TIP3    H177453   3.418   6.830   5.997 -1.0831  0.5713 -0.0389
18654TIP3    H277454   3.286   6.784   5.940  0.1957 -1.7250 -1.3115
18655TIP3   OH277455   4.182   2.912   3.520  0.1879  0.2021  1.1054
18655TIP3    H177456   4.249   2.867   3.570  0.5737  1.1371  1.4508
18655TIP3    H277457   4.191   3.004   3.544  0.3212  0.6741 -0.6003
18656TIP3   OH277458   0.256   5.432  10.702  0.4237 -0.0148 -0.1739
18656TIP3    H177459   0.184   5.494  10.701 -2.0723 -2.6433  1.5035
18656TIP3    H277460   0.241   5.375  10.626 -1.2714 -2.4597  1.8182
18657TIP3   OH277461   5.805   2.975  15.142  0.5888  0.6864  0.1440
18657TIP3    H177462   5.829   2.942  15.228  0.8287  0.7390  0.0986
18657TIP3    H277463   5.744   3.046  15.159 -0.4255 -0.1746  0.2293
18658TIP3   OH277464   1.839   0.802   0.103 -0.2281  0.2221 -0.5691
18658TIP3    H177465   1.909   0.748   0.066 -0.5693 -1.1073  0.6345
18658TIP3    H277466   1.806   0.852   0.029  0.9518 -0.2823 -1.4764
18659TIP3   OH277467   2.372   6.076   3.318  0.3014 -0.0058 -0.1646
18659TIP3    H177468   2.397   6.142   3.253 -0.9128  0.9890  0.3368
18659TIP3    H277469   2.316   6.015   3.269 -0.9983  1.0017  0.0198
18660TIP3   OH277470   2.065   1.765   1.592 -0.4187  0.4160  0.3073
18660TIP3    H177471   2.158   1.787   1.583  0.3114 -2.7683 -1.2862
18660TIP3    H277472   2.026   1.791   1.508 -0.7130  0.6105  0.5013
18661TIP3   OH277473   4.561   3.529   4.231  0.0014 -0.0360  0.2705
18661TIP3    H177474   4.575   3.439   4.262  2.6393  0.1253 -0.2315
18661TIP3    H277475   4.649   3.563   4.217 -0.9565  2.4781 -0.0761
18662TIP3   OH277476   0.097   3.234   3.670  0.0953  0.6326  0.8296
18662TIP3    H177477   0.077   3.313   3.620  0.3245 -0.0281 -0.3197
18662TIP3    H277478   0.029   3.171   3.645  0.7219  0.0011  0.6700
18663TIP3   OH277479   0.298   4.121   3.074 -0.1673  0.5738 -0.6759
18663TIP3    H177480   0.356   4.072   3.017  0.4860  2.2998 -1.5747
18663TIP3    H277481   0.339   4.114   3.161 -1.5125 -2.5944 -0.1691
18664TIP3   OH277482   6.137   3.247   1.683  0.1650 -0.7985 -0.1483
18664TIP3    H177483   6.189   3.167   1.676  0.8678 -0.4953  1.2431
18664TIP3    H277484   6.047   3.216   1.698  0.1861 -1.3133 -1.0008
18665TIP3   OH277485   5.503   4.788   4.158 -0.1386 -0.2058 -0.3154
18665TIP3    H177486   5.428   4.834   4.121 -0.7001  0.5455  1.6168
18665TIP3    H277487   5.572   4.798   4.093 -1.0390  1.0961 -1.1190
18666TIP3   OH277488   4.989   3.252  14.204 -0.3245 -0.0893  0.5790
18666TIP3    H177489   5.064   3.285  14.153 -1.9217 -0.9714 -2.5779
18666TIP3    H277490   4.987   3.159  14.185 -2.5693  0.0207  0.0775
18667TIP3   OH277491   4.605   6.081  14.167  0.0631 -0.2287  0.2159
18667TIP3    H177492   4.514   6.055  14.156  0.0587 -0.1999  0.1834
18667TIP3    H277493   4.601   6.170  14.203  0.0781  0.2165 -0.8352
18668TIP3   OH277494   3.455   0.986  11.932 -0.4226 -0.0456  0.0536
18668TIP3    H177495   3.526   0.937  11.890  1.5610 -0.2164  3.3131
18668TIP3    H277496   3.462   1.074  11.895  0.2160 -0.5397 -1.0634
18669TIP3   OH277497   1.817   6.330  13.431  0.5746 -0.4007 -0.2985
18669TIP3    H177498   1.884   6.266  13.408 -0.4116 -2.0854  1.2475
18669TIP3    H277499   1.736   6.279  13.437 -0.1652  0.8857  1.4881
18670TIP3   OH277500   6.696   4.336  13.942  0.2294  0.2789 -0.2415
18670TIP3    H177501   6.685   4.352  14.036  2.4660  2.2269 -0.2021
18670TIP3    H277502   6.724   4.421  13.907 -2.7206  0.2547 -3.1445
18671TIP3   OH277503   0.887   1.980   0.529 -0.5071 -0.4799 -0.0651
18671TIP3    H177504   0.815   2.014   0.581  1.3159  2.0016  1.0587
18671TIP3    H277505   0.938   2.057   0.506  1.4106 -2.0525 -1.3972
18672TIP3   OH277506   5.436   4.974  12.223 -0.0098  0.3948  0.2320
18672TIP3    H177507   5.360   4.981  12.165  2.0788  1.7205 -2.5417
18672TIP3    H277508   5.494   4.912  12.180  1.0650  0.3926  1.6081
18673TIP3   OH277509   0.820   5.974  13.285  0.3241  0.3132  0.0739
18673TIP3    H177510   0.866   6.036  13.341  0.6483  0.9003 -0.8017
18673TIP3    H277511   0.856   5.889  13.307  0.5845  0.5584  0.6109
18674TIP3   OH277512   6.515   2.680  11.679 -0.3872 -0.5314  0.9750
18674TIP3    H177513   6.609   2.695  11.666 -0.7930  0.3780 -1.5494
18674TIP3    H277514   6.507   2.585  11.690  0.7814 -0.7079  0.4718
18675TIP3   OH277515   0.172   3.245   0.269  0.2533 -0.2033 -0.2900
18675TIP3    H177516   0.199   3.286   0.187 -4.7110  0.6730 -1.8546
18675TIP3    H277517   0.163   3.317   0.331  1.2031 -0.4683  0.1812
18676TIP3   OH277518   5.458   0.958   4.861  0.1347 -0.2652 -0.6097
18676TIP3    H177519   5.435   0.928   4.949 -1.0472 -0.6777 -1.0404
18676TIP3    H277520   5.545   0.997   4.871  0.0894 -0.4546  0.7033
18677TIP3   OH277521   1.100   3.158  13.509 -0.2102  0.2958  0.2184
18677TIP3    H177522   1.022   3.213  13.496 -1.2382 -0.4092  2.9271
18677TIP3    H277523   1.105   3.106  13.429 -1.2972  1.7784 -0.8859
18678TIP3   OH277524   5.814   5.972  14.030  0.4586  0.5037 -0.2946
18678TIP3    H177525   5.743   5.977  13.966 -0.1975 -1.5831  0.1877
18678TIP3    H277526   5.829   6.062  14.057  0.1513  1.3536 -2.7224
18679TIP3   OH277527   1.109   2.170   1.130  0.7189 -0.2355  0.7815
18679TIP3    H177528   1.138   2.172   1.039 -0.9119  1.2198  0.2442
18679TIP3    H277529   1.170   2.227   1.176  0.0508  1.0575  0.0923
18680TIP3   OH277530   3.567   0.561   6.082  0.1259  0.6429 -0.9187
18680TIP3    H177531   3.521   0.523   6.157  1.1501  2.3037  0.6595
18680TIP3    H277532   3.588   0.487   6.026 -1.0551 -0.6162  0.2373
18681TIP3   OH277533   1.379   0.584  12.883  0.4939  0.2764  0.4270
18681TIP3    H177534   1.294   0.604  12.845  0.3782  0.9891  1.0252
18681TIP3    H277535   1.434   0.658  12.859  0.4325  0.7220  1.5708
18682TIP3   OH277536   5.793   3.903  12.025  0.1168 -0.3287  0.2714
18682TIP3    H177537   5.844   3.956  12.086 -0.2568 -0.1575  0.4370
18682TIP3    H277538   5.817   3.937  11.938 -0.1434  0.1288  0.3783
18683TIP3   OH277539   1.089   5.585   0.974  0.8642  0.4614  0.0400
18683TIP3    H177540   1.008   5.535   0.968 -0.4416  2.5872 -2.8669
18683TIP3    H277541   1.081   5.635   1.055 -1.3343  1.3837 -0.6691
18684TIP3   OH277542   4.798   3.368   6.456 -0.4165 -1.1891  0.1684
18684TIP3    H177543   4.809   3.274   6.446 -0.0100 -1.2874  1.3506
18684TIP3    H277544   4.766   3.379   6.546  0.8163 -0.1166  0.4999
18685TIP3   OH277545   2.451   2.716   2.680 -0.0819 -0.3252 -0.2359
18685TIP3    H177546   2.469   2.646   2.743  3.4954 -0.2653 -0.9897
18685TIP3    H277547   2.440   2.671   2.597  0.2206 -0.1219 -0.3884
18686TIP3   OH277548   6.338   5.189   1.588  0.7242  0.4077  0.0939
18686TIP3    H177549   6.314   5.123   1.523 -0.2681  0.4473  0.4036
18686TIP3    H277550   6.426   5.216   1.563 -0.0810  1.3464 -2.0085
18687TIP3   OH277551   0.816   5.657  15.964 -0.4213  0.0523  0.0725
18687TIP3    H177552   0.744   5.716  15.986 -0.5521 -0.6966  1.8088
18687TIP3    H277553   0.773   5.583  15.920 -0.6624 -0.1331  0.6055
18688TIP3   OH277554   3.292   4.480   3.349  0.3482  0.0556  0.2360
18688TIP3    H177555   3.253   4.421   3.285  0.1079  0.5178 -0.0415
18688TIP3    H277556   3.221   4.540   3.373  0.4368 -0.1035  0.9239
18689TIP3   OH277557   4.660   0.857  16.162  0.2739 -0.0732  0.2757
18689TIP3    H177558   4.638   0.945  16.192 -0.0945  1.2345 -3.3454
18689TIP3    H277559   4.738   0.833  16.212 -1.4696  0.7920  3.7525
18690TIP3   OH277560   4.788   5.190   1.612 -0.1290  0.2207  0.1787
18690TIP3    H177561   4.877   5.184   1.577 -0.6568 -0.6730 -1.0997
18690TIP3    H277562   4.753   5.271   1.574 -0.4866 -0.4242 -0.9290
18691TIP3   OH277563   2.817   2.149  13.442  0.6721 -0.3418 -0.3458
18691TIP3    H177564   2.738   2.187  13.404 -0.6193 -3.5400 -1.2085
18691TIP3    H277565   2.879   2.222  13.447 -2.3476  2.4255  0.6580
18692TIP3   OH277566   5.477   0.940  12.171 -0.3555 -0.1647 -0.0597
18692TIP3    H177567   5.525   0.953  12.253 -0.3587 -0.8493  0.0597
18692TIP3    H277568   5.512   1.007  12.112  0.2710 -0.2177  0.2370
18693TIP3   OH277569   3.167   6.383   3.018  0.0637  0.4083  0.2249
18693TIP3    H177570   3.238   6.447   3.028 -0.7684  1.4823 -0.5441
18693TIP3    H277571   3.168   6.361   2.924 -0.5844  0.3842  0.2236
18694TIP3   OH277572   4.828   0.977  15.702  0.1407 -0.4440 -0.1927
18694TIP3    H177573   4.903   1.004  15.755 -0.3688  0.1645  0.2235
18694TIP3    H277574   4.772   0.929  15.763  0.3846 -1.2739 -0.6064
18695TIP3   OH277575   0.511   5.019  14.167 -0.0861  0.8500 -0.4494
18695TIP3    H177576   0.548   4.995  14.082  2.1139 -0.3399  0.7452
18695TIP3    H277577   0.506   5.114  14.165  1.5482  0.9591 -1.3328
18696TIP3   OH277578   5.487   1.396  15.036  0.4969  0.3563 -0.1987
18696TIP3    H177579   5.547   1.450  15.088 -0.9236  2.4573 -0.5974
18696TIP3    H277580   5.485   1.439  14.950  0.1624 -1.0233 -0.9049
18697TIP3   OH277581   6.764   0.080   4.437 -0.4162 -0.4681  0.3732
18697TIP3    H177582   6.834   0.083   4.503  0.4220 -0.8557 -0.4798
18697TIP3    H277583   6.785   0.004   4.383 -2.9645 -2.2427  1.6772
18698TIP3   OH277584   4.298   3.702   1.666 -0.6041 -0.2238 -0.1247
18698TIP3    H177585   4.270   3.617   1.631 -1.8143  0.2349 -0.3236
18698TIP3    H277586   4.218   3.754   1.669 -0.1424  0.4574  1.3324
18699TIP3   OH277587   4.806   4.891   4.677  0.1966  0.0729  0.8896
18699TIP3    H177588   4.750   4.816   4.654 -0.6779  0.5647  1.3605
18699TIP3    H277589   4.746   4.965   4.682  1.3556  1.2920 -1.6903
18700TIP3   OH277590   5.504   4.639  13.210  0.1109  0.7801 -0.4329
18700TIP3    H177591   5.528   4.671  13.123  1.7460  1.6982  0.3078
18700TIP3    H277592   5.509   4.716  13.267  0.3401 -0.0490  0.7190
18701TIP3   OH277593   4.965   3.230   3.197 -0.0267 -0.1628 -0.1654
18701TIP3    H177594   4.984   3.174   3.273 -0.9053  0.5780  0.6376
18701TIP3    H277595   4.918   3.173   3.136 -0.2728 -0.4909  0.3257
18702TIP3   OH277596   4.545   3.910  13.216 -0.2264  0.4664 -0.3191
18702TIP3    H177597   4.593   3.842  13.264  0.0493  1.2883  0.5913
18702TIP3    H277598   4.489   3.951  13.282 -0.3898  1.1355 -0.8644
18703TIP3   OH277599   4.116   4.209  15.474 -0.2342  0.2540  0.1973
18703TIP3    H177600   4.111   4.237  15.383  0.1366  0.2943  0.1861
18703TIP3    H277601   4.177   4.135  15.474 -0.0099  0.4338  0.4511
18704TIP3   OH277602   6.597   4.545   4.013  0.1566  0.1150 -0.2657
18704TIP3    H177603   6.604   4.456   3.978  0.6735 -0.2658  0.7669
18704TIP3    H277604   6.511   4.575   3.985 -0.2065 -0.8792 -0.2491
18705TIP3   OH277605   2.624   1.226  10.998 -0.8180 -0.0409 -0.1535
18705TIP3    H177606   2.668   1.144  11.019  0.7432  1.3665  2.6242
18705TIP3    H277607   2.690   1.278  10.952 -1.3529  0.1744 -0.6973
18706TIP3   OH277608   5.632   3.843   3.586 -0.0698 -0.2810 -0.1798
18706TIP3    H177609   5.698   3.802   3.642 -0.3582 -0.5136 -0.0015
18706TIP3    H277610   5.551   3.837   3.638 -0.0944  0.6231 -0.1027
18707TIP3   OH277611   4.457   4.776   4.855  0.6811  0.2195 -0.5907
18707TIP3    H177612   4.498   4.767   4.769  1.9035 -0.7897  0.0606
18707TIP3    H277613   4.374   4.729   4.847  0.3100  0.9968 -1.4918
18708TIP3   OH277614   5.880   3.525  16.405  0.6981 -0.5041  0.5707
18708TIP3    H177615   5.836   3.445  16.375 -2.9239  1.5607 -0.2514
18708TIP3    H277616   5.820   3.563  16.470  0.9977  2.7173 -0.8440
18709TIP3   OH277617   3.423   4.844   1.604 -0.2805  0.0886  0.3812
18709TIP3    H177618   3.415   4.940   1.605  0.0742  0.1397 -0.6979
18709TIP3    H277619   3.490   4.827   1.538 -2.1769 -1.0235 -1.3637
18710TIP3   OH277620   2.543   2.169   6.051 -0.2192 -0.0433 -0.3865
18710TIP3    H177621   2.453   2.160   6.083  0.3261 -2.8912  0.6161
18710TIP3    H277622   2.596   2.177   6.131  0.5584  0.0930 -0.9079
18711TIP3   OH277623   6.769   4.449  15.833  0.0584  0.6793  0.0957
18711TIP3    H177624   6.726   4.384  15.778  1.8753  1.9735 -3.1331
18711TIP3    H277625   6.730   4.532  15.807  0.8240  1.3293  0.9629
18712TIP3   OH277626   0.170   4.569   2.125  0.3116  0.1300 -0.3818
18712TIP3    H177627   0.227   4.508   2.077  0.1761 -0.3725  0.0892
18712TIP3    H277628   0.194   4.558   2.216 -0.3332  0.1250 -0.2034
18713TIP3   OH277629   2.794   2.679   5.977 -0.0096 -0.0467  0.0922
18713TIP3    H177630   2.763   2.590   5.959 -0.6748  0.1088  0.4324
18713TIP3    H277631   2.787   2.688   6.072 -0.2443  0.4758  0.0297
18714TIP3   OH277632   2.649   2.995  12.130  0.0237 -0.6067  0.2927
18714TIP3    H177633   2.582   3.060  12.110  1.0633  0.5600  0.4750
18714TIP3    H277634   2.730   3.046  12.140  1.0968 -2.0420 -0.6491
18715TIP3   OH277635   5.509   5.160  16.866  0.1642  0.0467  0.5554
18715TIP3    H177636   5.602   5.173  16.850  0.2733  0.0637  1.1811
18715TIP3    H277637   5.470   5.246  16.848 -0.0876 -0.5234 -2.0188
18716TIP3   OH277638   0.119   0.862  12.620 -0.5256  0.3116  0.4899
18716TIP3    H177639   0.209   0.889  12.639  0.5801 -1.1052 -2.0817
18716TIP3    H277640   0.102   0.790  12.681 -0.7599  1.9242  2.4001
18717TIP3   OH277641   5.414   5.929  12.163 -0.3496  0.2418  0.5599
18717TIP3    H177642   5.402   5.860  12.098 -0.0068 -0.1625  0.9155
18717TIP3    H277643   5.451   5.884  12.239 -2.0489  0.4550  1.5507
18718TIP3   OH277644   0.613   2.232   2.920 -0.7419 -0.3611 -0.0746
18718TIP3    H177645   0.670   2.177   2.867 -1.6169 -2.3725  0.9826
18718TIP3    H277646   0.584   2.302   2.861  1.8332  0.0705 -0.9593
18719TIP3   OH277647   0.959   4.925  16.261  0.1438  0.4970 -0.2455
18719TIP3    H177648   1.048   4.949  16.236  0.0972  0.6073 -0.3039
18719TIP3    H277649   0.953   4.832  16.241  0.4173  0.3699  0.2421
18720TIP3   OH277650   1.417   5.731  13.126  0.3010  0.1606  0.6409
18720TIP3    H177651   1.471   5.654  13.141  0.2537  0.2138  1.1037
18720TIP3    H277652   1.345   5.701  13.070  1.0834  0.2047 -0.4154
18721TIP3   OH277653   0.837   6.189  15.323 -0.3814 -0.0325  0.5047
18721TIP3    H177654   0.830   6.271  15.273 -1.4314 -1.4149 -1.7796
18721TIP3    H277655   0.922   6.153  15.299 -0.3464 -0.0882  0.7130
18722TIP3   OH277656   0.626   6.822   5.778 -0.3217  0.2731  0.3969
18722TIP3    H177657   0.707   6.854   5.816  0.8629  1.4305 -2.7848
18722TIP3    H277658   0.650   6.742   5.731 -1.0595  0.4581 -0.3369
18723TIP3   OH277659   0.229   4.804  11.753  0.6326 -0.0210 -0.3220
18723TIP3    H177660   0.206   4.897  11.746 -1.9724 -0.5790 -0.2348
18723TIP3    H277661   0.269   4.796  11.840  0.1840  0.8836 -0.0156
18724TIP3   OH277662   2.816   4.853   4.077 -0.4118  0.0060 -0.2129
18724TIP3    H177663   2.804   4.852   3.982  0.7025  0.6008 -0.3811
18724TIP3    H277664   2.857   4.769   4.098  0.7126  0.4566 -0.4889
18725TIP3   OH277665   5.260   0.628  11.872  0.4450  0.0181  0.2941
18725TIP3    H177666   5.214   0.664  11.948 -1.2852 -1.1013 -0.1706
18725TIP3    H277667   5.294   0.705  11.826 -0.6668  0.8720  0.8603
18726TIP3   OH277668   3.751   2.558   1.804  0.2017 -0.1122 -0.5897
18726TIP3    H177669   3.807   2.574   1.880  0.4371 -2.7843 -0.0813
18726TIP3    H277670   3.679   2.620   1.814  1.1686  0.8532  0.7887
18727TIP3   OH277671   5.571   4.115   1.344  0.4749  0.3578  0.0026
18727TIP3    H177672   5.653   4.067   1.344  1.4804  1.9622  1.3810
18727TIP3    H277673   5.596   4.206   1.365 -1.6750  0.7772  1.0816
18728TIP3   OH277674   0.512   2.950   2.243  0.0028  0.3155  0.7324
18728TIP3    H177675   0.583   2.946   2.179 -0.0759 -0.5516  0.6835
18728TIP3    H277676   0.441   2.993   2.197 -0.6225 -1.7483 -0.3588
18729TIP3   OH277677   2.214   4.705  10.704 -0.1521  1.1501 -0.2184
18729TIP3    H177678   2.170   4.769  10.759  0.5184  2.1124 -0.7590
18729TIP3    H277679   2.174   4.716  10.617 -2.4106 -1.5101  0.3316
18730TIP3   OH277680   4.228   2.086   5.757 -0.1995  0.4741 -0.5217
18730TIP3    H177681   4.135   2.068   5.772 -0.1277  1.1919  0.8865
18730TIP3    H277682   4.266   2.092   5.844  0.8204  2.0313 -1.0313
18731TIP3   OH277683   6.386   5.655   2.368 -0.4370 -0.5061  0.4456
18731TIP3    H177684   6.345   5.633   2.284  0.6413  1.0933 -0.5592
18731TIP3    H277685   6.327   5.618   2.434 -1.0876 -2.1879 -1.0058
18732TIP3   OH277686   0.037   4.109   3.024 -0.2769 -0.4684 -0.0421
18732TIP3    H177687   0.035   4.128   2.930 -0.4988  0.2355  0.0930
18732TIP3    H277688   0.130   4.106   3.047 -0.2065  1.4195  0.0884
18733TIP3   OH277689   4.722   3.446   3.743  0.5953 -0.4060  0.0768
18733TIP3    H177690   4.800   3.499   3.761 -0.1182  0.1138  1.9011
18733TIP3    H277691   4.708   3.395   3.823 -0.8861 -0.5272 -0.2198
18734TIP3   OH277692   1.142   5.336   5.591  0.1301 -0.3973  0.1505
18734TIP3    H177693   1.096   5.324   5.508 -0.9231 -2.0905  0.9444
18734TIP3    H277694   1.097   5.409   5.633 -1.2326 -1.3832  0.4676
18735TIP3   OH277695   4.222   2.628   0.284  0.2549 -0.1074  0.1472
18735TIP3    H177696   4.148   2.647   0.226  0.5998  0.9188  0.0263
18735TIP3    H277697   4.269   2.556   0.241  0.4696  0.5954 -0.8144
18736TIP3   OH277698   5.839   5.495  14.867 -0.0847 -0.4350  0.5047
18736TIP3    H177699   5.914   5.475  14.923 -0.4914  0.1211  1.2665
18736TIP3    H277700   5.813   5.410  14.831  1.6059 -0.4844 -0.6994
18737TIP3   OH277701   1.861   5.674   3.688  0.6348 -0.2780 -0.5878
18737TIP3    H177702   1.949   5.713   3.683  0.1723  0.9741  0.5915
18737TIP3    H277703   1.877   5.585   3.717  1.6621 -0.7974 -2.5514
18738TIP3   OH277704   6.090   6.718   0.055  0.5368  0.5512 -0.8439
18738TIP3    H177705   6.073   6.703   0.148  1.6872  1.1831 -0.5207
18738TIP3    H277706   6.165   6.777   0.053  1.7339 -0.9327 -2.1976
18739TIP3   OH277707   6.529   0.889   4.606 -0.1202  0.1575  0.0820
18739TIP3    H177708   6.610   0.939   4.616 -0.0299 -0.0754  0.5500
18739TIP3    H277709   6.522   0.839   4.688 -0.5791 -0.0491 -0.0833
18740TIP3   OH277710   3.767   1.701  16.636  0.0436  0.1488  0.2762
18740TIP3    H177711   3.843   1.754  16.615 -0.7557  0.1882 -3.1898
18740TIP3    H277712   3.743   1.727  16.725  1.7772  2.9416  0.0463
18741TIP3   OH277713   3.448   6.454  14.203 -0.2366 -0.2213  0.1429
18741TIP3    H177714   3.355   6.461  14.223  0.1473  1.3879  1.6998
18741TIP3    H277715   3.490   6.506  14.272  1.7815 -0.5762 -0.7692
18742TIP3   OH277716   6.313   5.091   2.086  0.4160  0.6721 -0.3251
18742TIP3    H177717   6.225   5.056   2.071  0.2038  1.5040 -1.1122
18742TIP3    H277718   6.364   5.057   2.013  0.4712  1.1191 -0.4935
18743TIP3   OH277719   1.018   4.857  14.895  0.2685  0.0411 -0.0068
18743TIP3    H177720   0.978   4.821  14.816 -0.6799 -1.3751  1.0715
18743TIP3    H277721   0.971   4.938  14.911 -0.5657 -0.4154 -0.0855
18744TIP3   OH277722   0.898   3.777  11.037 -0.4002  0.6615  0.4371
18744TIP3    H177723   0.824   3.836  11.030 -0.5895  0.2943 -0.9689
18744TIP3    H277724   0.957   3.804  10.966  2.0765  2.6005  3.0262
18745TIP3   OH277725   6.588   2.833  14.620  0.7088 -0.3333 -0.4991
18745TIP3    H177726   6.633   2.885  14.687  0.4475 -1.4851  0.5966
18745TIP3    H277727   6.658   2.804  14.561  1.1802 -0.7010  0.2308
18746TIP3   OH277728   6.515   1.161   1.681 -0.4968  0.8369  0.0433
18746TIP3    H177729   6.520   1.251   1.715  1.4475  0.5145  0.7190
18746TIP3    H277730   6.472   1.112   1.751 -1.2269  1.1364 -0.1758
18747TIP3   OH277731   3.000   0.380   6.815 -0.7609 -0.3232  0.7438
18747TIP3    H177732   3.067   0.346   6.756  0.4484 -0.5241  2.1853
18747TIP3    H277733   2.928   0.317   6.809 -0.8244 -0.1360 -0.7755
18748TIP3   OH277734   1.812   5.469   2.884  0.2040  0.2225 -0.1186
18748TIP3    H177735   1.866   5.475   2.805  0.5476  0.7988  0.1527
18748TIP3    H277736   1.747   5.539   2.874 -1.1605 -1.0845 -0.9151
18749TIP3   OH277737   1.703   5.752  15.074  0.0567  0.3430 -0.1420
18749TIP3    H177738   1.718   5.717  14.986  0.2674 -1.2961  0.5196
18749TIP3    H277739   1.770   5.711  15.128 -0.4956  0.8113  0.9237
18750TIP3   OH277740   6.326   0.999  16.305 -0.3613 -0.1319 -0.0943
18750TIP3    H177741   6.319   0.980  16.211  0.0311  1.4045 -0.4690
18750TIP3    H277742   6.244   1.044  16.326 -0.2652 -0.0864  0.1878
18751TIP3   OH277743   0.111   4.826   3.112 -0.5113  0.0891  0.3651
18751TIP3    H177744   0.131   4.824   3.205  0.3561 -1.4261  0.1823
18751TIP3    H277745   0.015   4.825   3.108 -0.5487 -0.3336  1.2298
18752TIP3   OH277746   5.095   3.791   4.307 -0.4780  0.5019 -0.4256
18752TIP3    H177747   5.005   3.786   4.339 -0.4997  0.5203 -0.4839
18752TIP3    H277748   5.148   3.753   4.377 -0.7455 -1.7681 -1.3689
18753TIP3   OH277749   0.080   4.445   1.814 -0.2995 -0.4475  0.4738
18753TIP3    H177750   0.028   4.377   1.856  1.2400 -1.6935  0.4254
18753TIP3    H277751   0.152   4.462   1.874 -1.2996  2.0830  1.0854
18754TIP3   OH277752   2.189   4.148   4.249 -0.7084  0.4570 -0.4706
18754TIP3    H177753   2.281   4.175   4.247 -1.3457  2.8416 -0.0436
18754TIP3    H277754   2.193   4.054   4.266  1.6160  0.7176  0.8924
18755TIP3   OH277755   0.961   1.922  14.027  0.5878 -0.0339 -0.2598
18755TIP3    H177756   0.986   1.935  14.119  1.7212 -0.4193 -0.4950
18755TIP3    H277757   0.953   2.011  13.992 -2.1512  0.2070  0.7559
18756TIP3   OH277758   2.902   0.889  15.100  0.5849 -0.3616 -0.0874
18756TIP3    H177759   2.920   0.953  15.169 -0.9356  1.2577 -1.0838
18756TIP3    H277760   2.961   0.914  15.029 -0.6545  0.5636 -0.8189
18757TIP3   OH277761   4.701   3.477  17.182  0.4938  0.2970 -0.5622
18757TIP3    H177762   4.620   3.459  17.134  0.2249 -0.4714  0.1576
18757TIP3    H277763   4.767   3.492  17.114 -0.1637  0.5099 -1.1542
18758TIP3   OH277764   2.119   4.552   4.218 -0.2073  0.2528  0.1622
18758TIP3    H177765   2.064   4.480   4.186 -1.5783  1.8315 -1.2542
18758TIP3    H277766   2.074   4.583   4.297  0.0742 -0.0716  0.4529
18759TIP3   OH277767   3.284   6.730   5.015  0.9072  0.4825 -0.0506
18759TIP3    H177768   3.346   6.778   4.960 -0.2950  1.8814 -0.2423
18759TIP3    H277769   3.335   6.656   5.050  1.6419 -0.7418 -3.3233
18760TIP3   OH277770   2.314   4.381   1.229  0.8695 -0.4218  0.7330
18760TIP3    H177771   2.222   4.402   1.213  0.7042 -0.5278  1.4799
18760TIP3    H277772   2.321   4.288   1.208  1.2107 -0.0371 -0.9545
18761TIP3   OH277773   5.391   1.614   2.830  0.9560  0.3624  0.9511
18761TIP3    H177774   5.296   1.605   2.837  0.7710 -1.8176 -2.3183
18761TIP3    H277775   5.405   1.696   2.784  0.5514 -0.0375  0.1087
18762TIP3   OH277776   1.328   3.705   3.356  0.3632  0.0427 -0.4336
18762TIP3    H177777   1.363   3.741   3.437 -0.1054  1.5341 -0.8601
18762TIP3    H277778   1.323   3.610   3.372 -1.2057  0.4314  1.8716
18763TIP3   OH277779   4.368   3.314   3.336  0.5475 -0.2664 -0.6823
18763TIP3    H177780   4.276   3.291   3.343  0.5806 -0.4338 -0.7867
18763TIP3    H277781   4.369   3.409   3.326  0.3985 -0.2411 -0.4553
18764TIP3   OH277782   5.083   4.570  11.053  0.0635 -0.1705 -0.0254
18764TIP3    H177783   5.143   4.631  11.009  0.6072 -0.9680 -0.4185
18764TIP3    H277784   5.067   4.501  10.988 -1.1101 -0.0850  0.1590
18765TIP3   OH277785   0.292   6.146   2.045  0.6483 -0.0799 -0.0352
18765TIP3    H177786   0.200   6.123   2.060  0.9075 -1.6715 -0.6838
18765TIP3    H277787   0.329   6.153   2.133 -0.0649  0.4761  0.2318
18766TIP3   OH277788   1.713   2.105   5.897 -0.1926 -0.0769 -0.6037
18766TIP3    H177789   1.694   2.186   5.849  1.3108  1.0702  0.6527
18766TIP3    H277790   1.747   2.134   5.981 -2.0868 -2.0376  0.9452
18767TIP3   OH277791   2.952   5.066   4.676  0.4964 -0.3929  0.0887
18767TIP3    H177792   2.947   5.062   4.772  1.1786  0.9721  0.2069
18767TIP3    H277793   2.904   4.989   4.646  1.0090 -1.3257  1.5463
18768TIP3   OH277794   5.322   1.946  14.294  1.1168  0.7926 -0.1647
18768TIP3    H177795   5.327   1.851  14.299  3.1805  0.8106 -1.0277
18768TIP3    H277796   5.299   1.974  14.383 -1.2298 -0.5459 -0.2789
18769TIP3   OH277797   5.241   0.636  13.181  0.2151 -0.2242 -0.4578
18769TIP3    H177798   5.253   0.577  13.106  1.3998 -0.4043 -0.1614
18769TIP3    H277799   5.315   0.616  13.238  0.4847  1.3467 -0.2068
18770TIP3   OH277800   1.077   0.432  13.665  0.0547  0.0377 -0.5273
18770TIP3    H177801   1.160   0.464  13.629  0.8755 -2.2366 -0.8282
18770TIP3    H277802   1.017   0.429  13.591 -0.3179  1.6055 -0.3262
18771TIP3   OH277803   2.978   3.531   0.746  0.4364 -0.5211  1.0272
18771TIP3    H177804   3.005   3.508   0.835  0.6286  0.9982  1.3935
18771TIP3    H277805   2.900   3.586   0.758  1.2856  0.8870  0.3609
18772TIP3   OH277806   1.828   4.835   1.290  0.8347 -0.6388 -0.3164
18772TIP3    H177807   1.916   4.798   1.281  1.2289  0.2093 -0.0534
18772TIP3    H277808   1.841   4.929   1.280  0.4516 -0.1452  2.8531
18773TIP3   OH277809   2.972   2.098  16.163  0.3324  0.2595 -0.4711
18773TIP3    H177810   2.899   2.157  16.184 -0.1602 -0.7377  0.7936
18773TIP3    H277811   2.990   2.114  16.071 -0.4897  1.6152 -0.4249
18774TIP3   OH277812   5.595   3.999  12.234 -0.4250  0.1782  0.5736
18774TIP3    H177813   5.691   4.002  12.239 -0.2792 -1.1749 -0.8953
18774TIP3    H277814   5.569   3.933  12.298 -0.2938 -0.2922  0.1396
18775TIP3   OH277815   5.368   0.366  11.973  0.4811 -0.4424 -0.1403
18775TIP3    H177816   5.291   0.391  12.024  0.4314 -0.4182 -0.2254
18775TIP3    H277817   5.400   0.449  11.937  0.2085 -0.5206 -0.5740
18776TIP3   OH277818   4.032   3.817   0.460  0.1614 -0.4166  0.7185
18776TIP3    H177819   4.032   3.810   0.555 -0.8040 -0.4834  0.7175
18776TIP3    H277820   4.104   3.878   0.441  0.6351 -0.7246  1.4525
18777TIP3   OH277821   2.116   5.883  11.834  0.2845  0.0091 -0.1629
18777TIP3    H177822   2.028   5.886  11.873  1.1195  0.0856  1.8161
18777TIP3    H277823   2.137   5.974  11.815 -0.2269 -0.0516 -1.1033
18778TIP3   OH277824   1.013   6.699   0.498  0.1752  0.0182 -0.1406
18778TIP3    H177825   0.994   6.608   0.522 -1.0340  0.2198 -0.2700
18778TIP3    H277826   1.108   6.702   0.491  0.2499 -1.1945  0.0378
18779TIP3   OH277827   0.830   0.543  10.893 -0.4931  0.1092 -0.0221
18779TIP3    H177828   0.910   0.581  10.930 -1.6966  1.8404  0.9324
18779TIP3    H277829   0.853   0.521  10.803  1.3739 -0.5379  0.5484
18780TIP3   OH277830   2.510   5.692   3.243  0.0760 -0.8271  0.2669
18780TIP3    H177831   2.592   5.695   3.195 -0.0187  3.1103  0.0184
18780TIP3    H277832   2.446   5.658   3.180  0.7170  0.3552 -1.0693
18781TIP3   OH277833   5.078   1.921  12.208 -0.2117  0.6501  0.2303
18781TIP3    H177834   5.125   1.850  12.165  1.7158  0.8974  1.7872
18781TIP3    H277835   5.146   1.986  12.227 -1.2163  1.1254  2.4300
18782TIP3   OH277836   0.602   5.460  13.801 -0.1576  0.2907 -0.1976
18782TIP3    H177837   0.601   5.506  13.885  0.8547 -0.1698  0.0694
18782TIP3    H277838   0.692   5.465  13.771 -0.2886 -0.4770 -0.7527
18783TIP3   OH277839   1.339   4.238  16.502 -0.2735  0.9245  0.1772
18783TIP3    H177840   1.391   4.248  16.422 -2.4828 -0.7959 -1.5979
18783TIP3    H277841   1.329   4.144  16.513 -1.8728  1.1800  1.2285
18784TIP3   OH277842   6.372   3.386   4.917 -0.1929  0.3661  0.3787
18784TIP3    H177843   6.308   3.325   4.881  0.0287  0.9526 -1.0502
18784TIP3    H277844   6.447   3.382   4.857  1.3678 -0.6692  2.2579
18785TIP3   OH277845   1.610   5.771  15.751 -0.2604 -0.1995  0.1988
18785TIP3    H177846   1.541   5.802  15.809 -0.0609  0.7621 -0.0562
18785TIP3    H277847   1.605   5.676  15.757 -0.8678 -0.1298  1.0431
18786TIP3   OH277848   6.385   6.817   5.923 -0.0666 -0.1150  0.0089
18786TIP3    H177849   6.410   6.892   5.977  1.4644 -1.2491  0.9643
18786TIP3    H277850   6.429   6.832   5.839  3.5444 -1.7039  1.4194
18787TIP3   OH277851   0.459   4.061  11.201  0.6751 -0.3872  0.1562
18787TIP3    H177852   0.381   4.110  11.172  1.1923  0.2907 -0.1090
18787TIP3    H277853   0.475   4.094  11.290 -0.7288 -2.2407  1.1778
18788TIP3   OH277854   2.051   2.806  12.290 -0.0339  0.5379  0.0218
18788TIP3    H177855   2.133   2.788  12.336 -0.8187 -0.9936  0.9017
18788TIP3    H277856   2.060   2.761  12.206  0.0853  0.5426  0.0315
18789TIP3   OH277857   0.906   4.018  11.897 -0.0443 -0.0071  0.0236
18789TIP3    H177858   0.839   4.050  11.956 -1.0918 -0.3210 -0.9617
18789TIP3    H277859   0.878   3.929  11.874  1.0181 -0.3689  0.0546
18790TIP3   OH277860   5.351   1.602  17.207  0.0298  0.3548  0.0216
18790TIP3    H177861   5.321   1.693  17.200 -2.7893 -0.6168 -2.6571
18790TIP3    H277862   5.375   1.578  17.118  1.1805 -1.4192  0.7587
18791TIP3   OH277863   3.614   3.581  14.271  0.0096  0.3156 -0.2832
18791TIP3    H177864   3.617   3.629  14.354  0.7189 -0.6134  0.2387
18791TIP3    H277865   3.540   3.621  14.224 -1.6397 -0.3708  1.5516
18792TIP3   OH277866   0.569   5.876   1.477 -0.0011  0.1578 -0.2191
18792TIP3    H177867   0.608   5.961   1.497 -1.2344  1.1468 -1.8259
18792TIP3    H277868   0.575   5.869   1.381  0.7089 -1.8990 -0.0798
18793TIP3   OH277869   5.928   0.195  14.502  0.4488 -0.3534  0.8169
18793TIP3    H177870   5.943   0.268  14.441  0.2365  0.1998  1.4200
18793TIP3    H277871   5.948   0.117  14.450  2.0825  0.1819  0.5904
18794TIP3   OH277872   2.076   4.704  14.469  0.0971  0.4679 -0.0962
18794TIP3    H177873   2.014   4.663  14.408 -0.1084  1.6467 -0.7190
18794TIP3    H277874   2.162   4.681  14.434 -0.0121  1.6817 -1.2689
18795TIP3   OH277875   1.534   0.718  17.203 -0.2136  0.0362  0.1726
18795TIP3    H177876   1.511   0.645  17.260 -1.2998 -0.8329 -1.3277
18795TIP3    H277877   1.587   0.775  17.259 -1.4759 -0.6019  2.1577
18796TIP3   OH277878   6.258   3.829   0.499  0.2608 -0.1268  0.4852
18796TIP3    H177879   6.319   3.761   0.470 -0.9316 -1.3597  0.7415
18796TIP3    H277880   6.263   3.896   0.430  1.8010 -0.2297  0.4572
18797TIP3   OH277881   5.551   5.494   0.829  0.1677 -0.2491  0.2268
18797TIP3    H177882   5.644   5.498   0.848  0.2827 -0.0146 -0.3745
18797TIP3    H277883   5.514   5.445   0.902  0.3192  2.1196  2.0029
18798TIP3   OH277884   2.289   5.985  14.181 -0.2879 -0.1667  0.0429
18798TIP3    H177885   2.297   5.920  14.111  0.8653 -0.2956  0.2930
18798TIP3    H277886   2.361   6.046  14.166 -1.3334  1.0604 -0.1711
18799TIP3   OH277887   4.322   2.924  14.302  0.1525 -0.1077 -0.5521
18799TIP3    H177888   4.386   2.866  14.344 -0.0272 -0.5355 -0.8630
18799TIP3    H277889   4.354   3.012  14.320  0.7855 -0.3188 -0.6252
18800TIP3   OH277890   2.184   0.985  11.317 -0.2960 -0.4709  0.0954
18800TIP3    H177891   2.154   0.933  11.243  1.7029 -0.9773 -0.4213
18800TIP3    H277892   2.109   1.039  11.341 -1.1114 -0.5899 -2.0415
18801TIP3   OH277893   1.835   2.163  10.661 -0.3355 -0.1641 -0.4663
18801TIP3    H177894   1.761   2.157  10.601  0.5512  0.3752 -1.6553
18801TIP3    H277895   1.912   2.167  10.604  0.7353 -1.9704  0.7201
18802TIP3   OH277896   0.941   5.674   0.408 -0.0620 -0.3670 -0.2309
18802TIP3    H177897   0.898   5.653   0.325 -1.1752  1.7902 -0.2625
18802TIP3    H277898   1.006   5.605   0.419 -1.4323 -1.9915 -1.7446
18803TIP3   OH277899   4.048   5.762  11.056  0.5788 -0.1563 -0.1790
18803TIP3    H177900   4.039   5.722  10.969  5.7785 -3.1839  0.3139
18803TIP3    H277901   3.988   5.712  11.112 -1.8376  0.9558 -1.5928
18804TIP3   OH277902   1.335   3.939  15.684 -0.1727  0.1710  0.0796
18804TIP3    H177903   1.252   3.983  15.664  0.1240  1.2726  1.1998
18804TIP3    H277904   1.367   3.981  15.764 -0.0067 -2.2888  1.4047
18805TIP3   OH277905   5.702   4.698   5.350 -0.3869  0.5121  0.2240
18805TIP3    H177906   5.719   4.750   5.428 -0.8135  0.8850  0.0699
18805TIP3    H277907   5.785   4.655   5.331 -0.4874 -0.2304  1.3616
18806TIP3   OH277908   2.848   0.025   4.357  0.3129 -0.9835 -0.0409
18806TIP3    H177909   2.786   0.098   4.355 -0.4006 -1.5160  1.1790
18806TIP3    H277910   2.923   0.055   4.306  0.3641  0.9148  1.0411
18807TIP3   OH277911   1.820   5.957  12.736  0.2810  0.3030  0.1204
18807TIP3    H177912   1.797   5.941  12.644 -0.6913 -2.4119  0.7682
18807TIP3    H277913   1.863   6.043  12.734 -2.1609  1.6623 -2.4515
18808TIP3   OH277914   1.076   0.352   4.671  0.0631  0.8911 -0.0269
18808TIP3    H177915   1.078   0.329   4.578 -0.4134  1.6133 -0.2264
18808TIP3    H277916   0.984   0.368   4.690 -0.5033 -2.9934  1.5605
18809TIP3   OH277917   4.564   1.141   3.307 -0.0833  0.2101 -0.5453
18809TIP3    H177918   4.484   1.108   3.349  0.3384 -1.5439 -1.0321
18809TIP3    H277919   4.632   1.078   3.332  1.2531  1.8243  0.1000
18810TIP3   OH277920   0.403   4.891  12.020  0.0022  0.8047  0.1993
18810TIP3    H177921   0.341   4.832  12.062  0.3089  0.1158 -0.2830
18810TIP3    H277922   0.359   4.976  12.018 -1.7123 -0.0430 -1.7903
18811TIP3   OH277923   4.878   6.811   0.515  0.0229 -0.6571  0.2510
18811TIP3    H177924   4.821   6.807   0.592 -0.3922  0.2177 -0.0035
18811TIP3    H277925   4.832   6.759   0.448  0.4206 -1.4824  0.5950
18812TIP3   OH277926   4.094   3.607   1.515  0.1951 -0.1275 -0.0002
18812TIP3    H177927   4.105   3.588   1.422 -0.6418 -1.4983  0.1468
18812TIP3    H277928   4.004   3.638   1.522  0.1197 -0.4281  0.3979
18813TIP3   OH277929   2.399   5.595  15.176 -0.2594 -0.2156 -0.0428
18813TIP3    H177930   2.335   5.533  15.209  1.2584 -1.8410  0.0115
18813TIP3    H277931   2.377   5.607  15.084 -1.0300 -0.2062  0.1368
18814TIP3   OH277932   0.736   0.456  11.537  0.5826 -0.1751  0.2797
18814TIP3    H177933   0.704   0.465  11.626 -0.2262 -0.0477 -0.0180
18814TIP3    H277934   0.776   0.369  11.534  1.2908  0.1137  0.9624
18815TIP3   OH277935   1.480   3.957   1.403 -0.2899  0.5339 -0.4648
18815TIP3    H177936   1.455   3.942   1.312 -0.6487  0.4458 -0.3512
18815TIP3    H277937   1.436   3.888   1.452  2.4681 -1.4981 -0.5886
18816TIP3   OH277938   4.542   5.512   3.688 -0.8857 -0.0752 -0.0106
18816TIP3    H177939   4.631   5.478   3.698 -1.2810 -0.3515  3.7721
18816TIP3    H277940   4.491   5.435   3.660  0.0238  0.2359 -2.9101
18817TIP3   OH277941   6.199   5.287  13.871 -0.7072  0.1051  0.2888
18817TIP3    H177942   6.126   5.233  13.901 -0.7611  0.1966  0.3230
18817TIP3    H277943   6.172   5.377  13.890 -0.4853  0.1245  0.5242
18818TIP3   OH277944   5.403   5.706   1.386  0.2269 -0.1781  0.5206
18818TIP3    H177945   5.316   5.667   1.388 -0.3115  0.5106 -2.9762
18818TIP3    H277946   5.462   5.632   1.372 -0.4337 -0.2442 -2.5117
18819TIP3   OH277947   6.252   2.720   3.948  0.1008 -0.4025  0.6555
18819TIP3    H177948   6.200   2.647   3.915  0.9070 -0.3789 -0.7236
18819TIP3    H277949   6.337   2.711   3.905  0.0677  1.6302  0.0705
18820TIP3   OH277950   2.898   6.419   1.800  0.4087  0.1528 -0.0752
18820TIP3    H177951   2.946   6.420   1.717  0.0142  1.9291 -0.3114
18820TIP3    H277952   2.813   6.458   1.780  0.0378 -0.0496  1.0250
18821TIP3   OH277953   2.020   4.841   3.998 -0.2365  0.4133  0.1342
18821TIP3    H177954   1.961   4.811   4.067 -2.1987  0.5963 -1.3757
18821TIP3    H277955   1.962   4.880   3.932  1.4297 -0.5498 -2.0333
18822TIP3   OH277956   5.125   6.497   4.083 -0.2071  0.3250  0.0233
18822TIP3    H177957   5.166   6.579   4.055 -2.4363  0.5094 -3.3987
18822TIP3    H277958   5.088   6.461   4.002 -0.7311 -3.2518  1.7036
18823TIP3   OH277959   1.548   5.915  13.284 -0.0940  0.6659  0.5237
18823TIP3    H177960   1.511   5.997  13.253  0.3126  0.9126  0.6898
18823TIP3    H277961   1.515   5.849  13.223  2.3853  1.3781 -1.7854
18824TIP3   OH277962   3.167   5.266  15.398  0.6380  0.0098 -0.1268
18824TIP3    H177963   3.156   5.345  15.345 -0.5741 -1.1960 -1.7623
18824TIP3    H277964   3.262   5.257  15.408  0.8559  0.8390 -1.2421
18825TIP3   OH277965   1.250   4.697   0.999  0.2180 -0.1584  0.0515
18825TIP3    H177966   1.294   4.782   1.000 -1.5361  0.8506 -1.4114
18825TIP3    H277967   1.312   4.638   0.955  1.1604  0.5307  0.4283
18826TIP3   OH277968   6.079   2.497   1.084  0.0706 -0.1763  0.3029
18826TIP3    H177969   6.130   2.577   1.076 -0.8356  0.6840  2.3168
18826TIP3    H277970   6.092   2.451   1.002 -0.2192  2.5320 -1.3725
18827TIP3   OH277971   2.585   6.033   1.592  0.2190  0.1233 -0.0556
18827TIP3    H177972   2.565   6.035   1.685 -1.5845 -1.7949 -0.3198
18827TIP3    H277973   2.584   6.125   1.565  1.1530  0.7467  1.8336
18828TIP3   OH277974   0.165   5.791  13.643  0.0630  0.4771  0.8747
18828TIP3    H177975   0.160   5.698  13.622  1.9328  0.5106  0.0731
18828TIP3    H277976   0.237   5.824  13.589 -0.6778  2.4392  0.9972
18829TIP3   OH277977   3.895   2.544  15.128 -0.1316 -0.0144 -0.0149
18829TIP3    H177978   3.917   2.451  15.128 -0.3547 -0.0872 -1.3355
18829TIP3    H277979   3.801   2.547  15.147 -0.8359 -0.3113 -3.0071
18830TIP3   OH277980   2.158   5.286   2.338 -0.2012  0.6165 -0.1525
18830TIP3    H177981   2.176   5.336   2.258 -2.3681 -0.5551 -1.4918
18830TIP3    H277982   2.070   5.251   2.324 -1.1619  1.3275  3.3140
18831TIP3   OH277983   1.575   0.835  15.837  0.3686  0.0055  0.0682
18831TIP3    H177984   1.513   0.835  15.910  1.3173 -1.3412  0.9110
18831TIP3    H277985   1.519   0.839  15.759 -0.7610 -0.5483  0.8158
18832TIP3   OH277986   4.266   4.922   1.179  0.6621 -0.3064 -0.0533
18832TIP3    H177987   4.258   4.834   1.216  0.3059  0.4208  1.6783
18832TIP3    H277988   4.325   4.968   1.238  1.4272  0.4305 -1.3473
18833TIP3   OH277989   3.493   3.554   4.551 -0.2863  0.1117  0.1566
18833TIP3    H177990   3.537   3.543   4.467 -0.5714 -0.4068  0.0715
18833TIP3    H277991   3.516   3.475   4.601 -0.3967  0.2551  0.4402
18834TIP3   OH277992   2.772   0.875   1.370  0.1477 -0.0588 -0.3188
18834TIP3    H177993   2.777   0.923   1.452 -1.0015 -1.0586  0.3644
18834TIP3    H277994   2.836   0.918   1.313  0.7103  0.8667  0.9728
18835TIP3   OH277995   5.916   2.614  15.227  0.9240 -0.2956  0.0462
18835TIP3    H177996   5.948   2.559  15.298 -0.1115 -1.2497 -0.1906
18835TIP3    H277997   5.831   2.645  15.257  0.0197 -1.4984 -1.1185
18836TIP3   OH277998   2.833   2.833  16.424  0.0315  0.1723 -0.6961
18836TIP3    H177999   2.901   2.769  16.447  0.0208  0.1308 -0.7803
18836TIP3    H278000   2.827   2.890  16.501 -1.0822 -0.8790  0.0327
18837TIP3   OH278001   5.788   4.780   1.413  0.0912  0.3881  0.4828
18837TIP3    H178002   5.699   4.802   1.442 -0.4904 -2.2849  0.9354
18837TIP3    H278003   5.803   4.839   1.339 -0.8850  2.8908  2.1074
18838TIP3   OH278004   4.664   5.246  16.263 -0.5015 -0.7092 -0.0940
18838TIP3    H178005   4.745   5.203  16.237  1.4422  0.1450  3.8510
18838TIP3    H278006   4.680   5.339  16.244 -0.3887 -0.5118  0.8951
18839TIP3   OH278007   3.391   2.411   4.210 -0.1772  0.0553  0.2981
18839TIP3    H178008   3.315   2.396   4.266 -1.0063 -0.1997 -0.8606
18839TIP3    H278009   3.365   2.377   4.124  0.8441  0.9454 -0.3914
18840TIP3   OH278010   3.889   6.382   1.911 -0.1895 -0.4218  0.1645
18840TIP3    H178011   3.983   6.361   1.916 -0.1882 -0.7432 -0.9498
18840TIP3    H278012   3.846   6.310   1.956  0.0357 -0.8797 -0.3479
18841TIP3   OH278013   2.984   2.520  12.002 -0.0714  0.1863 -0.0975
18841TIP3    H178014   2.969   2.550  11.913  3.0116 -0.4423 -0.9403
18841TIP3    H278015   3.023   2.595  12.047  1.6701 -0.5147 -0.3604
18842TIP3   OH278016   4.487   2.851  17.066  0.6383  0.3819  0.6378
18842TIP3    H178017   4.399   2.888  17.075  1.2007  2.4148 -1.2946
18842TIP3    H278018   4.472   2.760  17.042 -1.0726  1.1479 -1.5875
18843TIP3   OH278019   5.738   5.158   1.010  0.7593  0.3126  0.3271
18843TIP3    H178020   5.691   5.168   1.093  2.1817 -1.4129  1.4091
18843TIP3    H278021   5.815   5.215   1.018  1.5805 -0.8237  0.7686
18844TIP3   OH278022   6.041   0.329   5.580  0.2975 -0.1448 -0.4503
18844TIP3    H178023   5.993   0.412   5.577  1.6244  0.7075  0.5488
18844TIP3    H278024   5.977   0.263   5.556 -1.1512  1.0330  0.0412
18845TIP3   OH278025   6.412   0.519   1.220  0.0803  0.1353 -0.0301
18845TIP3    H178026   6.356   0.444   1.200  0.6151 -0.6287  1.2528
18845TIP3    H278027   6.398   0.537   1.312  0.0672  1.5534 -0.2823
18846TIP3   OH278028   5.257   5.032   6.506  0.6634 -0.0077 -0.3008
18846TIP3    H178029   5.167   5.006   6.491  0.1866  1.2226  0.3268
18846TIP3    H278030   5.257   5.127   6.496  1.4845  0.2229  1.5502
18847TIP3   OH278031   3.345   2.902  15.260 -0.4275 -0.4801 -0.3900
18847TIP3    H178032   3.296   2.842  15.317  1.9777 -1.5005  0.7204
18847TIP3    H278033   3.417   2.849  15.226  0.8034  1.3568 -0.7407
18848TIP3   OH278034   6.139   5.101  10.730 -0.3556 -0.0498  0.0716
18848TIP3    H178035   6.190   5.116  10.651 -1.1468  0.5791 -0.3315
18848TIP3    H278036   6.143   5.006  10.743  0.5205 -0.0600 -0.2078
18849TIP3   OH278037   0.337   6.770   4.182  0.2780 -0.2057 -0.0276
18849TIP3    H178038   0.281   6.738   4.252  0.2137  1.3443  0.6727
18849TIP3    H278039   0.276   6.807   4.118  0.4497  1.0584  0.5153
18850TIP3   OH278040   0.569   5.648  13.086  0.3125 -0.2383  0.1872
18850TIP3    H178041   0.606   5.726  13.044 -0.3431  0.2786  0.5486
18850TIP3    H278042   0.489   5.630  13.036 -0.2007  0.0755  0.8797
18851TIP3   OH278043   2.099   3.828   2.841  0.0118  0.7071 -0.0088
18851TIP3    H178044   2.093   3.735   2.817  0.6925  0.4437  0.7712
18851TIP3    H278045   2.139   3.870   2.766 -1.5515  0.6219 -0.9266
18852TIP3   OH278046   1.435   0.362  16.803  0.0699  0.4950 -0.5909
18852TIP3    H178047   1.448   0.350  16.897  1.6392 -1.4080 -0.9989
18852TIP3    H278048   1.417   0.456  16.794 -0.0488  0.7399  1.5772
18853TIP3   OH278049   4.680   0.843  15.884 -0.6377  0.3155  0.3616
18853TIP3    H178050   4.670   0.856  15.978 -1.3361  0.9259  0.2147
18853TIP3    H278051   4.742   0.771  15.876  0.8633  1.4424  1.2656
18854TIP3   OH278052   2.045   2.784  12.905  0.5373 -0.0603 -0.0128
18854TIP3    H178053   1.956   2.752  12.890  0.4445  0.0320  0.3248
18854TIP3    H278054   2.089   2.773  12.821  1.3775 -3.7806  0.7088
18855TIP3   OH278055   0.574   3.409  10.807  0.2707 -0.3403  0.0770
18855TIP3    H178056   0.573   3.438  10.898 -1.2186  1.8925 -0.5486
18855TIP3    H278057   0.653   3.355  10.799  0.2775 -0.8490  2.7223
18856TIP3   OH278058   1.918   3.775   3.472  0.3283  0.2281 -0.6528
18856TIP3    H178059   1.978   3.726   3.529 -1.1660  1.2654  1.9798
18856TIP3    H278060   1.912   3.861   3.512 -0.8571  0.9962 -2.3941
18857TIP3   OH278061   4.479   5.073  16.663 -0.6056 -0.5622 -0.7130
18857TIP3    H178062   4.495   5.166  16.673  0.9905 -0.9009  0.3067
18857TIP3    H278063   4.392   5.059  16.700 -1.4656  0.6978 -2.1688
18858TIP3   OH278064   5.203   3.334  14.581 -0.4612  0.1995  0.1251
18858TIP3    H178065   5.202   3.415  14.529 -0.1457  0.0964 -0.0491
18858TIP3    H278066   5.111   3.309  14.588 -0.8857  2.0945  2.6220
18859TIP3   OH278067   0.025   3.773  15.469  0.3912  0.1084  0.5165
18859TIP3    H178068   0.009   3.867  15.474  2.2523  0.4764  0.4353
18859TIP3    H278069  -0.042   3.734  15.526  1.3094  1.7075  2.8504
18860TIP3   OH278070   1.482   5.579   0.580 -0.3623 -0.1215 -0.5634
18860TIP3    H178071   1.473   5.491   0.617  1.4984  0.0289  0.3511
18860TIP3    H278072   1.483   5.564   0.485 -1.0844 -0.9565 -0.4570
18861TIP3   OH278073   3.224   5.883  16.212  0.6163  0.3051 -0.2446
18861TIP3    H178074   3.299   5.889  16.271  0.3618 -0.5484  0.1756
18861TIP3    H278075   3.226   5.965  16.162  3.0847 -0.5543 -1.7615
18862TIP3   OH278076   4.437   1.755   2.052 -0.5663 -0.7942 -0.5011
18862TIP3    H178077   4.424   1.683   1.991 -2.1870  0.4382 -1.7102
18862TIP3    H278078   4.378   1.735   2.125  0.0785 -1.4093 -0.1426
18863TIP3   OH278079   1.169   1.380  14.257  0.3988  0.1157  0.1591
18863TIP3    H178080   1.133   1.429  14.331  0.9786 -0.2852  0.7103
18863TIP3    H278081   1.092   1.354  14.206 -0.0176  0.1729  0.7536
18864TIP3   OH278082   5.456   0.662   4.823  0.0840  0.5235  0.3515
18864TIP3    H178083   5.515   0.653   4.898  0.3654 -0.3944  0.0273
18864TIP3    H278084   5.453   0.756   4.807  2.3297  0.5284 -0.3104
18865TIP3   OH278085   6.330   0.522   4.898  0.0186  0.0980  0.0318
18865TIP3    H178086   6.382   0.474   4.962  0.2325  0.4967  0.1581
18865TIP3    H278087   6.249   0.543   4.944 -0.2487 -0.4988 -0.1558
18866TIP3   OH278088   3.210   2.729  15.549  0.1271 -0.6491 -0.1283
18866TIP3    H178089   3.173   2.793  15.609  1.1715 -2.9511  3.2858
18866TIP3    H278090   3.134   2.683  15.513 -0.5515 -0.8129  1.4296
18867TIP3   OH278091   6.160   0.964   3.921  0.2319  0.2603  0.2142
18867TIP3    H178092   6.232   0.961   3.858  0.6850 -0.5125  0.7494
18867TIP3    H278093   6.088   1.006   3.874 -0.0261 -1.8544 -1.4234
18868TIP3   OH278094   4.946   6.324   1.559 -0.4940  0.6755  0.5777
18868TIP3    H178095   5.040   6.317   1.573 -0.3866  0.8956 -0.0027
18868TIP3    H278096   4.921   6.240   1.520 -0.3043  1.0931 -0.4785
18869TIP3   OH278097   6.099   5.455   3.264  0.6724  0.2682 -0.1257
18869TIP3    H178098   6.134   5.381   3.214 -1.5220 -1.5332  0.8245
18869TIP3    H278099   6.047   5.504   3.200  0.7928  0.0588 -0.3887
18870TIP3   OH278100   5.499   0.860  13.760 -0.3175  0.4960 -0.8955
18870TIP3    H178101   5.512   0.874  13.854  1.4221 -0.3191 -0.9855
18870TIP3    H278102   5.432   0.925  13.736 -1.3021  0.2769  1.0044
18871TIP3   OH278103   5.468   6.555  15.378  0.1244 -0.1286 -0.8015
18871TIP3    H178104   5.466   6.568  15.283  0.5674 -0.4327 -0.8601
18871TIP3    H278105   5.476   6.643  15.414  2.1586 -0.1220 -1.1497
18872TIP3   OH278106   4.563   4.806  12.144 -0.1807 -0.4452  0.1517
18872TIP3    H178107   4.525   4.894  12.148  0.7581 -0.0516  0.5496
18872TIP3    H278108   4.517   4.764  12.071 -0.5816  0.3970 -0.0961
18873TIP3   OH278109   1.636   4.204  13.104 -0.4047  0.1391 -0.1983
18873TIP3    H178110   1.540   4.201  13.108 -0.3638 -0.4577  0.8140
18873TIP3    H278111   1.657   4.297  13.098 -1.0346  0.3814  0.9154
18874TIP3   OH278112   0.787   3.885  13.367  0.4301 -0.3472 -0.3523
18874TIP3    H178113   0.801   3.889  13.461 -1.6446  0.8962 -0.0086
18874TIP3    H278114   0.863   3.838  13.332  0.5218 -2.1911  2.0768
18875TIP3   OH278115   1.122   2.387  11.402  0.2194 -0.2318 -0.4938
18875TIP3    H178116   1.049   2.335  11.369 -1.5019 -0.0264  2.5749
18875TIP3    H278117   1.084   2.473  11.419  1.0360 -0.2087  1.4943
18876TIP3   OH278118   1.738   2.170   0.513 -0.3051  0.3812  0.6189
18876TIP3    H178119   1.691   2.089   0.493 -0.4513  0.8207 -0.9702
18876TIP3    H278120   1.829   2.153   0.490 -0.8038  1.5410 -2.7274
18877TIP3   OH278121   4.710   4.104  14.417 -0.2888 -0.8724  0.2120
18877TIP3    H178122   4.764   4.130  14.492  1.2010  0.1955 -1.1675
18877TIP3    H278123   4.644   4.174  14.411  0.3265 -0.3137 -0.1734
18878TIP3   OH278124   5.488   3.757  11.603 -0.4286 -0.0721  0.4658
18878TIP3    H178125   5.520   3.670  11.629  2.7552  0.9067  0.2755
18878TIP3    H278126   5.477   3.804  11.686 -2.0931 -0.5749  0.5648
18879TIP3   OH278127   5.418   6.748   4.169 -0.3263  0.2647 -0.2313
18879TIP3    H178128   5.362   6.790   4.234  1.1936  0.2912  1.1261
18879TIP3    H278129   5.365   6.746   4.089 -1.6590  1.6897  0.5685
18880TIP3   OH278130   3.619   0.573  11.686  0.0093 -0.9134 -0.4364
18880TIP3    H178131   3.566   0.591  11.609  0.9484  0.9817 -0.6893
18880TIP3    H278132   3.693   0.522  11.652 -0.5422 -1.7161 -0.4484
18881TIP3   OH278133   3.106   6.134  16.755  0.2576 -0.0810  0.2379
18881TIP3    H178134   3.151   6.099  16.678  0.3515  0.9622 -0.2040
18881TIP3    H278135   3.106   6.229  16.741 -2.4387 -0.0417  0.0262
18882TIP3   OH278136   4.396   3.581   3.333 -0.6158 -0.3100  0.8580
18882TIP3    H178137   4.454   3.567   3.408  0.5180  2.0686  0.5160
18882TIP3    H278138   4.365   3.671   3.344 -1.0428 -0.1761 -1.1237
18883TIP3   OH278139   2.806   4.558   1.127  0.1922  0.1109 -0.0392
18883TIP3    H178140   2.761   4.594   1.051  1.0651 -1.0556 -1.1642
18883TIP3    H278141   2.875   4.622   1.147  1.2886 -0.5393 -1.5762
18884TIP3   OH278142   4.947   4.113   2.255 -0.5610  0.3502 -0.4866
18884TIP3    H178143   4.934   4.061   2.177 -1.0634  0.5445 -0.5387
18884TIP3    H278144   4.900   4.195   2.238 -0.6918  0.3874  0.0228
18885TIP3   OH278145   2.251   1.787   3.472 -0.1921 -0.2458  0.1316
18885TIP3    H178146   2.172   1.777   3.525 -0.9996 -0.4871 -1.0867
18885TIP3    H278147   2.220   1.793   3.382  1.0771  1.1252 -0.2758
18886TIP3   OH278148   4.338   5.196   0.950 -0.3436 -0.1870 -0.3463
18886TIP3    H178149   4.416   5.147   0.975 -0.6064 -0.8213 -0.7530
18886TIP3    H278150   4.286   5.201   1.030  0.1447  0.3081 -0.0538
18887TIP3   OH278151   2.767   3.742   4.623 -0.0735 -0.2183  0.2650
18887TIP3    H178152   2.777   3.664   4.568 -0.0765 -1.1696  1.5658
18887TIP3    H278153   2.834   3.732   4.691 -0.4363  0.6424  0.7604
18888TIP3   OH278154   6.035   1.118   1.782 -0.0126  0.4868  0.3683
18888TIP3    H178155   6.008   1.052   1.845  0.7787 -0.7254 -0.5096
18888TIP3    H278156   5.970   1.114   1.712  0.2453  0.3504  0.1312
18889TIP3   OH278157   0.742   0.860  16.062  0.1262  0.2463  0.6840
18889TIP3    H178158   0.674   0.922  16.035 -0.7125 -1.6048 -1.9349
18889TIP3    H278159   0.802   0.856  15.987  1.0744 -0.8831  1.4634
18890TIP3   OH278160   0.748   2.913   2.084 -0.2614 -0.1310 -0.5364
18890TIP3    H178161   0.832   2.952   2.105  0.6031 -2.0614 -0.1461
18890TIP3    H278162   0.727   2.946   1.997  0.2184  1.4295 -0.0854
18891TIP3   OH278163   6.723   3.154   5.137  0.3663  0.8616  0.5423
18891TIP3    H178164   6.685   3.191   5.216  2.1558  0.4396  1.6584
18891TIP3    H278165   6.765   3.228   5.093 -0.6624  1.1037 -0.0545
18892TIP3   OH278166   1.916   2.221  12.033 -0.6177  0.2411 -0.0618
18892TIP3    H178167   1.827   2.200  12.061 -0.1186 -0.0302  1.4079
18892TIP3    H278168   1.971   2.198  12.108  0.7799 -0.2604 -1.2013
18893TIP3   OH278169   2.796   3.171   4.141  0.2939  0.3650 -0.1039
18893TIP3    H178170   2.876   3.119   4.148 -0.3362 -0.5592  0.5430
18893TIP3    H278171   2.750   3.133   4.066 -0.6622 -0.7783  0.9992
18894TIP3   OH278172   3.441   1.416   4.958 -0.0500  0.7318  0.1058
18894TIP3    H178173   3.463   1.332   4.918 -0.8727  0.8733 -0.6652
18894TIP3    H278174   3.353   1.437   4.926  0.7052  2.5962 -0.9195
18895TIP3   OH278175   6.315   5.880  13.250 -0.1136  0.0260 -0.0051
18895TIP3    H178176   6.387   5.857  13.309  0.4585  1.6789  0.0068
18895TIP3    H278177   6.270   5.953  13.294 -2.3809 -1.5089  0.4127
18896TIP3   OH278178   5.833   0.967  13.913 -0.4330  0.1897 -0.1738
18896TIP3    H178179   5.879   0.923  13.984 -2.2172 -0.6283  0.5400
18896TIP3    H278180   5.878   1.051  13.904 -0.0759  0.2690  1.8468
18897TIP3   OH278181   5.454   5.691  16.279  0.1241 -0.3731 -0.8074
18897TIP3    H178182   5.458   5.598  16.303  1.4762 -0.0180  0.5309
18897TIP3    H278183   5.432   5.736  16.360 -0.9282  0.4660 -1.5377
18898TIP3   OH278184   5.701   5.950   5.792 -0.1849  0.0409  0.3504
18898TIP3    H178185   5.696   6.037   5.833  0.5134 -0.1440  0.8420
18898TIP3    H278186   5.785   5.949   5.746  0.2130 -0.6686  1.0604
18899TIP3   OH278187   1.078   5.270  10.777 -0.4839  0.0946  0.1772
18899TIP3    H178188   1.100   5.188  10.733 -0.3030  0.8013 -1.0969
18899TIP3    H278189   1.163   5.311  10.795 -0.5994  0.4625 -0.1059
18900TIP3   OH278190   4.067   2.663  12.727 -0.2032 -0.8280 -0.7569
18900TIP3    H178191   4.077   2.684  12.635  0.5711  0.5762 -0.3835
18900TIP3    H278192   4.014   2.735  12.762 -1.1176 -1.7195 -0.2242
18901TIP3   OH278193   1.125   3.292   2.010  0.7739  0.0118 -0.1811
18901TIP3    H178194   1.140   3.201   1.985 -0.7252  0.4069 -2.8883
18901TIP3    H278195   1.185   3.342   1.956 -0.3372  0.7516 -0.7754
18902TIP3   OH278196   3.508   2.147   1.660  0.2617  0.4687  0.1278
18902TIP3    H178197   3.430   2.119   1.613 -0.8686 -0.9010  2.6149
18902TIP3    H278198   3.487   2.235   1.691 -1.8194 -1.0125  3.5007
18903TIP3   OH278199   4.503   4.489  16.411 -0.1766  0.1623 -0.3654
18903TIP3    H178200   4.508   4.424  16.481 -1.3678 -0.8645 -1.1971
18903TIP3    H278201   4.459   4.564  16.452  1.6968  0.7028  0.7530
18904TIP3   OH278202   6.274   2.241   3.896 -0.1784  0.2940  0.4076
18904TIP3    H178203   6.195   2.291   3.917  1.0539  2.3877  0.3422
18904TIP3    H278204   6.346   2.296   3.927  1.2853 -1.5148  0.3959
18905TIP3   OH278205   6.610   4.204   1.418  0.3073  0.6553  0.2398
18905TIP3    H178206   6.654   4.119   1.420 -1.0258 -0.0845 -0.5640
18905TIP3    H278207   6.614   4.235   1.509  2.2516  0.5302  0.2397
18906TIP3   OH278208   0.374   2.200  13.165 -0.1129  0.6667 -0.3952
18906TIP3    H178209   0.393   2.157  13.248 -1.8043  2.1643  0.8509
18906TIP3    H278210   0.366   2.129  13.102  1.7865 -0.4680  0.5475
18907TIP3   OH278211   5.920   1.695   1.367  0.0961  0.5884 -0.2230
18907TIP3    H178212   5.957   1.713   1.280 -0.6586  0.7271 -0.5287
18907TIP3    H278213   5.953   1.765   1.422  0.2899  0.7107 -0.4914
18908TIP3   OH278214   2.110   2.021  15.228  1.1369  0.4127  0.0002
18908TIP3    H178215   2.120   2.091  15.164  1.5158  0.5641  0.2293
18908TIP3    H278216   2.176   1.956  15.203  0.0709 -0.3843 -0.8892
18909TIP3   OH278217   4.956   5.593   5.893  0.2973 -0.4951 -0.1483
18909TIP3    H178218   4.894   5.632   5.954 -1.1765 -1.4789 -0.9526
18909TIP3    H278219   4.952   5.650   5.815  0.6122 -0.4111 -0.1039
18910TIP3   OH278220   6.527   0.194  13.755 -0.3400 -0.0561  0.0747
18910TIP3    H178221   6.513   0.233  13.841 -0.5242  0.4494 -0.1830
18910TIP3    H278222   6.443   0.201  13.710  0.0747  0.8438 -0.6049
18911TIP3   OH278223   2.464   4.177  13.285  0.4717  0.8127 -0.1584
18911TIP3    H178224   2.397   4.109  13.288  0.5468  0.6969 -0.9029
18911TIP3    H278225   2.487   4.193  13.376 -0.0021  0.2918  0.0545
18912TIP3   OH278226   3.186   5.029   4.551  0.9272  0.1083  0.4419
18912TIP3    H178227   3.104   5.030   4.600  1.6599 -1.3072  1.7837
18912TIP3    H278228   3.161   5.008   4.461 -0.2661  0.9212  0.5615
18913TIP3   OH278229   6.691   6.168  16.982 -0.3457  0.3799  0.3222
18913TIP3    H178230   6.761   6.202  16.926 -0.0925  0.6478  0.7858
18913TIP3    H278231   6.674   6.080  16.949  0.5356  0.1339  0.4867
18914TIP3   OH278232   1.989   4.215  11.511 -0.1018 -0.6469 -0.7713
18914TIP3    H178233   2.080   4.194  11.533 -0.2115  0.8942  1.4989
18914TIP3    H278234   1.983   4.199  11.417  2.6108 -0.5226 -1.0583
18915TIP3   OH278235   6.011   0.827  14.064  0.0119 -0.4659 -0.0649
18915TIP3    H178236   6.044   0.771  13.993  3.5553 -0.3287  1.2916
18915TIP3    H278237   5.977   0.766  14.128  0.4523 -0.8546 -0.1924
18916TIP3   OH278238   2.051   0.834   4.132  0.0420 -0.1188 -0.2437
18916TIP3    H178239   2.022   0.923   4.150  0.9852  0.1938 -0.1830
18916TIP3    H278240   2.025   0.784   4.209 -0.6274  0.0660 -0.3458
18917TIP3   OH278241   1.402   3.547   0.433 -0.0454  0.3009 -0.2082
18917TIP3    H178242   1.431   3.467   0.388 -2.0221 -1.4836  1.4480
18917TIP3    H278243   1.472   3.567   0.495 -0.6523 -1.8623  1.2982
18918TIP3   OH278244   4.072   0.935   3.921 -0.3330 -0.0841  0.1844
18918TIP3    H178245   4.158   0.894   3.919  0.0621  0.7014  0.3535
18918TIP3    H278246   4.089   1.026   3.894 -1.1746 -0.0387 -0.2008
18919TIP3   OH278247   0.084   6.404  13.210  0.2824 -0.2706  0.1915
18919TIP3    H178248   0.084   6.311  13.187 -0.8764 -0.2362 -0.0083
18919TIP3    H278249   0.169   6.436  13.180 -0.1387 -0.8056 -1.7086
18920TIP3   OH278250   4.368   2.460   0.071  0.1141  0.9866  0.1896
18920TIP3    H178251   4.462   2.477   0.063  0.0107  1.1624 -0.6340
18920TIP3    H278252   4.327   2.511   0.001 -0.3233 -1.3608 -1.3848
18921TIP3   OH278253   4.993   6.381  12.841 -0.6282  0.6042  0.1073
18921TIP3    H178254   5.026   6.337  12.920  0.0608 -0.4968 -0.7708
18921TIP3    H278255   4.977   6.471  12.869 -0.0989  0.3110  1.4286
18922TIP3   OH278256   3.505   2.616  10.637 -0.4824  0.2012  1.0366
18922TIP3    H178257   3.476   2.672  10.565 -0.3804 -0.2339  0.6521
18922TIP3    H278258   3.601   2.618  10.632 -0.4799 -0.3622  0.7333
18923TIP3   OH278259   6.512   2.229   5.587  0.1748 -1.0417  0.2473
18923TIP3    H178260   6.444   2.162   5.589  1.4248 -2.3438  1.1843
18923TIP3    H278261   6.532   2.245   5.680 -0.8130  1.4327  0.1137
18924TIP3   OH278262   3.013   1.219  13.525 -0.0509 -0.0978  0.6637
18924TIP3    H178263   3.029   1.157  13.597 -0.2411 -1.5212 -0.4626
18924TIP3    H278264   2.918   1.227  13.521 -0.1310 -1.2298 -0.3578
18925TIP3   OH278265   2.397   2.556   1.319  0.4330  0.2800 -0.3801
18925TIP3    H178266   2.384   2.555   1.224  1.7339 -2.1476 -0.5922
18925TIP3    H278267   2.484   2.595   1.331  0.0400  1.1015 -0.1195
18926TIP3   OH278268   1.955   1.203  10.786 -0.0067  0.2394 -0.5325
18926TIP3    H178269   1.953   1.292  10.751 -0.8832  0.4081 -0.0783
18926TIP3    H278270   2.017   1.206  10.859  0.1064  0.4270 -0.6368
18927TIP3   OH278271   0.869   0.373  15.768  0.8379  0.3604  0.0384
18927TIP3    H178272   0.777   0.380  15.746  0.4426 -0.3430  1.3527
18927TIP3    H278273   0.871   0.376  15.864  1.6486 -4.3053  0.3943
18928TIP3   OH278274   3.745   6.793   0.654 -0.1776 -0.3330 -0.0644
18928TIP3    H178275   3.814   6.818   0.593 -0.7717 -1.5572 -1.2960
18928TIP3    H278276   3.791   6.745   0.723  0.3109 -0.4505 -0.4642
18929TIP3   OH278277   4.437   0.786  14.005 -0.0727  0.1988  0.0887
18929TIP3    H178278   4.506   0.820  13.948 -1.3239  1.3282 -0.8248
18929TIP3    H278279   4.368   0.757  13.945 -0.1400 -1.5675  0.9546
18930TIP3   OH278280   6.415   4.022  13.352 -0.2494 -0.2738 -0.2591
18930TIP3    H178281   6.324   4.006  13.327 -0.7324  1.1485  0.4679
18930TIP3    H278282   6.421   4.117  13.358  1.1304 -0.3834  0.3042
18931TIP3   OH278283   4.081   1.945  16.772 -0.3770 -0.2421  0.2865
18931TIP3    H178284   4.156   1.980  16.723 -1.4293  1.2645 -0.3074
18931TIP3    H278285   4.121   1.894  16.843  1.2163 -1.8025 -1.5845
18932TIP3   OH278286   0.277   2.767  14.662  0.0951 -0.3923  0.7309
18932TIP3    H178287   0.336   2.737  14.731  2.2918  0.9866 -0.3961
18932TIP3    H278288   0.224   2.836  14.703 -0.3875 -1.2946  1.6474
18933TIP3   OH278289   0.326   2.136   3.474 -0.4313 -0.0681  0.1402
18933TIP3    H178290   0.312   2.156   3.567 -0.2626  0.0490  0.1413
18933TIP3    H278291   0.248   2.169   3.430 -0.0903  0.7550  0.1236
18934TIP3   OH278292   3.836   3.881   4.482 -0.8483 -0.4999 -0.3883
18934TIP3    H178293   3.813   3.812   4.545  0.5310 -0.3625  0.2943
18934TIP3    H278294   3.774   3.951   4.500 -0.0497 -0.1800  1.3191
18935TIP3   OH278295   1.706   5.276  16.651 -0.2590 -0.7187  0.4120
18935TIP3    H178296   1.770   5.211  16.620 -0.2282 -0.6194  0.2705
18935TIP3    H278297   1.746   5.312  16.730  0.3761  0.1524 -0.2899
18936TIP3   OH278298   4.654   3.758  13.816  0.8246 -0.2713  0.1198
18936TIP3    H178299   4.696   3.712  13.743  1.5518 -1.1953  1.0835
18936TIP3    H278300   4.621   3.688  13.873  1.5439  0.3683  1.3830
18937TIP3   OH278301   3.985   6.115  12.371 -0.1481  0.1113 -0.3029
18937TIP3    H178302   4.036   6.124  12.452  0.0238 -2.0376 -0.0950
18937TIP3    H278303   3.904   6.163  12.387  0.5170  0.9596  0.5740
18938TIP3   OH278304   5.718   6.144  12.109  0.5578 -0.1894  0.6204
18938TIP3    H178305   5.702   6.187  12.025  0.3266 -0.3739  0.5678
18938TIP3    H278306   5.675   6.059  12.101 -0.5204  0.2546  1.3513
18939TIP3   OH278307   5.613   5.452  15.042  0.2506 -0.6486  0.3137
18939TIP3    H178308   5.677   5.420  14.979  1.9362 -0.8932  2.0615
18939TIP3    H278309   5.563   5.518  14.995  0.5749 -1.7225 -1.6366
18940TIP3   OH278310   3.226   1.490  15.680  0.0023  0.1383 -0.1819
18940TIP3    H178311   3.174   1.514  15.603 -1.4742 -1.9012  0.0885
18940TIP3    H278312   3.282   1.418  15.650 -0.2221 -0.3328  0.5131
18941TIP3   OH278313   0.346   4.884   3.323 -0.1715 -0.0284 -0.0233
18941TIP3    H178314   0.395   4.894   3.241  0.8753  0.6901  0.6572
18941TIP3    H278315   0.304   4.798   3.316 -0.7110  0.3388 -1.6180
18942TIP3   OH278316   6.007   6.762   3.203  0.3239 -0.0742  0.4551
18942TIP3    H178317   5.981   6.843   3.159  2.2275  0.4892  0.2972
18942TIP3    H278318   5.940   6.749   3.271  0.3202  1.9608  0.9015
18943TIP3   OH278319   6.107   4.626   6.739 -0.2177 -0.2945  0.6924
18943TIP3    H178320   6.037   4.684   6.768  0.4305  0.8401  0.0590
18943TIP3    H278321   6.187   4.667   6.772  0.2910 -0.5567 -0.1822
18944TIP3   OH278322   4.449   4.867   0.676 -0.2821 -0.1198 -0.1762
18944TIP3    H178323   4.523   4.858   0.736 -0.0444  3.3137  0.2852
18944TIP3    H278324   4.372   4.871   0.733 -0.3352  0.4604 -0.2760
18945TIP3   OH278325   5.165   5.405   4.995 -0.2067 -0.0409 -0.0506
18945TIP3    H178326   5.234   5.380   5.056 -0.5795 -0.0377  0.3726
18945TIP3    H278327   5.112   5.326   4.985 -0.4067  0.0896 -0.0195
18946TIP3   OH278328   3.024   5.921   0.957 -0.1098 -0.7223 -0.3622
18946TIP3    H178329   3.063   5.840   0.991 -0.9054 -1.3173 -0.8108
18946TIP3    H278330   3.003   5.973   1.035 -0.5281 -1.4044 -0.0044
18947TIP3   OH278331   4.521   3.176  15.203  0.4562  0.2530  0.0948
18947TIP3    H178332   4.476   3.157  15.286 -0.6715 -1.0164 -0.7714
18947TIP3    H278333   4.471   3.248  15.166 -0.4527 -0.6725 -0.5211
18948TIP3   OH278334   1.676   4.318   1.676 -0.2276  0.5463  0.0356
18948TIP3    H178335   1.721   4.234   1.679  2.3688  1.7691 -1.3252
18948TIP3    H278336   1.598   4.305   1.730  0.0254 -2.7119 -0.1679
18949TIP3   OH278337   1.106   1.378   2.242 -0.1673 -0.1338  0.1755
18949TIP3    H178338   1.043   1.424   2.297  0.1215  0.6077 -0.1129
18949TIP3    H278339   1.055   1.346   2.168 -0.0028  1.4929 -0.6670
18950TIP3   OH278340   3.197   6.806   1.026  0.0191 -0.0620  0.2845
18950TIP3    H178341   3.139   6.849   1.089  0.0926  0.8556 -0.2549
18950TIP3    H278342   3.141   6.785   0.952  0.4876  1.5828 -0.5969
18951TIP3   OH278343   6.557   3.601  17.095  0.5613  0.3870 -0.4635
18951TIP3    H178344   6.542   3.537  17.165  1.5072  0.4965 -0.1397
18951TIP3    H278345   6.556   3.686  17.139  0.7749  0.4837 -0.6409
18952TIP3   OH278346   6.023   0.702   4.358 -0.1169  0.4078 -1.1498
18952TIP3    H178347   6.046   0.697   4.265  0.8247 -0.3161 -0.8945
18952TIP3    H278348   6.095   0.752   4.397  0.6505 -1.1642 -0.4648
18953TIP3   OH278349   4.650   5.093  15.149 -0.8221  0.2321 -1.0050
18953TIP3    H178350   4.727   5.149  15.157  0.3672 -1.5027  0.5634
18953TIP3    H278351   4.686   5.004  15.144 -2.7318 -0.8381  2.0342
18954TIP3   OH278352   1.290   1.436   0.081 -0.0016 -0.3476  0.2764
18954TIP3    H178353   1.242   1.447   0.163  2.5416 -0.9825  1.9700
18954TIP3    H278354   1.254   1.356   0.042 -0.6954 -0.4897  1.1892
18955TIP3   OH278355   6.774   2.468   1.178  0.6200  0.3958 -0.4878
18955TIP3    H178356   6.722   2.548   1.189 -1.3009 -0.9130  0.5704
18955TIP3    H278357   6.711   2.402   1.149  1.7426 -1.2041  0.5407
18956TIP3   OH278358   1.107   3.451  12.498  0.1504 -0.1014 -0.1371
18956TIP3    H178359   1.135   3.473  12.587 -0.6813 -1.3856  0.4673
18956TIP3    H278360   1.139   3.524  12.445  1.9584 -0.0185  0.9652
18957TIP3   OH278361   2.922   6.175  11.719 -0.4156  0.6747  0.2922
18957TIP3    H178362   2.928   6.162  11.624  0.6724 -1.0354  0.5622
18957TIP3    H278363   2.831   6.199  11.733 -1.3679 -1.8428 -0.9218
18958TIP3   OH278364   2.184   6.590  14.830 -0.1693  0.1351  0.2721
18958TIP3    H178365   2.243   6.659  14.801  0.4506 -1.0547 -1.4994
18958TIP3    H278366   2.096   6.627  14.819  0.0835  0.1520 -2.2371
18959TIP3   OH278367   0.136   5.401   3.800 -0.4295  0.6022  0.1772
18959TIP3    H178368   0.083   5.341   3.749 -0.3375 -0.0907  0.8650
18959TIP3    H278369   0.103   5.392   3.890 -1.8829  3.1999 -0.0104
18960TIP3   OH278370   3.024   3.206   5.035  0.1176  0.3274 -0.1824
18960TIP3    H178371   3.004   3.298   5.050 -2.3851 -0.4141  1.5608
18960TIP3    H278372   3.068   3.178   5.115  2.5069  0.3446 -1.4009
18961TIP3   OH278373   5.741   0.471  13.094 -0.4202 -0.3634  0.0573
18961TIP3    H178374   5.826   0.428  13.084 -1.9146 -3.3800 -0.6554
18961TIP3    H278375   5.733   0.486  13.188  0.7071 -0.4414  0.1809
18962TIP3   OH278376   3.726   2.798  16.996 -0.1785 -0.5085  0.0534
18962TIP3    H178377   3.786   2.803  17.070 -1.5444  1.3913  1.1158
18962TIP3    H278378   3.776   2.834  16.923  0.8274 -1.4352  0.2472
18963TIP3   OH278379   0.911   2.436  15.932 -0.4180  0.2798 -0.4606
18963TIP3    H178380   0.838   2.374  15.931 -1.4042  1.3069  1.5777
18963TIP3    H278381   0.927   2.452  16.024  2.3782  0.1765 -0.8577
18964TIP3   OH278382   5.211   5.303   1.649 -0.0416 -0.5015 -0.2020
18964TIP3    H178383   5.155   5.297   1.726 -3.7307  3.0848 -2.1690
18964TIP3    H278384   5.280   5.364   1.674 -1.8406  1.5274  0.1245
18965TIP3   OH278385   5.127   3.419   2.256 -0.5979 -0.2293 -0.6917
18965TIP3    H178386   5.069   3.471   2.312 -0.7178  0.2437 -1.2365
18965TIP3    H278387   5.171   3.358   2.315 -0.7520  0.2313 -0.0961
18966TIP3   OH278388   3.462   1.325  17.073 -0.3956 -0.1683  0.3087
18966TIP3    H178389   3.445   1.299  17.163 -1.2841  1.8303  0.7832
18966TIP3    H278390   3.484   1.244  17.028  2.2110 -0.9799  2.7641
18967TIP3   OH278391   0.863   5.465  13.171 -0.2095 -0.4578  0.2785
18967TIP3    H178392   0.894   5.442  13.259  0.5250  0.5116  0.2929
18967TIP3    H278393   0.829   5.383  13.135 -0.3533 -0.9065  1.3955
18968TIP3   OH278394   5.333   1.551  15.856 -0.0828 -0.2893 -0.4041
18968TIP3    H178395   5.311   1.459  15.843 -0.0670 -0.2601 -0.6429
18968TIP3    H278396   5.421   1.561  15.820  0.0541 -0.2559 -0.0643
18969TIP3   OH278397   3.162   5.276  14.416 -0.0970 -0.3344 -0.0329
18969TIP3    H178398   3.249   5.252  14.385 -0.2494 -1.8492  0.6319
18969TIP3    H278399   3.178   5.329  14.495  0.2272  0.8105 -0.8464
18970TIP3   OH278400   6.067   5.113   1.715 -0.1502  0.7986  0.0497
18970TIP3    H178401   6.158   5.133   1.690 -0.1534  0.8273  0.0604
18970TIP3    H278402   6.065   5.018   1.721  0.4161  0.8823  2.0547
18971TIP3   OH278403   3.494   2.691  15.594 -0.1005  0.6414 -0.5795
18971TIP3    H178404   3.500   2.659  15.684  1.0307  0.9136 -0.5470
18971TIP3    H278405   3.400   2.687  15.573 -0.2530 -0.4019  0.2479
18972TIP3   OH278406   5.561   5.757  12.681  0.5408 -0.2818  0.3933
18972TIP3    H178407   5.494   5.824  12.668 -1.0166 -1.6540  0.9413
18972TIP3    H278408   5.613   5.759  12.600 -0.4782  0.4890 -0.2738
18973TIP3   OH278409   6.563   0.138  15.081  0.6145 -0.1293  0.4156
18973TIP3    H178410   6.587   0.230  15.074  0.5708 -0.1504 -0.0377
18973TIP3    H278411   6.564   0.120  15.175  0.9870  0.2352  0.4839
18974TIP3   OH278412   3.877   1.684   0.633 -0.1884 -0.4180 -0.6371
18974TIP3    H178413   3.906   1.618   0.570  0.5241 -0.9824  0.2676
18974TIP3    H278414   3.909   1.767   0.598  2.2698 -0.9744  0.1433
18975TIP3   OH278415   0.855   3.259  10.630  0.1205  0.1565 -0.2944
18975TIP3    H178416   0.879   3.215  10.549  2.2727 -0.0201  0.3783
18975TIP3    H278417   0.933   3.309  10.655 -0.5389  0.3503  1.5707
18976TIP3   OH278418   5.551   5.016   4.331 -0.1021 -0.4508  0.2042
18976TIP3    H178419   5.548   4.943   4.270  0.5493  0.7792 -1.3712
18976TIP3    H278420   5.484   4.995   4.396 -1.3076 -1.4965 -1.2936
18977TIP3   OH278421   1.635   5.347   0.709 -0.1354  1.0624 -0.1846
18977TIP3    H178422   1.651   5.261   0.747 -0.1368 -0.4108 -3.1876
18977TIP3    H278423   1.668   5.409   0.774 -0.3063 -1.1622  2.1747
18978TIP3   OH278424   1.100   0.231   1.547 -0.6371 -0.2763  0.3169
18978TIP3    H178425   1.076   0.176   1.622 -2.5105  2.2167  1.7038
18978TIP3    H278426   1.041   0.306   1.553  1.6345  1.8143 -1.5470
18979TIP3   OH278427   1.001   3.660   1.115  0.1775  0.4271  0.5172
18979TIP3    H178428   1.041   3.743   1.088  1.5883 -0.0906  0.9451
18979TIP3    H278429   0.962   3.680   1.201 -0.7839  1.0067 -0.0298
18980TIP3   OH278430   3.671   6.046  16.898  0.0158 -0.1603  0.0596
18980TIP3    H178431   3.715   6.014  16.977  0.2561  0.4203  0.1690
18980TIP3    H278432   3.580   6.020  16.909 -0.5950  2.4141  1.9248
18981TIP3   OH278433   3.299   5.717  16.024  0.2238  0.0788 -0.0805
18981TIP3    H178434   3.390   5.687  16.026  0.6013  1.0807 -1.3011
18981TIP3    H278435   3.281   5.745  16.114  1.0918 -0.1820  0.1866
18982TIP3   OH278436   2.834   5.632   4.715  0.1492  0.0603 -0.2004
18982TIP3    H178437   2.910   5.576   4.695  0.6650  0.5077  0.4735
18982TIP3    H278438   2.759   5.577   4.694  0.6333  0.1040 -2.2826
18983TIP3   OH278439   1.751   5.356  12.571  0.0543  0.0490  0.1922
18983TIP3    H178440   1.765   5.347  12.477  0.5388 -0.0767  0.2734
18983TIP3    H278441   1.804   5.432  12.596  0.6289 -0.4551  0.5162
18984TIP3   OH278442   2.387   4.456  12.565 -0.6671  0.1611  0.3487
18984TIP3    H178443   2.365   4.432  12.655  0.4991 -0.1773  0.5710
18984TIP3    H278444   2.305   4.485  12.526 -1.4540 -0.9412  1.1304
18985TIP3   OH278445   0.127   3.336   2.072 -0.1319 -0.0856 -0.3472
18985TIP3    H178446   0.219   3.343   2.095  0.3981  0.8009 -2.5407
18985TIP3    H278447   0.089   3.419   2.101  0.2360  0.4570 -1.3973
18986TIP3   OH278448   0.396   1.335   1.176  0.1815 -0.0114  0.0724
18986TIP3    H178449   0.490   1.337   1.160  0.4390  0.6714  1.5127
18986TIP3    H278450   0.368   1.426   1.165 -0.3736 -0.2533 -0.6108
18987TIP3   OH278451   3.326   3.324   6.258 -0.1696 -0.8999 -0.0398
18987TIP3    H178452   3.411   3.289   6.232 -0.3616 -1.5131  0.1349
18987TIP3    H278453   3.269   3.247   6.264 -0.0330 -0.9153  2.6397
18988TIP3   OH278454   0.781   0.576  14.071 -0.6249 -0.0110  0.3366
18988TIP3    H178455   0.815   0.657  14.032 -0.4680  0.7098  1.9177
18988TIP3    H278456   0.715   0.605  14.133 -0.8118 -1.1274  0.6760
18989TIP3   OH278457   0.510   6.103  13.077  0.4282  0.0464 -0.3054
18989TIP3    H178458   0.454   6.053  13.137 -0.3725 -0.1842 -1.2190
18989TIP3    H278459   0.568   6.038  13.038 -0.2449 -0.1005 -1.0858
18990TIP3   OH278460   5.533   4.734   2.388 -0.7108 -0.0221 -0.2437
18990TIP3    H178461   5.602   4.688   2.340 -0.0338 -0.5947  1.2362
18990TIP3    H278462   5.544   4.826   2.362 -0.7598 -0.3819 -1.6346
18991TIP3   OH278463   1.805   3.690  16.525  0.1391  0.1623 -0.1456
18991TIP3    H178464   1.833   3.625  16.590  1.4499 -1.4708 -2.2294
18991TIP3    H278465   1.862   3.765  16.541 -0.2140  0.1801  1.1701
18992TIP3   OH278466   0.873   1.733   2.817  0.3733  0.0445 -0.2678
18992TIP3    H178467   0.921   1.685   2.884  2.1025 -1.3846 -2.3681
18992TIP3    H278468   0.939   1.786   2.773 -0.2910 -0.4737 -1.9951
18993TIP3   OH278469   4.483   6.332  10.622  0.0344  0.4854 -0.4151
18993TIP3    H178470   4.507   6.240  10.632  1.8958  0.8695 -1.0050
18993TIP3    H278471   4.405   6.342  10.676  0.2939 -1.2351  0.3548
18994TIP3   OH278472   1.204   1.396  15.992 -0.6608 -0.4154 -0.7666
18994TIP3    H178473   1.186   1.421  16.082  2.2410  0.5575 -0.3308
18994TIP3    H278474   1.256   1.316  16.000 -2.2113 -1.5821 -1.7459
18995TIP3   OH278475   0.431   5.808   2.089 -0.4580 -0.4900 -0.2281
18995TIP3    H178476   0.341   5.831   2.067 -0.4436  0.7329  0.8946
18995TIP3    H278477   0.482   5.834   2.012 -1.1565 -2.1733 -1.3145
18996TIP3   OH278478   0.929   6.326  12.229 -0.1590 -0.0487 -0.1434
18996TIP3    H178479   0.888   6.312  12.144  0.9745  0.7777 -0.8606
18996TIP3    H278480   0.916   6.419  12.247 -0.7457 -0.3003  0.8001
18997TIP3   OH278481   1.520   3.127   5.760  0.6132  0.0432  0.4366
18997TIP3    H178482   1.541   3.139   5.853 -0.5680 -1.7246  0.9809
18997TIP3    H278483   1.425   3.116   5.758  0.8525 -2.4067 -0.6424
18998TIP3   OH278484   2.278   0.144   2.299 -0.3320  0.0209 -0.3788
18998TIP3    H178485   2.311   0.055   2.290 -0.8766 -0.1310 -0.9179
18998TIP3    H278486   2.354   0.195   2.328 -0.3107 -0.8503  1.1901
18999TIP3   OH278487   4.663   0.517  14.102  0.2004  0.3008  0.2900
18999TIP3    H178488   4.639   0.544  14.014  1.1114 -0.8758 -0.3374
18999TIP3    H278489   4.620   0.581  14.159  0.9596  2.0929 -1.0485
19000TIP3   OH278490   0.983   0.034  11.056  0.1758 -0.0903 -0.8545
19000TIP3    H178491   1.079   0.041  11.060  0.1209  0.6019 -0.5980
19000TIP3    H278492   0.957   0.105  10.998 -0.1924 -0.2435 -0.8800
19001TIP3   OH278493   4.365   5.639  10.776 -0.3208 -0.3268  0.8497
19001TIP3    H178494   4.420   5.714  10.796 -1.3789  0.5027  0.7168
19001TIP3    H278495   4.407   5.566  10.822 -0.7107  0.8284  3.1586
19002TIP3   OH278496   3.270   0.109   2.591  0.6165 -0.6331 -0.0907
19002TIP3    H178497   3.284   0.180   2.529 -1.4633  0.0327  0.1106
19002TIP3    H278498   3.276   0.150   2.677  0.0674 -0.8233  0.0449
19003TIP3   OH278499   0.587   0.349  15.399 -0.0839  0.1148 -0.6916
19003TIP3    H178500   0.591   0.275  15.338 -1.5358 -0.4988 -0.1017
19003TIP3    H278501   0.677   0.382  15.403  0.6316 -1.6539 -0.9364
19004TIP3   OH278502   3.212   4.598  12.794 -0.9520 -0.5977 -0.3277
19004TIP3    H178503   3.193   4.589  12.887 -1.2942 -0.1498 -0.3507
19004TIP3    H278504   3.190   4.513  12.756 -2.0616 -0.3758 -0.2081
19005TIP3   OH278505   2.815   1.081  12.631  0.2612  0.2584  0.0525
19005TIP3    H178506   2.756   1.014  12.665 -0.0206  0.5985  0.2365
19005TIP3    H278507   2.900   1.037  12.626  0.0112 -0.2104 -0.1444
19006TIP3   OH278508   6.657   3.107   4.447  0.1263 -0.3038 -0.5734
19006TIP3    H178509   6.598   3.035   4.468  0.0294 -0.2924 -0.8088
19006TIP3    H278510   6.601   3.185   4.447 -0.0003 -0.3853 -1.5062
19007TIP3   OH278511   1.484   2.999  11.466  0.1227 -0.6100 -0.6288
19007TIP3    H178512   1.438   2.939  11.408 -0.5356  0.9060 -1.7526
19007TIP3    H278513   1.498   2.949  11.547 -2.0098 -1.6899 -0.8478
19008TIP3   OH278514   3.086   0.234   5.619 -0.6093  0.2718  0.3774
19008TIP3    H178515   3.005   0.200   5.657 -0.6902 -0.5083 -0.4742
19008TIP3    H278516   3.120   0.162   5.566 -0.8579  1.5539 -1.5957
19009TIP3   OH278517   4.678   0.197  15.277  0.4838  0.0966 -0.2144
19009TIP3    H178518   4.597   0.244  15.294  0.8530  1.2636 -1.4665
19009TIP3    H278519   4.653   0.105  15.275 -1.2374  0.5226 -2.5100
19010TIP3   OH278520   3.484   3.371  11.890  0.3610  1.1291 -0.0696
19010TIP3    H178521   3.562   3.399  11.843 -0.1581  1.8870 -0.5002
19010TIP3    H278522   3.469   3.281  11.861  0.8369  1.1201 -0.2875
19011TIP3   OH278523   0.163   5.240   2.587 -0.0149  0.2374  0.3061
19011TIP3    H178524   0.219   5.164   2.601 -0.8590 -0.2638  1.0205
19011TIP3    H278525   0.202   5.285   2.511  0.9535 -0.4576  0.3784
19012TIP3   OH278526   2.377   0.327   1.334 -0.2363 -0.1457  0.1598
19012TIP3    H178527   2.357   0.345   1.426 -0.6022  0.0957  0.0377
19012TIP3    H278528   2.305   0.368   1.286  0.5686  0.7676 -0.3051
19013TIP3   OH278529   0.747   3.802  11.846 -0.4756 -0.3206 -0.6354
19013TIP3    H178530   0.733   3.766  11.933 -0.9620 -0.1463 -0.6366
19013TIP3    H278531   0.820   3.751  11.810  0.1958  0.0741  0.1309
19014TIP3   OH278532   2.027   2.183   4.563  0.1733 -0.0237 -0.7187
19014TIP3    H178533   2.111   2.229   4.557 -0.1376  0.7526  0.5893
19014TIP3    H278534   1.976   2.217   4.489  1.1906 -0.9551 -1.8999
19015TIP3   OH278535   5.295   3.184   3.660  0.4544 -0.2580  0.2549
19015TIP3    H178536   5.247   3.266   3.674  1.1404  0.2945 -0.4922
19015TIP3    H278537   5.285   3.135   3.741  1.4334  1.2928  1.3615
19016TIP3   OH278538   6.084   0.519   3.352  0.2491  0.1693  0.3402
19016TIP3    H178539   6.046   0.433   3.366 -1.9467  1.0057 -0.0836
19016TIP3    H278540   6.132   0.511   3.269  1.3415 -0.9969  1.0464
19017TIP3   OH278541   0.350   2.133  16.678 -0.2874  0.7458  0.0342
19017TIP3    H178542   0.417   2.108  16.614  1.1817 -0.7609  2.0535
19017TIP3    H278543   0.366   2.226  16.694  0.6532  0.6526 -0.2878
19018TIP3   OH278544   3.260   1.948   5.481  0.2336  0.2268  0.0125
19018TIP3    H178545   3.207   2.025   5.464 -0.8281 -0.8672 -1.9753
19018TIP3    H278546   3.254   1.896   5.401  3.2431 -0.6097  0.2056
19019TIP3   OH278547   4.054   2.727   1.204 -0.8301  0.3167  0.2188
19019TIP3    H178548   4.027   2.642   1.241  0.6953 -0.3643 -0.1469
19019TIP3    H278549   3.986   2.748   1.141 -1.6254 -0.2638  0.8510
19020TIP3   OH278550   3.860   1.502   3.606 -0.2531 -0.5791 -0.4235
19020TIP3    H178551   3.767   1.487   3.592  0.2984 -2.7279 -2.5367
19020TIP3    H278552   3.877   1.586   3.562 -1.3168  0.3601  0.8817
19021TIP3   OH278553   3.726   1.599   1.075  0.1626 -0.4461 -0.5542
19021TIP3    H178554   3.746   1.692   1.089  1.8453 -1.0976  1.9501
19021TIP3    H278555   3.782   1.572   1.003 -0.4001  0.4592 -1.3558
19022TIP3   OH278556   0.508   0.219   1.632 -0.0655 -0.2420  0.1120
19022TIP3    H178557   0.415   0.199   1.639 -0.0960 -0.1822 -0.1069
19022TIP3    H278558   0.518   0.304   1.674 -0.4830  0.7766 -1.7294
19023TIP3   OH278559   1.865   2.053   4.732  0.0133  0.1009 -0.0812
19023TIP3    H178560   1.942   2.073   4.679  1.0080 -1.7267  0.5808
19023TIP3    H278561   1.859   2.124   4.795  2.0228 -0.3807  0.7383
19024TIP3   OH278562   4.481   2.263   1.257  0.0562  0.2435 -0.7277
19024TIP3    H178563   4.443   2.301   1.336  0.9159  0.3614 -0.3595
19024TIP3    H278564   4.535   2.191   1.288 -0.8401 -0.7308 -1.3495
19025TIP3   OH278565   2.592   0.074   1.457  0.3541  0.0992 -0.3820
19025TIP3    H178566   2.549   0.092   1.540 -0.7196 -1.3435 -0.6025
19025TIP3    H278567   2.611   0.161   1.421  0.3875  0.7456  1.1086
19026TIP3   OH278568   6.835   3.410  16.562 -0.0764 -0.0364 -0.4324
19026TIP3    H178569   6.826   3.353  16.639 -1.8198 -0.3885 -0.8731
19026TIP3    H278570   6.929   3.409  16.543  0.7587  1.5934  2.8297
19027TIP3   OH278571   5.966   2.240   2.315 -0.1884 -0.1588  0.4904
19027TIP3    H178572   6.033   2.216   2.379  0.3441 -0.6797 -0.2457
19027TIP3    H278573   5.959   2.163   2.258 -3.8380 -1.5892  2.4865
19028TIP3   OH278574   2.789   6.645  13.201 -0.2909 -0.1018  0.0995
19028TIP3    H178575   2.822   6.710  13.263 -0.5619  0.2699 -0.1385
19028TIP3    H278576   2.722   6.597  13.249 -1.0989  0.7437 -0.1513
19029TIP3   OH278577   0.856   6.710   5.441 -0.0513  0.0163 -0.0878
19029TIP3    H178578   0.903   6.665   5.512  2.2780  1.4510 -0.6310
19029TIP3    H278579   0.870   6.654   5.365  2.2755  1.1947 -0.6115
19030TIP3   OH278580   0.688   5.899  13.010  0.7197  0.1120  0.7076
19030TIP3    H178581   0.753   5.870  13.074 -0.8244  0.2982  2.4448
19030TIP3    H278582   0.736   5.905  12.928  2.6858 -0.5626  1.7492
19031TIP3   OH278583   2.412   2.741  16.638  0.5053  0.3423 -0.1915
19031TIP3    H178584   2.504   2.712  16.640  0.2894 -0.4318 -0.9595
19031TIP3    H278585   2.368   2.683  16.700  0.3799  0.1181 -0.4869
19032TIP3   OH278586   0.552   5.807  13.316  0.0044  0.3616  0.0454
19032TIP3    H178587   0.611   5.875  13.282 -2.0612  1.4981 -1.5138
19032TIP3    H278588   0.548   5.742  13.246 -1.4372  0.8704 -0.3756
19033TIP3   OH278589   6.104   5.042   4.516  0.4416 -0.0868 -0.3097
19033TIP3    H178590   6.090   4.974   4.582  0.0573  0.3539  0.0738
19033TIP3    H278591   6.181   5.090   4.548 -0.6411  1.0923  0.6740
19034TIP3   OH278592   3.849   0.264   2.032  0.4421 -0.2879  0.0434
19034TIP3    H178593   3.893   0.208   2.096 -1.7859 -1.9344  0.2608
19034TIP3    H278594   3.771   0.215   2.007 -0.7704  2.0229 -1.0357
19035TIP3   OH278595   2.321   1.733   4.740  0.2756  1.3511 -0.3540
19035TIP3    H178596   2.282   1.782   4.811  0.2048  1.3972 -0.4243
19035TIP3    H278597   2.272   1.651   4.737  0.9748  0.8993  0.3387
19036TIP3   OH278598   0.223   1.177  14.859 -0.1506 -0.2310  0.2843
19036TIP3    H178599   0.168   1.125  14.801 -1.3372  0.7702  0.4693
19036TIP3    H278600   0.166   1.247  14.890  1.2343  0.8595  0.4823
19037TIP3   OH278601   4.522   4.874   3.181  0.4765  0.2228  0.3781
19037TIP3    H178602   4.484   4.960   3.198 -0.0919 -0.1817  1.2256
19037TIP3    H278603   4.463   4.834   3.117 -0.5459 -0.3951  1.6746
19038TIP3   OH278604   5.495   6.228  11.572 -0.0527 -0.2719  0.7545
19038TIP3    H178605   5.491   6.159  11.506  1.8443  0.0061  0.2881
19038TIP3    H278606   5.415   6.218  11.623 -0.2508 -2.2239  0.1127
19039TIP3   OH278607   2.831   4.519   1.599 -0.0540 -0.1477  0.2489
19039TIP3    H178608   2.737   4.515   1.583 -0.4140 -0.4399  2.1942
19039TIP3    H278609   2.870   4.512   1.512 -1.8135 -0.1955 -0.5859
19040TIP3   OH278610   6.818   1.104  13.455  0.1155  0.2557 -0.0512
19040TIP3    H178611   6.856   1.189  13.435 -0.2620  0.1926 -1.1041
19040TIP3    H278612   6.817   1.099  13.550  3.1741  0.0647  0.0727
19041TIP3   OH278613   0.145   6.149  12.252 -0.2454 -0.7754 -0.4776
19041TIP3    H178614   0.191   6.166  12.334 -1.9133 -0.7017  0.4842
19041TIP3    H278615   0.214   6.146  12.186  1.1454 -0.9415  0.9331
19042TIP3   OH278616   0.751   5.693   5.672  0.4803 -0.2113  0.0547
19042TIP3    H178617   0.826   5.638   5.650 -0.4660 -1.5837  0.1214
19042TIP3    H278618   0.678   5.631   5.682 -1.1573  1.2321 -2.0656
19043TIP3   OH278619   4.219   3.460   3.724 -0.2943  0.8904 -0.1592
19043TIP3    H178620   4.249   3.413   3.646 -2.6960 -2.2502  0.6284
19043TIP3    H278621   4.292   3.452   3.786  0.5637  1.0503 -1.1131
19044TIP3   OH278622   4.530   5.707   0.815 -0.5385 -0.2279  0.5638
19044TIP3    H178623   4.474   5.634   0.792 -0.5341  0.2474 -1.0771
19044TIP3    H278624   4.610   5.667   0.848 -0.0148 -1.0210 -1.5540
19045TIP3   OH278625   1.647   2.068  15.584  0.3950 -0.2207 -0.1452
19045TIP3    H178626   1.690   2.013  15.518 -0.7912 -0.8200 -0.4509
19045TIP3    H278627   1.718   2.117  15.624  1.3890 -1.3277 -0.4890
19046TIP3   OH278628   4.791   3.981   1.619 -0.1060  0.1429  0.7083
19046TIP3    H178629   4.815   3.903   1.568 -1.3173 -0.0116  0.3487
19046TIP3    H278630   4.757   3.947   1.701 -0.6991  0.2901  0.5243
19047TIP3   OH278631   6.001   1.243  11.687 -0.8039 -0.3349  0.4474
19047TIP3    H178632   5.968   1.333  11.677 -0.5547 -0.4140 -1.3858
19047TIP3    H278633   5.934   1.189  11.645 -0.2834 -0.8641  0.2924
19048TIP3   OH278634   3.019   1.808  13.406  0.5146 -0.4305 -0.0279
19048TIP3    H178635   3.054   1.861  13.478 -1.3044 -0.0505  0.6184
19048TIP3    H278636   3.088   1.812  13.339  1.3899  0.8845  0.8816
19049TIP3   OH278637   2.192   3.251   2.950  0.2971  0.4564  0.2697
19049TIP3    H178638   2.107   3.277   2.986  0.3244 -0.0392  0.6965
19049TIP3    H278639   2.255   3.310   2.993  0.0303  1.8801 -1.1895
19050TIP3   OH278640   5.644   1.476   0.607 -0.0803  0.4953  0.4950
19050TIP3    H178641   5.612   1.565   0.621 -2.1870 -0.2958  1.0530
19050TIP3    H278642   5.687   1.453   0.690 -1.1721  0.3607  1.0365
19051TIP3   OH278643   4.771   2.882   1.280  0.8074  0.1294 -0.3984
19051TIP3    H178644   4.815   2.824   1.343  0.5790 -1.0088 -1.2660
19051TIP3    H278645   4.718   2.823   1.226 -0.3293  1.2812 -0.5794
19052TIP3   OH278646   4.048   5.691   2.736  0.0184 -0.1937  0.0637
19052TIP3    H178647   3.989   5.722   2.668 -0.0573  1.5504  0.8649
19052TIP3    H278648   4.111   5.763   2.748  0.1993 -0.5643  1.6113
19053TIP3   OH278649   6.096   0.818   3.476 -0.2870  0.3958  0.6223
19053TIP3    H178650   6.056   0.797   3.560  0.6990  0.2534  1.0617
19053TIP3    H278651   6.091   0.738   3.425  0.1707  0.1420  0.9735
19054TIP3   OH278652   1.353   6.013   1.400 -0.3167 -0.0134 -0.5704
19054TIP3    H178653   1.377   6.065   1.476 -0.1510 -0.1648 -0.5176
19054TIP3    H278654   1.284   6.064   1.356 -1.6386 -0.7094  0.6015
19055TIP3   OH278655   1.623   3.856  11.761 -0.2194 -0.1260  0.3534
19055TIP3    H178656   1.602   3.895  11.676 -0.3840  0.2823  0.5792
19055TIP3    H278657   1.646   3.765  11.741  1.2000  0.3482 -0.2980
19056TIP3   OH278658   5.318   6.062  13.682  0.2840 -0.2947  0.3185
19056TIP3    H178659   5.276   5.986  13.642 -0.1862 -0.1956  0.6182
19056TIP3    H278660   5.405   6.064  13.643  0.0183 -0.5153 -0.2962
19057TIP3   OH278661   1.641   1.612   0.329 -0.4190  0.2248  0.0401
19057TIP3    H178662   1.695   1.553   0.277 -2.0236  0.5374 -2.1381
19057TIP3    H278663   1.634   1.691   0.275 -2.9484  0.2157  0.2403
19058TIP3   OH278664   4.636   0.891   2.708 -0.8191  0.1351 -0.6129
19058TIP3    H178665   4.721   0.848   2.714  0.0464  1.4729 -2.4091
19058TIP3    H278666   4.645   0.952   2.635 -3.4040  0.1477 -1.0236
19059TIP3   OH278667   3.794   3.369   1.134 -0.1426  0.1570 -0.5054
19059TIP3    H178668   3.815   3.460   1.113  1.0962 -0.0326 -0.2139
19059TIP3    H278669   3.791   3.325   1.050  0.0828  0.3158 -0.5986
19060TIP3   OH278670   1.487   2.580   2.109 -0.1764 -0.0728 -0.4305
19060TIP3    H178671   1.438   2.510   2.065 -0.8877  0.3512 -0.3429
19060TIP3    H278672   1.472   2.564   2.202  1.2240 -0.8966 -0.3331
19061TIP3   OH278673   1.505   4.775   3.440  0.4351  0.1439 -0.5264
19061TIP3    H178674   1.470   4.695   3.399  1.6776  0.9677 -3.4167
19061TIP3    H278675   1.533   4.747   3.527  1.3302 -2.7441 -1.6299
19062TIP3   OH278676   2.253   4.955  13.739  0.3484  0.1852  0.2282
19062TIP3    H178677   2.225   4.874  13.696  0.2821  0.0417  0.5378
19062TIP3    H278678   2.302   5.002  13.671  1.5823 -0.7468  0.4285
19063TIP3   OH278679   3.066   0.747   0.768 -0.1115  0.0461 -0.5797
19063TIP3    H178680   3.139   0.733   0.708  1.4569 -0.1609  1.2866
19063TIP3    H278681   3.056   0.842   0.771  1.5324  0.2315  0.7097
19064TIP3   OH278682   2.943   3.371  15.084  0.7471 -0.3791 -0.2093
19064TIP3    H178683   2.868   3.406  15.132  2.0667  2.9316 -0.2937
19064TIP3    H278684   2.904   3.321  15.012 -1.4195  1.7398 -0.6299
19065TIP3   OH278685   0.242   5.668  11.951 -0.0598 -0.4380  0.1870
19065TIP3    H178686   0.287   5.740  11.907  0.6586 -1.7812 -1.3885
19065TIP3    H278687   0.187   5.711  12.017  1.0042  1.4695 -0.0889
19066TIP3   OH278688   6.620   3.352   4.790 -0.2095  0.2940  1.0706
19066TIP3    H178689   6.676   3.360   4.867  0.4826  0.5436  0.5586
19066TIP3    H278690   6.679   3.369   4.716 -0.3750 -2.0226  0.3366
19067TIP3   OH278691   2.106   3.967  13.181  0.0647  0.5177 -0.5204
19067TIP3    H178692   2.117   3.911  13.258  0.5314 -0.7204 -1.4474
19067TIP3    H278693   2.015   3.997  13.186  0.0304  0.2952  0.4020
19068TIP3   OH278694   0.479   1.562   2.730  0.7702  0.4988  0.2705
19068TIP3    H178695   0.464   1.537   2.639  0.8338  1.1560  0.0713
19068TIP3    H278696   0.510   1.482   2.772 -1.3772 -0.4197  0.2512
19069TIP3   OH278697   5.605   4.820  16.855 -0.3212  0.1392 -0.2707
19069TIP3    H178698   5.648   4.903  16.877  0.1886 -0.4516  1.0647
19069TIP3    H278699   5.512   4.838  16.868 -0.1651  0.3239  0.7592
19070TIP3   OH278700   3.472   4.255   1.740  0.0620 -0.1249 -0.7948
19070TIP3    H178701   3.413   4.182   1.756  0.6713 -0.4354  0.1353
19070TIP3    H278702   3.487   4.293   1.827 -0.6122  1.4026 -1.3173
19071TIP3   OH278703   3.556   2.383   0.335 -0.4385  0.2740 -0.3091
19071TIP3    H178704   3.491   2.369   0.266  0.1486 -0.9686 -0.6472
19071TIP3    H278705   3.622   2.439   0.294 -0.8915  0.8761 -0.2254
19072TIP3   OH278706   4.084   0.737   5.542 -0.3133  0.1038 -0.0330
19072TIP3    H178707   3.991   0.743   5.564 -0.7090  0.0940 -1.5593
19072TIP3    H278708   4.106   0.823   5.506  0.4908  0.3685  1.0480
19073TIP3   OH278709   6.331   6.826  11.578  0.3550 -0.0248  0.5084
19073TIP3    H178710   6.276   6.794  11.507  1.3837 -1.1814  0.1862
19073TIP3    H278711   6.317   6.920  11.580 -0.7525 -0.1651 -0.3004
19074TIP3   OH278712   4.357   2.437   1.509 -0.0650  0.1535 -0.0552
19074TIP3    H178713   4.300   2.495   1.559  0.5558  1.0988 -0.4154
19074TIP3    H278714   4.300   2.365   1.481 -1.5552  1.9692 -1.9843
19075TIP3   OH278715   2.937   2.665   3.134  0.4436 -0.1502 -0.3200
19075TIP3    H178716   2.866   2.727   3.152  0.8943  0.1301  0.5340
19075TIP3    H278717   2.976   2.648   3.219  1.4003 -0.3121 -0.7782
19076TIP3   OH278718   4.987   5.144  13.790  0.2600  0.4378  0.7547
19076TIP3    H178719   4.991   5.056  13.751 -0.7713  0.5380  0.3970
19076TIP3    H278720   5.071   5.154  13.833  0.9871 -0.1511 -0.4566
19077TIP3   OH278721   5.780   1.588  13.600  0.1657  0.4824 -0.4293
19077TIP3    H178722   5.872   1.587  13.572  0.9321 -0.8273  1.8624
19077TIP3    H278723   5.744   1.667  13.560  2.1376  0.7554 -1.8260
19078TIP3   OH278724   3.158   3.721   0.558  0.5306 -0.0803  0.0272
19078TIP3    H178725   3.226   3.680   0.504  1.8465  0.3597  1.2645
19078TIP3    H278726   3.190   3.811   0.572  0.8537 -0.5052  2.4533
19079TIP3   OH278727   2.703   1.352  12.518  0.2928  0.0083  0.2468
19079TIP3    H178728   2.768   1.346  12.588  1.0152 -1.2599 -0.4858
19079TIP3    H278729   2.671   1.442  12.522 -0.1877 -0.2118  2.6321
19080TIP3   OH278730   4.945   4.925   3.726  0.1068  0.0277  0.6029
19080TIP3    H178731   4.969   4.974   3.648 -3.0301  0.9749  0.1063
19080TIP3    H278732   4.976   4.836   3.709 -0.2422  0.2774 -1.6145
19081TIP3   OH278733   0.443   6.043  16.506  0.7070  0.0245 -0.0990
19081TIP3    H178734   0.406   6.092  16.579  0.7598 -0.1553  0.0501
19081TIP3    H278735   0.407   6.084  16.428  3.2245  2.3849 -0.1552
19082TIP3   OH278736   1.117   6.747   2.157  0.2304 -0.4906  0.2234
19082TIP3    H178737   1.025   6.742   2.134  0.3755  1.0167 -0.7939
19082TIP3    H278738   1.133   6.840   2.174  1.5126 -0.7594  0.6023
19083TIP3   OH278739   3.241   6.318   0.925 -0.3362 -0.2394  0.1505
19083TIP3    H178740   3.296   6.340   0.849  0.6565 -2.2998  0.2115
19083TIP3    H278741   3.242   6.222   0.929 -0.5560 -0.2082  2.6325
19084TIP3   OH278742   6.618   5.942   2.613 -0.3426  0.4468 -0.3375
19084TIP3    H178743   6.572   6.010   2.564 -1.8071  0.9027  1.5503
19084TIP3    H278744   6.663   5.989   2.683 -1.4824 -0.4652  1.0782
19085TIP3   OH278745   5.999   0.276   3.437 -0.0148 -0.1804  0.3691
19085TIP3    H178746   6.025   0.257   3.346 -0.9081  2.0013 -0.3987
19085TIP3    H278747   5.978   0.190   3.473 -1.1428 -1.0075 -1.9953
19086TIP3   OH278748   2.074   5.871   4.618 -0.3086  0.4974  0.0217
19086TIP3    H178749   1.986   5.903   4.637 -1.1115 -2.1611  1.2411
19086TIP3    H278750   2.126   5.897   4.694 -0.9354 -0.9307  0.9743
19087TIP3   OH278751   3.066   1.804  11.368 -0.0061  0.2646  0.2563
19087TIP3    H178752   3.080   1.792  11.462  0.3491 -4.3786 -0.1815
19087TIP3    H278753   2.984   1.758  11.350 -0.3633  1.5451 -1.7098
19088TIP3   OH278754   5.600   6.499   3.908  0.1606 -0.3874 -0.0260
19088TIP3    H178755   5.510   6.470   3.895 -0.1579 -0.2161  1.5581
19088TIP3    H278756   5.597   6.594   3.900  0.5827 -0.4912 -1.8549
19089TIP3   OH278757   1.209   3.294   1.702 -0.0371  1.0491 -0.1382
19089TIP3    H178758   1.139   3.233   1.677 -0.6947  1.5765  0.3724
19089TIP3    H278759   1.276   3.282   1.634 -0.5661  0.4489 -0.5726
19090TIP3   OH278760   6.146   6.026  16.167 -0.1517 -0.1314  0.3939
19090TIP3    H178761   6.062   6.016  16.123 -0.0791  0.1003  0.1972
19090TIP3    H278762   6.207   6.051  16.097 -0.3433  1.8081  0.8442
19091TIP3   OH278763   2.101   5.671   1.543  0.5046  0.8831 -0.2365
19091TIP3    H178764   2.161   5.678   1.617  0.3158 -0.1713  0.0394
19091TIP3    H278765   2.155   5.687   1.466  0.9801  0.6788  0.0556
19092TIP3   OH278766   1.915   6.064   4.439 -0.1414 -0.0707  0.5734
19092TIP3    H178767   1.959   6.129   4.493 -3.2377  0.8129  2.3289
19092TIP3    H278768   1.840   6.111   4.402 -1.7292 -2.2328  0.8153
19093TIP3   OH278769   6.748   4.783  17.094  0.0965 -0.1567 -0.4332
19093TIP3    H178770   6.728   4.867  17.135 -1.5126 -1.0872  0.8244
19093TIP3    H278771   6.840   4.790  17.068 -0.3326  2.4202 -1.5304
19094TIP3   OH278772   0.536   2.496  11.964 -0.5714 -0.5790 -0.4776
19094TIP3    H178773   0.516   2.578  12.009  0.8607  0.5449 -1.7681
19094TIP3    H278774   0.628   2.479  11.985  0.2577  0.1814 -3.1532
19095TIP3   OH278775   0.715   5.006   2.680  0.2533 -0.2664  0.2783
19095TIP3    H178776   0.676   5.088   2.710 -1.3038 -0.6668 -0.5034
19095TIP3    H278777   0.723   5.018   2.585 -1.7425 -1.6522 -0.1246
19096TIP3   OH278778   2.515   3.863  13.284  1.5190 -0.9327 -0.2683
19096TIP3    H178779   2.458   3.801  13.329 -0.2422  0.5395 -0.3511
19096TIP3    H278780   2.570   3.900  13.352  0.3302 -0.2676  0.3733
19097TIP3   OH278781   6.769   6.369  10.565  0.0015  0.4409 -0.0677
19097TIP3    H178782   6.755   6.367  10.660  0.1893  1.0273 -0.0232
19097TIP3    H278783   6.681   6.367  10.527 -0.0722 -2.1450  0.0381
19098TIP3   OH278784   2.142   4.717   1.406  0.0264  0.0747 -0.2431
19098TIP3    H178785   2.145   4.651   1.475  0.3395 -0.4683 -0.7610
19098TIP3    H278786   2.111   4.669   1.329 -1.7911  0.9873 -0.1398
19099TIP3   OH278787   4.847   3.733  13.615  0.3195 -0.6332 -0.3194
19099TIP3    H178788   4.923   3.784  13.645 -1.4863  1.0257  1.7691
19099TIP3    H278789   4.779   3.799  13.599 -0.8742 -2.1076 -1.6910
19100TIP3   OH278790   5.843   4.904   4.496 -0.4554  0.1755 -0.3126
19100TIP3    H178791   5.759   4.916   4.451  0.2179  0.6289 -1.4864
19100TIP3    H278792   5.849   4.979   4.555 -0.0598  1.1595 -1.5649
19101TIP3   OH278793   2.984   4.824  15.553  0.7031 -0.0323  0.0581
19101TIP3    H178794   2.889   4.821  15.538  0.7917 -1.6032 -0.3498
19101TIP3    H278795   3.017   4.885  15.488  0.0697 -0.1511 -0.3842
19102TIP3   OH278796   3.566   2.097  13.709  0.1315 -0.6479  0.3949
19102TIP3    H178797   3.493   2.152  13.681 -1.7659 -3.2767 -0.1828
19102TIP3    H278798   3.580   2.121  13.800 -1.5386 -0.1261  0.5522
19103TIP3   OH278799   0.977   2.227   3.660 -0.1040 -0.1097 -0.1829
19103TIP3    H178800   0.986   2.147   3.608  0.1182  1.4241 -2.6866
19103TIP3    H278801   1.055   2.278   3.639 -0.8103  1.2633  0.3598
19104TIP3   OH278802   0.199   4.609  13.079  0.2227  0.1407 -0.6901
19104TIP3    H178803   0.167   4.565  13.158  0.3778  0.2622 -0.5574
19104TIP3    H278804   0.248   4.684  13.112  0.4344  0.0943 -0.8988
19105TIP3   OH278805   1.589   3.796  15.093 -0.3036  0.6519  0.4763
19105TIP3    H178806   1.680   3.774  15.113 -0.5529 -1.2396 -0.2600
19105TIP3    H278807   1.591   3.825  15.002 -0.1834  2.5359  1.0416
19106TIP3   OH278808   3.601   0.811  14.175 -0.2388  0.6276  0.0966
19106TIP3    H178809   3.588   0.783  14.266 -0.1201 -0.0576 -0.0945
19106TIP3    H278810   3.564   0.899  14.172 -1.8194  0.0158  0.3878
19107TIP3   OH278811   6.389   3.274   5.924  0.0361  0.9483 -0.4071
19107TIP3    H178812   6.428   3.243   5.843 -0.4276  0.9062 -0.6146
19107TIP3    H278813   6.463   3.282   5.985  0.4820  1.5815 -1.0145
19108TIP3   OH278814   0.943   4.830  14.228 -0.0344 -0.7022 -0.1039
19108TIP3    H178815   0.999   4.879  14.168  1.7742 -1.7495  0.6492
19108TIP3    H278816   0.911   4.756  14.175 -0.6210 -0.1904 -0.4877
19109TIP3   OH278817   5.174   0.426   3.201  0.3112 -0.3372  0.1333
19109TIP3    H178818   5.227   0.492   3.155 -1.2318 -0.1550 -1.4640
19109TIP3    H278819   5.118   0.477   3.259  0.4275 -0.3874  0.2908
19110TIP3   OH278820   2.191   6.791   4.652  0.0537 -0.3049  0.3297
19110TIP3    H178821   2.248   6.763   4.581  1.8488  1.5226  0.9518
19110TIP3    H278822   2.167   6.710   4.698 -0.3629 -1.4088 -1.7321
19111TIP3   OH278823   1.715   4.653  15.111  0.3149 -0.2184 -0.1560
19111TIP3    H178824   1.670   4.630  15.030 -0.6968 -1.0097  0.5935
19111TIP3    H278825   1.742   4.569  15.147 -1.1400 -0.0903  1.3624
19112TIP3   OH278826   1.500   0.462  13.189 -0.1390 -0.4127  0.3423
19112TIP3    H178827   1.582   0.418  13.167 -0.5562 -1.8519  1.5152
19112TIP3    H278828   1.436   0.428  13.127 -0.2651 -0.8405  0.6943
19113TIP3   OH278829   6.376   4.911   4.617 -0.0460  0.1627 -0.4475
19113TIP3    H178830   6.369   4.865   4.700  0.4166  0.3745 -0.2886
19113TIP3    H278831   6.407   4.999   4.640 -2.3410  1.0797 -0.6037
19114TIP3   OH278832   6.212   0.453  16.035 -0.3988  0.3413 -0.3022
19114TIP3    H178833   6.231   0.387  15.969  0.4718 -2.4517  2.4764
19114TIP3    H278834   6.156   0.408  16.099 -1.3642  2.9096  0.8257
19115TIP3   OH278835   5.205   3.615  13.126 -0.4547 -0.1610  0.9934
19115TIP3    H178836   5.147   3.543  13.104 -0.1883 -0.7827  2.1972
19115TIP3    H278837   5.147   3.689  13.142 -0.9997 -0.8975  2.6579
19116TIP3   OH278838   3.560   2.048  11.673  0.1302 -0.4430 -0.0287
19116TIP3    H178839   3.544   1.999  11.593  0.1808 -0.7936  0.1731
19116TIP3    H278840   3.482   2.103  11.683  0.0560 -0.5094 -0.2394
19117TIP3   OH278841   1.974   3.545   4.350  0.3853  0.2029 -0.4151
19117TIP3    H178842   2.002   3.635   4.370  1.1741 -0.1824  0.2828
19117TIP3    H278843   2.056   3.498   4.335  0.0825 -0.7282  0.6884
19118TIP3   OH278844   4.443   4.294  15.962  0.1889 -0.0609 -0.1056
19118TIP3    H178845   4.516   4.233  15.971 -0.1741 -0.5775 -0.5972
19118TIP3    H278846   4.470   4.371  16.013  0.3713 -0.8851  1.0976
19119TIP3   OH278847   6.611   6.483   2.642  0.2308 -0.3774 -0.2527
19119TIP3    H178848   6.629   6.465   2.734  2.9035  1.0790 -0.3884
19119TIP3    H278849   6.696   6.479   2.599 -0.9379 -1.0702 -2.7227
19120TIP3   OH278850   6.228   3.930  16.962  0.7962  0.2192  0.2701
19120TIP3    H178851   6.272   4.013  16.942 -0.0462  0.3246 -1.4087
19120TIP3    H278852   6.286   3.863  16.926 -0.0081  0.3225 -1.3545
19121TIP3   OH278853   3.160   5.932   2.268  0.1212 -0.4561 -0.8889
19121TIP3    H178854   3.075   5.963   2.299  0.4306  0.3743 -0.8531
19121TIP3    H278855   3.149   5.837   2.259 -0.5290 -0.4698 -0.0129
19122TIP3   OH278856   1.914   4.089   6.066  0.4590  0.3821 -0.3141
19122TIP3    H178857   1.988   4.136   6.028  1.1306 -1.6715 -1.7418
19122TIP3    H278858   1.955   4.013   6.109 -0.7301 -0.0969  0.0043
19123TIP3   OH278859   1.887   1.028   2.330 -0.3013 -0.0075  0.3186
19123TIP3    H178860   1.936   1.105   2.300  0.9529 -1.0623 -0.4221
19123TIP3    H278861   1.877   1.040   2.424  1.8544  0.0015  0.5840
19124TIP3   OH278862   2.095   3.253   5.723  0.0744  0.0621  0.3899
19124TIP3    H178863   2.085   3.208   5.807 -0.9132 -0.3895  0.0447
19124TIP3    H278864   2.011   3.241   5.679  1.1044 -1.1263 -1.3588
19125TIP3   OH278865   1.581   4.126   1.880 -0.3129  0.5859 -0.7285
19125TIP3    H178866   1.597   4.082   1.796  1.0235  0.3292 -0.3581
19125TIP3    H278867   1.667   4.132   1.921 -1.0106  0.2085  0.8782
19126TIP3   OH278868   5.202   6.194   5.218  0.3928  0.0987  0.2170
19126TIP3    H178869   5.133   6.260   5.226 -1.4787 -1.4806 -1.7471
19126TIP3    H278870   5.238   6.208   5.130  2.4372  0.6700  1.0741
19127TIP3   OH278871   4.355   0.291  12.972 -0.6246 -0.3025  0.1863
19127TIP3    H178872   4.352   0.382  13.000  0.3911 -0.1116 -0.2613
19127TIP3    H278873   4.322   0.292  12.882  0.8237 -0.1050 -0.3771
19128TIP3   OH278874   1.573   2.932  10.981 -0.7792 -0.7190 -0.2248
19128TIP3    H178875   1.498   2.991  10.969 -0.2248 -0.3610 -2.3598
19128TIP3    H278876   1.537   2.844  10.972 -1.0953 -0.5915 -0.2110
19129TIP3   OH278877   0.055   1.078   0.232  0.2316  0.3096  0.0418
19129TIP3    H178878   0.041   1.119   0.147  0.4326  0.2385 -0.0259
19129TIP3    H278879   0.150   1.076   0.243  0.1909  2.0902  1.1249
19130TIP3   OH278880   2.293   3.066  14.989 -0.6538  0.0425  0.1567
19130TIP3    H178881   2.276   2.972  14.994 -1.9372  0.2889  0.7268
19130TIP3    H278882   2.340   3.077  14.907 -2.7194 -0.8010 -1.2188
19131TIP3   OH278883   0.402   6.669   2.374 -0.0528 -0.4900  0.5698
19131TIP3    H178884   0.332   6.719   2.333 -0.7214 -0.2285  1.9538
19131TIP3    H278885   0.388   6.579   2.345  0.8042 -0.0228 -1.4628
19132TIP3   OH278886   2.976   6.761  15.390  0.5372 -0.5144 -0.0560
19132TIP3    H178887   2.899   6.721  15.349  0.3006  0.3291 -0.4539
19132TIP3    H278888   2.980   6.849  15.353 -0.2959  0.6883  2.5064
19133TIP3   OH278889   0.602   6.666   1.030 -0.1182  0.4704 -0.1443
19133TIP3    H178890   0.576   6.758   1.027  1.4393  0.8990 -2.1200
19133TIP3    H278891   0.519   6.618   1.041 -1.0576  2.0426 -0.1400
19134TIP3   OH278892   4.161   1.446   0.242 -0.2905  0.2237 -0.0559
19134TIP3    H178893   4.175   1.396   0.162 -0.7701 -0.1000  0.0577
19134TIP3    H278894   4.159   1.538   0.213 -1.1217  0.0682 -0.5184
19135TIP3   OH278895   0.232   4.515  16.103  0.4676 -0.7616  0.5010
19135TIP3    H178896   0.229   4.437  16.158  0.5550 -1.1740 -0.0617
19135TIP3    H278897   0.313   4.507  16.053 -0.4898 -1.3752 -1.0560
19136TIP3   OH278898   0.779   2.832   4.805  0.6707 -0.3269  0.0649
19136TIP3    H178899   0.719   2.907   4.812 -0.6133 -1.0347 -2.1353
19136TIP3    H278900   0.766   2.783   4.886  1.7998  1.9479  1.7142
19137TIP3   OH278901   3.508   1.688  14.251 -0.4560  0.4272 -0.2569
19137TIP3    H178902   3.419   1.700  14.220 -0.3615  1.7461 -0.0617
19137TIP3    H278903   3.563   1.727  14.184 -0.1495  1.4230  0.5426
19138TIP3   OH278904   5.247   2.357  15.850 -0.0463 -0.3179 -0.1174
19138TIP3    H178905   5.275   2.295  15.918 -0.0385  2.3070  2.5103
19138TIP3    H278906   5.323   2.413  15.836 -0.0936 -0.7339 -2.3261
19139TIP3   OH278907   5.516   3.358   3.074  0.1885 -0.8258 -0.0874
19139TIP3    H178908   5.488   3.361   3.166 -1.6438  0.8446 -0.6221
19139TIP3    H278909   5.598   3.406   3.072 -0.4175  0.2738  0.5028
19140TIP3   OH278910   5.606   6.210   4.166 -0.5376  0.1617  0.2365
19140TIP3    H178911   5.615   6.299   4.200 -1.0944 -0.6275  2.6412
19140TIP3    H278912   5.694   6.187   4.134  0.6286  0.2985  3.0691
19141TIP3   OH278913   1.666   3.057   0.300 -0.6289 -0.6917 -0.0855
19141TIP3    H178914   1.596   3.016   0.249 -1.2825  1.4371 -0.9902
19141TIP3    H278915   1.680   3.142   0.259  2.1499 -0.8150  0.4171
19142TIP3   OH278916   2.786   0.741   3.930 -0.3823  0.1184 -0.2948
19142TIP3    H178917   2.761   0.827   3.894 -0.3346  1.7207  3.1177
19142TIP3    H278918   2.704   0.703   3.959 -0.1649  0.1494  0.3890
19143TIP3   OH278919   1.766   1.911   6.510  0.6079 -0.2887  0.3060
19143TIP3    H178920   1.851   1.948   6.534  0.6865 -0.3918  0.1845
19143TIP3    H278921   1.759   1.831   6.563  0.5826 -0.2777  0.3199
19144TIP3   OH278922   6.756   4.201  12.302  0.0827  0.3629  0.0293
19144TIP3    H178923   6.832   4.228  12.251 -0.1217  0.4037 -0.2551
19144TIP3    H278924   6.778   4.225  12.392 -0.1733  1.6655 -0.2358
19145TIP3   OH278925   3.312   3.042  13.595 -0.2832  0.1872 -0.2268
19145TIP3    H178926   3.403   3.011  13.598  0.3772  1.9047  3.7371
19145TIP3    H278927   3.310   3.104  13.523  1.4588 -0.4335 -0.8720
19146TIP3   OH278928   6.828   2.285  13.332  0.2437 -0.1323  0.4447
19146TIP3    H178929   6.770   2.323  13.266 -1.2854 -1.6699  0.8250
19146TIP3    H278930   6.911   2.271  13.286  0.3682  2.0465 -0.1360
19147TIP3   OH278931   3.006   0.177  15.260  0.0440 -0.2618 -0.0257
19147TIP3    H178932   3.066   0.194  15.188  1.3273 -0.0717  1.0553
19147TIP3    H278933   2.950   0.255  15.264  1.0978  0.4965  0.2571
19148TIP3   OH278934   0.747   4.595   2.285  0.2143  0.2803  0.1290
19148TIP3    H178935   0.720   4.580   2.194 -1.1052  0.0888  0.5375
19148TIP3    H278936   0.792   4.514   2.310  0.4939  0.2948 -0.3142
19149TIP3   OH278937   2.732   5.532  15.001 -0.3525  0.0332 -0.7366
19149TIP3    H178938   2.685   5.588  14.940 -0.1007 -2.5346 -3.4946
19149TIP3    H278939   2.678   5.534  15.081 -0.8536  3.2570 -1.0232
19150TIP3   OH278940   5.421   5.196   5.443 -0.1413 -0.0814  0.3670
19150TIP3    H178941   5.418   5.265   5.376 -1.5022  0.4088  0.8980
19150TIP3    H278942   5.411   5.114   5.393 -0.3270  0.2270 -0.1131
19151TIP3   OH278943   4.639   2.461   1.161 -0.1658  0.2675 -0.4378
19151TIP3    H178944   4.572   2.401   1.193  0.3474 -0.6205 -0.9889
19151TIP3    H278945   4.596   2.546   1.159 -0.6555  0.0805  1.1610
19152TIP3   OH278946   2.855   2.308   2.830 -0.0992  0.3134 -0.4599
19152TIP3    H178947   2.920   2.318   2.899 -0.6609  1.1483 -0.0256
19152TIP3    H278948   2.862   2.217   2.803  1.4694  0.4669 -0.6566
19153TIP3   OH278949   4.574   2.356   0.747 -0.3259 -0.0366  0.0418
19153TIP3    H178950   4.501   2.316   0.699 -0.4642 -0.5405  0.6453
19153TIP3    H278951   4.559   2.330   0.838  0.6100 -0.1538  0.1751
19154TIP3   OH278952   5.863   6.824   4.933  0.2532 -0.0835 -0.1548
19154TIP3    H178953   5.898   6.775   4.859  0.4591 -1.1972  0.6432
19154TIP3    H278954   5.768   6.822   4.921  0.1412 -2.0803  0.6555
19155TIP3   OH278955   2.242   1.217  15.987  0.2079  0.4723  0.3790
19155TIP3    H178956   2.196   1.154  15.931 -0.7928  0.6992  0.9221
19155TIP3    H278957   2.290   1.163  16.049  3.4962  0.0962 -2.2089
19156TIP3   OH278958   6.263   0.049  13.781 -0.0224 -0.3055 -0.2976
19156TIP3    H178959   6.261   0.083  13.691 -1.1634  2.2214  0.5931
19156TIP3    H278960   6.171   0.046  13.807  0.3417 -0.2880  1.0294
19157TIP3   OH278961   2.714   4.810  14.730  0.4211 -0.0403  0.2976
19157TIP3    H178962   2.650   4.818  14.659  0.4548  2.2424  0.4396
19157TIP3    H278963   2.793   4.852  14.695  1.0549 -0.6388  0.9971
19158TIP3   OH278964   2.302   6.154   0.096 -0.0614  0.1938  0.4195
19158TIP3    H178965   2.285   6.195   0.181  1.6281  1.5322  0.1644
19158TIP3    H278966   2.358   6.079   0.115 -0.2947  0.0498  0.5449
19159TIP3   OH278967   3.996   5.883   1.303 -0.1477  0.2708  0.0981
19159TIP3    H178968   3.990   5.944   1.377 -0.6370  0.0922  0.2082
19159TIP3    H278969   3.906   5.853   1.290 -0.0095  0.0560 -0.3649
19160TIP3   OH278970   4.674   4.018  12.656 -0.2334 -0.2387  0.2701
19160TIP3    H178971   4.738   4.088  12.650 -0.9664  0.3493 -1.0741
19160TIP3    H278972   4.627   4.035  12.737  0.7326 -0.1766  0.8238
19161TIP3   OH278973   2.946   1.568   5.637  0.3693  0.3106 -0.1924
19161TIP3    H178974   2.853   1.577   5.621  0.4922  0.3684 -0.9141
19161TIP3    H278975   2.985   1.557   5.550  0.8511 -1.4036  0.1857
19162TIP3   OH278976   4.111   2.354  12.249 -0.1884 -0.2135 -0.2746
19162TIP3    H178977   4.200   2.379  12.274 -0.7037 -0.1153  1.5942
19162TIP3    H278978   4.112   2.258  12.249 -0.4696 -0.2535  1.4402
19163TIP3   OH278979   3.107   4.933  12.487  0.3049  0.1658 -0.2158
19163TIP3    H178980   3.015   4.960  12.483  0.6413  1.2197 -1.6285
19163TIP3    H278981   3.156   5.014  12.481  1.3615 -0.3020  1.4359
19164TIP3   OH278982   3.243   4.494   5.526 -0.1601 -0.0913  0.4698
19164TIP3    H178983   3.148   4.509   5.530 -0.3384 -1.2678  1.1570
19164TIP3    H278984   3.265   4.505   5.434 -0.8391  0.8731  0.4075
19165TIP3   OH278985   1.197   1.992   4.397 -0.7973  0.2736  0.2727
19165TIP3    H178986   1.270   2.020   4.342 -0.4715 -0.8995  0.0787
19165TIP3    H278987   1.125   1.977   4.337 -0.6087 -0.4518  0.2093
19166TIP3   OH278988   3.839   5.343  16.783  0.4111 -0.0651 -0.1034
19166TIP3    H178989   3.758   5.351  16.732  0.0622  2.0721  0.6348
19166TIP3    H278990   3.903   5.307  16.722 -1.1001 -1.9767 -0.6679
19167TIP3   OH278991   3.193   0.790  15.348 -0.0825  0.2408 -0.4248
19167TIP3    H178992   3.171   0.699  15.368  0.8389 -0.0709 -0.7455
19167TIP3    H278993   3.213   0.789  15.254  1.0896  0.5124 -0.1986
19168TIP3   OH278994   4.685   3.547   1.413 -0.1433  0.0120 -0.3107
19168TIP3    H178995   4.755   3.559   1.349 -0.5436 -0.6799 -0.8947
19168TIP3    H278996   4.604   3.546   1.361 -0.4193 -1.2957  0.0970
19169TIP3   OH278997   2.011   2.560   0.050  0.0781 -0.5546  0.0071
19169TIP3    H178998   2.039   2.652   0.052  0.6181 -0.6323 -2.0046
19169TIP3    H278999   1.929   2.559   0.098  0.3897  0.8637  0.6104
19170TIP3   OH279000   5.066   3.593  11.211 -0.7563 -0.2335  0.8323
19170TIP3    H179001   5.018   3.629  11.286 -2.0538  0.4136 -0.2640
19170TIP3    H279002   5.100   3.671  11.166  1.0542 -0.6710  1.3889
19171TIP3   OH279003   3.427   0.825   3.669  0.0467  0.1651  0.4345
19171TIP3    H179004   3.475   0.838   3.751  1.0895  0.6271 -0.2269
19171TIP3    H279005   3.495   0.820   3.602 -0.8108  0.3077 -0.4689
19172TIP3   OH279006   4.095   3.323   1.596 -0.7417 -0.1679 -0.2056
19172TIP3    H179007   4.023   3.260   1.595 -1.6581  0.8318  0.3941
19172TIP3    H279008   4.070   3.388   1.529 -1.6857  1.5108  1.6639
19173TIP3   OH279009   4.536   1.926   2.272  0.1724 -0.0955  0.0261
19173TIP3    H179010   4.478   1.935   2.197  1.3528  2.5415 -0.6711
19173TIP3    H279011   4.488   1.965   2.345 -0.0971 -0.6188  0.1276
19174TIP3   OH279012   6.519   6.657   6.520 -0.4780  0.0280  0.1111
19174TIP3    H179013   6.456   6.715   6.562  0.4904  0.9970  0.2690
19174TIP3    H279014   6.499   6.570   6.556 -2.1453  0.1813 -0.3607
19175TIP3   OH279015   1.131   4.824  12.143 -0.8036  0.1588 -0.1056
19175TIP3    H179016   1.188   4.774  12.202 -0.1064  0.1881 -0.7320
19175TIP3    H279017   1.104   4.900  12.194  0.7198  0.7827 -0.1747
19176TIP3   OH279018   6.062   1.364  13.001 -0.1008  0.1241 -0.4757
19176TIP3    H179019   5.985   1.332  12.954 -1.2570  2.5480 -0.3824
19176TIP3    H279020   6.043   1.346  13.093  0.0572 -0.4306 -0.5454
19177TIP3   OH279021   3.493   2.987   0.132 -0.5048 -0.1363 -0.2148
19177TIP3    H179022   3.477   3.071   0.175  1.2942  0.1020  0.0665
19177TIP3    H279023   3.425   2.929   0.166 -1.0005  0.8698  0.5503
19178TIP3   OH279024   0.253   0.941   4.877 -0.0843 -0.1010 -0.1191
19178TIP3    H179025   0.252   0.952   4.782 -0.3040 -0.8514 -0.2172
19178TIP3    H279026   0.181   0.879   4.894 -1.8375  2.0440  0.8173
19179TIP3   OH279027   0.171   1.961  14.725  0.0327 -0.2804 -0.0113
19179TIP3    H179028   0.126   1.953  14.641 -1.0323  1.5626  0.3314
19179TIP3    H279029   0.259   1.926  14.708 -0.4174 -0.7100 -1.6579
19180TIP3   OH279030   6.012   2.032  16.166 -0.3680  0.1912  0.5960
19180TIP3    H179031   5.942   2.096  16.182 -0.0722 -0.0126  3.0873
19180TIP3    H279032   6.091   2.085  16.153 -1.0346  0.4837 -3.4717
19181TIP3   OH279033   0.001   0.887   5.217 -0.1739  0.1958 -0.2204
19181TIP3    H179034   0.076   0.849   5.263  1.0925  2.0743 -0.6269
19181TIP3    H279035  -0.016   0.969   5.263 -1.4659  0.2006 -0.6732
19182TIP3   OH279036   5.904   2.567  16.425 -0.1693 -0.1867  0.2957
19182TIP3    H179037   5.846   2.574  16.501 -1.5967  2.1159 -0.8997
19182TIP3    H279038   5.968   2.637  16.436 -0.8120  0.6283 -0.9011
19183TIP3   OH279039   4.993   2.642  16.413  0.2533  0.3192  1.0517
19183TIP3    H179040   4.918   2.690  16.379  0.4202  1.2989  2.0346
19183TIP3    H279041   4.969   2.550  16.405  0.2792  0.4704 -1.7157
19184TIP3   OH279042   4.787   0.141  14.734  0.2873  0.3780 -0.0040
19184TIP3    H179043   4.794   0.173  14.644 -0.0521  1.6048  0.3949
19184TIP3    H279044   4.696   0.110  14.741  0.1644  0.7595  0.0738
19185TIP3   OH279045   3.847   0.441   0.847 -0.0733 -0.0482 -0.2086
19185TIP3    H179046   3.811   0.420   0.933 -0.6473 -1.1948 -0.6919
19185TIP3    H279047   3.772   0.476   0.798  0.1225  0.1077 -0.3972
19186TIP3   OH279048   3.266   6.069   5.946  0.1550  0.1385 -0.1519
19186TIP3    H179049   3.207   6.001   5.977  0.8719 -0.8609 -0.9143
19186TIP3    H279050   3.337   6.070   6.011  0.9370 -0.9619 -0.9581
19187TIP3   OH279051   2.069   0.455  14.428  0.0947  0.1536 -0.0872
19187TIP3    H179052   2.080   0.547  14.403 -0.2008  0.0973 -0.4352
19187TIP3    H279053   2.021   0.459  14.511 -0.3749  0.3042 -0.3608
19188TIP3   OH279054   4.811   1.334   4.075 -0.1603 -0.5718 -0.2863
19188TIP3    H179055   4.851   1.275   4.011  1.1508  1.4000 -1.3904
19188TIP3    H279056   4.782   1.277   4.146  0.2683 -2.6026 -1.6741
19189TIP3   OH279057   5.809   5.496  16.348 -0.4259 -0.3218  0.3744
19189TIP3    H179058   5.783   5.566  16.407  0.4587  1.2625 -1.0381
19189TIP3    H279059   5.901   5.480  16.368 -0.1983  0.0279 -0.3760
19190TIP3   OH279060   1.544   0.715  14.597  0.1165 -0.2126  0.3703
19190TIP3    H179061   1.471   0.655  14.582  1.1456 -0.9560 -2.1482
19190TIP3    H279062   1.541   0.775  14.523  0.3556  1.6072  1.7734
19191TIP3   OH279063   2.751   5.133   1.809 -0.2377 -0.2023 -0.2558
19191TIP3    H179064   2.738   5.047   1.850  1.6513 -1.1408 -1.4613
19191TIP3    H279065   2.689   5.134   1.736  0.2202 -0.8651 -0.6644
19192TIP3   OH279066   5.804   4.984  16.969 -0.6462  0.1195 -0.5198
19192TIP3    H179067   5.873   4.923  16.943  0.0834  0.8376 -0.3078
19192TIP3    H279068   5.806   4.984  17.065 -1.4921 -0.4581 -0.4896
19193TIP3   OH279069   5.648   1.867   2.808  0.4163  0.3743  0.0066
19193TIP3    H179070   5.604   1.903   2.885 -1.0207 -0.3587 -0.4429
19193TIP3    H279071   5.580   1.864   2.741  1.5594  0.6690 -1.1942
19194TIP3   OH279072   3.690   4.331  15.061 -0.2879 -0.4132  0.1236
19194TIP3    H179073   3.627   4.345  15.132  1.0553  0.2608  1.2476
19194TIP3    H279074   3.761   4.393  15.080  0.3133 -0.5434 -1.5730
19195TIP3   OH279075   3.866   4.463  15.392 -0.1721 -0.3181 -0.9176
19195TIP3    H179076   3.896   4.376  15.367  1.4906  0.5703 -2.1719
19195TIP3    H279077   3.854   4.458  15.487  0.9667 -1.5979 -0.8135
19196TIP3   OH279078   5.477   1.717   5.052  0.0914  0.5363 -0.3091
19196TIP3    H179079   5.509   1.664   5.125  1.8363 -1.7691 -2.5677
19196TIP3    H279080   5.556   1.749   5.009 -0.9117  2.4174 -0.8691
19197TIP3   OH279081   1.717   3.008  16.864  0.1439 -0.7589 -0.3123
19197TIP3    H179082   1.774   2.943  16.822  1.3658 -0.1189  0.2948
19197TIP3    H279083   1.768   3.038  16.939 -1.1195 -0.3345  0.3958
19198TIP3   OH279084   3.120   5.121   5.716 -0.0349  0.1865 -0.1494
19198TIP3    H179085   3.175   5.108   5.639 -0.0482 -0.6598 -0.0184
19198TIP3    H279086   3.076   5.205   5.700  1.6876  1.1584  0.0053
19199TIP3   OH279087   3.888   3.253   4.154  0.0344  0.0794  0.2306
19199TIP3    H179088   3.821   3.191   4.182 -0.3743  0.3859 -0.0611
19199TIP3    H279089   3.966   3.228   4.204 -0.0931 -0.7379  0.0213
19200TIP3   OH279090   3.862   1.460  13.010 -0.7612 -0.6853 -0.2280
19200TIP3    H179091   3.836   1.416  12.929 -1.1483 -0.7847 -0.0577
19200TIP3    H279092   3.779   1.478  13.054 -0.5626 -0.4642  0.0582
19201TIP3   OH279093   5.391   6.750  13.165 -0.4918  1.1623  0.1677
19201TIP3    H179094   5.441   6.779  13.089 -0.4956  0.1142 -0.2529
19201TIP3    H279095   5.360   6.831  13.205  0.0445  1.7575 -0.5825
19202TIP3   OH279096   0.810   4.309  13.050  0.7515 -0.5269 -0.3329
19202TIP3    H179097   0.755   4.281  13.123  0.9178 -0.4618 -0.1814
19202TIP3    H279098   0.783   4.399  13.033 -0.1206 -0.9313 -1.1358
19203TIP3   OH279099   0.469   4.583  15.378 -0.2780  0.1660  0.7894
19203TIP3    H179100   0.507   4.518  15.319 -1.0112  1.6761 -1.4999
19203TIP3    H279101   0.545   4.625  15.419  0.4024  0.3687 -0.5863
19204TIP3   OH279102   1.458   1.160  11.708 -0.1054 -0.3075  0.2187
19204TIP3    H179103   1.488   1.242  11.745 -1.4594 -0.0711  0.8555
19204TIP3    H279104   1.365   1.155  11.731 -0.7533 -0.7162 -2.1192
19205TIP3   OH279105   6.086   1.659  14.042 -0.5451  0.3203  0.0604
19205TIP3    H179106   6.092   1.751  14.064 -1.1533 -0.0009  1.7146
19205TIP3    H279107   6.022   1.623  14.104  0.0474 -1.3055 -0.2117
19206TIP3   OH279108   2.052   3.753   0.876  0.5310 -0.3338  0.0714
19206TIP3    H179109   2.046   3.711   0.961  1.7451 -2.0946 -0.6496
19206TIP3    H279110   2.143   3.784   0.870  0.4845 -0.3058 -0.5991
19207TIP3   OH279111   1.024   5.324   2.451 -0.3284  0.1255 -0.1468
19207TIP3    H179112   1.119   5.322   2.439 -0.3658  0.9042 -0.6559
19207TIP3    H279113   0.995   5.237   2.425  0.5162 -1.1049  2.7001
19208TIP3   OH279114   2.500   2.250  16.444 -0.3510 -0.0150 -0.1768
19208TIP3    H179115   2.451   2.276  16.366 -0.2406  0.8439  0.0230
19208TIP3    H279116   2.518   2.157  16.431 -1.3253 -0.1590 -0.6345
19209TIP3   OH279117   3.478   0.075   0.468 -0.0353  0.1854  0.3648
19209TIP3    H179118   3.535   0.114   0.402 -0.5944  2.1634  0.9958
19209TIP3    H279119   3.535   0.013   0.515  0.7383 -0.1737 -0.9982
19210TIP3   OH279120   1.997   5.456  12.793 -0.1424 -0.3488 -0.5236
19210TIP3    H179121   2.045   5.500  12.863  0.7360 -1.0643 -0.6637
19210TIP3    H279122   2.007   5.514  12.717  0.9814 -0.7442 -0.6972
19211TIP3   OH279123   6.110   5.089  12.659  0.0598 -0.3899 -0.0703
19211TIP3    H179124   6.105   5.184  12.651 -1.2767 -0.5533 -1.8832
19211TIP3    H279125   6.190   5.073  12.709  1.1554  1.6455 -1.0293
19212TIP3   OH279126   4.108   2.991   1.417  0.4715  0.5627 -0.6528
19212TIP3    H179127   4.126   3.008   1.509  1.1728 -1.6632 -0.3311
19212TIP3    H279128   4.161   2.914   1.395 -1.2336 -0.2198 -2.3520
19213TIP3   OH279129   1.200   4.530   0.032 -0.2050 -0.2263 -0.1293
19213TIP3    H179130   1.214   4.580   0.113 -1.5869 -0.3794  0.2354
19213TIP3    H279131   1.260   4.570  -0.031  0.1138  0.6228  0.6711
19214TIP3   OH279132   4.240   4.358   1.067 -0.0365  0.7502 -0.1748
19214TIP3    H179133   4.317   4.301   1.068  0.0496  0.8696  0.4226
19214TIP3    H279134   4.196   4.338   0.984 -1.0587 -1.5772  0.8212
19215TIP3   OH279135   0.810   1.841  11.125 -0.3357 -0.6016 -0.1049
19215TIP3    H179136   0.783   1.933  11.124 -2.6747 -1.1779  1.1765
19215TIP3    H279137   0.739   1.795  11.081  1.2574 -1.7567 -1.6028
19216TIP3   OH279138   1.579   4.901   1.850 -0.0489 -0.4502  0.6128
19216TIP3    H179139   1.663   4.860   1.872  1.5115  2.3184  0.3011
19216TIP3    H279140   1.570   4.887   1.755  0.5411 -0.0011  0.4842
19217TIP3   OH279141   0.037   3.934   2.093  0.2697  0.6294  0.3080
19217TIP3    H179142   0.100   3.996   2.130  0.5926 -0.3723  1.5040
19217TIP3    H279143   0.052   3.853   2.142 -1.6924  0.2630  0.3598
19218TIP3   OH279144   0.843   6.125   1.731  0.1587 -0.2786  0.2363
19218TIP3    H179145   0.842   6.048   1.789  0.4222 -0.9197 -0.5832
19218TIP3    H279146   0.858   6.199   1.790  0.9102 -0.9617  0.9277
19219TIP3   OH279147   3.330   1.104  17.169 -0.2290  0.5050  0.3685
19219TIP3    H179148   3.305   1.028  17.116 -0.2404  1.7566 -1.5363
19219TIP3    H279149   3.350   1.068  17.255 -1.7231 -1.4377 -0.0359
19220TIP3   OH279150   6.202   0.523  11.300 -0.5641 -0.2537 -0.0166
19220TIP3    H179151   6.170   0.602  11.256 -0.5463 -1.3767 -2.1756
19220TIP3    H279152   6.294   0.542  11.319 -0.8324  0.6279  0.4828
19221TIP3   OH279153   0.779   2.145  14.276  0.4015 -1.0184 -0.0987
19221TIP3    H179154   0.863   2.191  14.278  0.4112 -1.0520  1.4080
19221TIP3    H279155   0.753   2.148  14.184  1.0564  0.7948 -0.2780
19222TIP3   OH279156   2.717   4.247  14.505 -0.4656 -0.1217 -0.1433
19222TIP3    H179157   2.763   4.282  14.581  0.6026  1.0822 -1.2876
19222TIP3    H279158   2.786   4.212  14.449 -1.2122 -0.8074 -0.6572
19223TIP3   OH279159   0.942   2.611   5.421 -0.0721  0.7844  0.1915
19223TIP3    H179160   1.012   2.619   5.356  0.6491  2.8503  1.1386
19223TIP3    H279161   0.988   2.597   5.504 -0.9363 -0.7269  0.4518
19224TIP3   OH279162   4.833   5.854   1.474 -0.2459 -0.1789  0.1118
19224TIP3    H179163   4.873   5.806   1.547 -3.0385  0.6228  2.3429
19224TIP3    H279164   4.899   5.918   1.448  0.7016 -0.1945  2.2836
19225TIP3   OH279165   5.517   4.770   0.478 -0.2529  0.0628  0.2098
19225TIP3    H179166   5.552   4.762   0.389 -0.6866  1.2817 -0.0999
19225TIP3    H279167   5.448   4.704   0.482 -1.6564  1.3438 -1.1250
19226TIP3   OH279168   3.032   2.180  15.039 -0.2572  1.2298  0.5382
19226TIP3    H179169   3.077   2.146  14.962 -1.7630  0.3304  0.0258
19226TIP3    H279170   3.060   2.123  15.111  0.6866  1.7121  0.5763
19227TIP3   OH279171   2.297   0.131   1.584  0.0524 -0.1684 -0.0946
19227TIP3    H179172   2.261   0.114   1.497  0.9218  0.4033 -0.5834
19227TIP3    H279173   2.256   0.213   1.611 -0.1113 -0.2732 -0.0226
19228TIP3   OH279174   1.368   2.073  15.577  0.0562 -0.0733  0.0355
19228TIP3    H179175   1.380   2.148  15.635  1.4412 -1.4595  1.6169
19228TIP3    H279176   1.456   2.046  15.553 -0.4130 -1.2358 -0.4578
19229TIP3   OH279177   4.433   2.422   2.449 -0.0754  0.1608 -0.4223
19229TIP3    H179178   4.486   2.349   2.418  1.6342  0.9695  0.4399
19229TIP3    H279179   4.487   2.499   2.431 -0.2034  0.8818  1.9699
19230TIP3   OH279180   2.710   0.784  17.026  0.2495 -0.2354  0.1738
19230TIP3    H179181   2.765   0.862  17.017 -1.8539  1.2177 -0.9033
19230TIP3    H279182   2.679   0.767  16.938  0.1852 -1.9711  0.5051
19231TIP3   OH279183   1.332   4.582  14.290  0.1378  0.3061 -0.8292
19231TIP3    H179184   1.264   4.565  14.225  0.2717  0.8954 -1.1255
19231TIP3    H279185   1.411   4.599  14.239  0.7887 -1.4110 -0.4848
19232TIP3   OH279186   6.012   5.529   5.347  0.2043 -0.4315 -0.2503
19232TIP3    H179187   5.924   5.558   5.323  0.0468  0.8710  1.7121
19232TIP3    H279188   6.070   5.579   5.290 -0.2542  0.1896 -0.1726
19233TIP3   OH279189   1.718   3.352  14.714  0.8659 -0.8051  0.2996
19233TIP3    H179190   1.651   3.408  14.675  2.9562  1.9736  0.4025
19233TIP3    H279191   1.681   3.328  14.800 -0.6252 -0.7288 -0.2821
19234TIP3   OH279192   3.822   6.275  16.469  0.1622  0.4014  0.4544
19234TIP3    H179193   3.787   6.267  16.557  2.1876  0.0583  1.2863
19234TIP3    H279194   3.870   6.358  16.469 -2.3367  2.0014 -1.3323
19235TIP3   OH279195   6.458   0.428   2.792 -0.3885  0.2708  0.4673
19235TIP3    H179196   6.371   0.400   2.822 -0.8017  0.3244 -0.6270
19235TIP3    H279197   6.500   0.346   2.765  0.9386 -0.1333  3.4248
19236TIP3   OH279198   0.953   4.849   4.419 -0.5190  0.1149  0.2309
19236TIP3    H179199   0.986   4.910   4.484  2.1738 -2.2958  1.3339
19236TIP3    H279200   1.018   4.851   4.348 -2.9768  2.0950 -2.1775
19237TIP3   OH279201   0.301   3.029  14.402 -0.5290 -0.5778  0.2182
19237TIP3    H179202   0.386   3.052  14.364 -0.4318 -0.1771  0.6786
19237TIP3    H279203   0.297   2.933  14.394  0.9202 -0.8524  2.1351
19238TIP3   OH279204   4.890   0.486   4.020  0.3310 -0.2634  0.3842
19238TIP3    H179205   4.896   0.556   4.086 -2.7569 -0.4613  1.0621
19238TIP3    H279206   4.935   0.411   4.060 -1.0330 -0.2244  2.1183
19239TIP3   OH279207   2.031   2.886   1.827  0.2261  0.2583  0.1646
19239TIP3    H179208   2.084   2.886   1.747  1.5273 -0.2889  0.9838
19239TIP3    H279209   2.051   2.802   1.868  0.1734  0.8486  1.4386
19240TIP3   OH279210   4.132   1.978   1.675 -0.2782  0.3077 -0.4497
19240TIP3    H179211   4.209   2.033   1.665 -0.9319  1.2067 -0.7522
19240TIP3    H279212   4.106   1.956   1.585 -0.2042 -0.2330 -0.3407
19241TIP3   OH279213   1.103   6.718  13.849  0.5823 -0.2655 -0.3972
19241TIP3    H179214   1.157   6.651  13.807 -0.8422 -0.2998 -2.3230
19241TIP3    H279215   1.017   6.678  13.858  0.5750  0.1034  1.7627
19242TIP3   OH279216   3.921   4.206  16.413 -0.1369  0.4869  0.0895
19242TIP3    H179217   3.914   4.248  16.327  2.5130 -0.5987 -0.7531
19242TIP3    H279218   3.921   4.112  16.395 -0.4538  0.2107  1.3822
19243TIP3   OH279219   1.603   1.492  14.672 -0.3448 -0.8842  0.0624
19243TIP3    H179220   1.607   1.572  14.619 -0.6901 -0.2671  0.9272
19243TIP3    H279221   1.650   1.426  14.622 -3.9870 -1.4945 -2.9855
19244TIP3   OH279222   6.440   2.238  13.203 -0.6969  0.0927  0.1474
19244TIP3    H179223   6.422   2.165  13.144 -2.7374 -0.5237  1.4167
19244TIP3    H279224   6.526   2.271  13.176 -0.7605 -1.3018 -1.9367
19245TIP3   OH279225   4.590   2.202  10.452  0.1316 -0.1430  0.8406
19245TIP3    H179226   4.661   2.195  10.516  1.6107  0.8891 -0.6276
19245TIP3    H279227   4.597   2.123  10.399 -0.4211 -0.4722  1.2359
19246TIP3   OH279228   3.423   0.215  12.884  0.1586  0.2504  0.0135
19246TIP3    H179229   3.427   0.295  12.831  1.4113  0.7027  0.7612
19246TIP3    H279230   3.471   0.150  12.833  2.9993  1.1779  1.3572
19247TIP3   OH279231   0.856   5.163  14.079  0.3942 -0.0147 -0.5114
19247TIP3    H179232   0.838   5.098  14.147 -0.2040  0.7583  0.0968
19247TIP3    H279233   0.832   5.246  14.119  0.0218  0.4624 -1.6831
19248TIP3   OH279234   0.100   5.313  15.841 -0.5218 -0.1449 -0.2655
19248TIP3    H179235   0.015   5.278  15.866 -0.5623 -0.8543 -1.3258
19248TIP3    H279236   0.145   5.240  15.799  0.6369  0.2075  0.3055
19249TIP3   OH279237   1.123   3.187   0.799  0.5581  0.3931  0.8028
19249TIP3    H179238   1.115   3.179   0.703 -2.7287  0.9995  0.8922
19249TIP3    H279239   1.177   3.264   0.812  1.5951 -0.0518 -0.5182
19250TIP3   OH279240   6.267   2.917  15.294  0.3831  0.0192  0.0385
19250TIP3    H179241   6.239   2.880  15.210  0.3022  2.8050 -1.2753
19250TIP3    H279242   6.354   2.880  15.308  0.4036 -0.4924 -1.2750
19251TIP3   OH279243   5.856   1.060  13.464 -0.3200 -0.5399  0.3244
19251TIP3    H179244   5.851   1.109  13.382  1.4758 -2.2736 -0.9122
19251TIP3    H279245   5.765   1.056  13.495 -1.1813 -0.3872 -1.9466
19252TIP3   OH279246   6.680   5.638   4.931  0.1118 -0.5567  0.7675
19252TIP3    H179247   6.771   5.668   4.937 -0.3012  0.9917 -0.0497
19252TIP3    H279248   6.643   5.654   5.018  0.2527  0.1648  0.7017
19253TIP3   OH279249   0.498   0.558   0.076 -0.1011  1.1248 -0.5318
19253TIP3    H179250   0.515   0.492   0.009 -1.1608 -0.0071  0.2643
19253TIP3    H279251   0.508   0.641   0.031 -2.6247  0.4341 -2.6647
19254TIP3   OH279252   5.645   2.498   1.454  0.0288  0.0239  0.4287
19254TIP3    H179253   5.630   2.592   1.453 -0.3561 -0.0365 -1.1262
19254TIP3    H279254   5.740   2.488   1.450  0.0496  0.3396  0.1248
19255TIP3   OH279255   2.245   1.626   2.496  0.0309 -0.5353 -0.0732
19255TIP3    H179256   2.279   1.572   2.567 -2.6056 -0.1305  1.6619
19255TIP3    H279257   2.240   1.568   2.421  2.0384 -1.2337  0.2767
19256TIP3   OH279258   6.660   3.814   6.237 -0.1238 -0.4368  0.0226
19256TIP3    H179259   6.668   3.719   6.229 -2.8752 -0.7403 -0.0122
19256TIP3    H279260   6.648   3.829   6.331 -1.0382 -0.2840 -0.1125
19257TIP3   OH279261   5.203   2.450  13.286  0.1416 -0.5690 -0.0325
19257TIP3    H179262   5.255   2.468  13.208  0.1369 -0.7666 -0.0818
19257TIP3    H279263   5.224   2.522  13.346  0.4222 -0.6140 -0.0751
19258TIP3   OH279264   6.705   4.696   3.143 -0.6357  0.3950  0.2377
19258TIP3    H179265   6.634   4.670   3.083  0.0413 -0.9138 -0.0268
19258TIP3    H279266   6.778   4.639   3.119  0.7925  2.2645 -0.0259
19259TIP3   OH279267   5.983   1.184   1.262 -0.1342  0.5360  0.3833
19259TIP3    H179268   5.991   1.155   1.171 -0.9381  0.8544  0.2015
19259TIP3    H279269   6.010   1.276   1.260 -0.5725  0.6637  0.3882
19260TIP3   OH279270   0.599   4.897  11.829  0.3464 -0.6723 -0.0280
19260TIP3    H179271   0.528   4.890  11.893 -0.4622  0.1953 -0.7914
19260TIP3    H279272   0.674   4.929  11.879  0.3671 -2.0739  0.8934
19261TIP3   OH279273   4.322   2.943  12.412  0.4106 -0.3992  0.2283
19261TIP3    H179274   4.396   2.999  12.437 -0.4637  0.6273  0.5948
19261TIP3    H279275   4.256   3.004  12.380 -0.2062 -1.3212 -0.3024
19262TIP3   OH279276   4.465   0.469   1.322 -0.1561  0.0903 -0.2431
19262TIP3    H179277   4.427   0.442   1.238  0.9653 -0.0327 -0.7228
19262TIP3    H279278   4.470   0.565   1.315  1.2841 -0.0120 -0.9306
19263TIP3   OH279279   5.877   1.406   4.028 -0.5279  0.2719  0.2391
19263TIP3    H179280   5.879   1.438   4.118  1.9109 -0.2593  0.4286
19263TIP3    H279281   5.826   1.471   3.981 -0.3450  1.4957  1.6698
19264TIP3   OH279282   3.716   0.710   0.872  0.2017  0.2077  0.8369
19264TIP3    H179283   3.671   0.640   0.825  3.0719 -1.0376 -0.2545
19264TIP3    H279284   3.738   0.775   0.804  1.7001 -0.1472  0.9484
19265TIP3   OH279285   1.963   2.703  14.244  0.1807 -0.1452  0.1226
19265TIP3    H179286   1.917   2.787  14.244  0.0637 -0.2072 -0.3908
19265TIP3    H279287   1.951   2.670  14.333  1.3208  0.9656  0.7239
19266TIP3   OH279288   2.701   4.747   4.946 -0.2108 -0.1150  0.1834
19266TIP3    H179289   2.723   4.680   5.010 -1.6384 -0.3733  0.4526
19266TIP3    H279290   2.672   4.698   4.869 -0.0714  0.1965 -0.0719
19267TIP3   OH279291   4.485   6.438   3.213  0.3080  0.1760  0.1284
19267TIP3    H179292   4.560   6.457   3.158  0.2525  0.0483  0.0070
19267TIP3    H279293   4.510   6.358   3.260 -0.5103 -1.0280 -1.3772
19268TIP3   OH279294   2.662   3.779   2.731 -0.0559 -0.2129 -0.0518
19268TIP3    H179295   2.660   3.708   2.667  4.7953  0.5310 -1.4101
19268TIP3    H279296   2.675   3.858   2.679  1.8755  0.6919  1.6639
19269TIP3   OH279297   0.189   2.898   3.758  0.5768  0.2641  0.3414
19269TIP3    H179298   0.241   2.978   3.766  0.9597  0.0134  0.3879
19269TIP3    H279299   0.112   2.914   3.812  0.1526  1.0027 -0.4685
19270TIP3   OH279300   0.755   1.037  14.646 -0.6682  0.0449 -0.4057
19270TIP3    H179301   0.851   1.042  14.644 -0.6688  0.2087 -2.5268
19270TIP3    H279302   0.734   1.018  14.738  1.4150 -0.6175 -0.0003
19271TIP3   OH279303   3.152   4.993  14.782 -0.9027  0.2426  0.8404
19271TIP3    H179304   3.150   4.991  14.687 -0.2135  4.2594  0.5558
19271TIP3    H279305   3.241   5.022  14.804 -1.3141  0.2600  2.6476
19272TIP3   OH279306   6.253   2.047  16.604  0.1108 -0.5965 -0.3149
19272TIP3    H179307   6.236   2.003  16.687 -3.0205  0.8572 -0.0583
19272TIP3    H279308   6.238   1.980  16.537  1.7839 -1.5333  0.1903
19273TIP3   OH279309   3.913   2.130   2.420  0.2401 -0.1125  0.0580
19273TIP3    H179310   3.880   2.214   2.451  0.4055 -0.0574  0.0885
19273TIP3    H279311   3.970   2.100   2.491 -0.0481 -0.3874  0.1722
19274TIP3   OH279312   5.795   6.051   2.536 -0.0248  0.3571 -0.6990
19274TIP3    H179313   5.727   5.986   2.555 -0.7468  1.1545 -0.4959
19274TIP3    H279314   5.865   6.000   2.496 -1.0679 -0.3740 -1.6743
19275TIP3   OH279315   2.657   5.391  10.890  0.0886  0.5778  0.1669
19275TIP3    H179316   2.625   5.470  10.847  0.5005  1.1873  0.9477
19275TIP3    H279317   2.609   5.320  10.849  0.2287  1.1689 -1.0518
19276TIP3   OH279318   6.774   3.494   3.373  0.0238  0.9352 -0.3228
19276TIP3    H179319   6.855   3.483   3.422 -0.0207  0.7993 -0.2792
19276TIP3    H279320   6.778   3.427   3.304  0.0094  1.0144 -0.4008
19277TIP3   OH279321   5.729   6.756  13.196  0.1623 -0.1455  0.7890
19277TIP3    H179322   5.681   6.676  13.175  0.2290  0.1025 -0.3880
19277TIP3    H279323   5.720   6.766  13.291  0.3882 -1.6915  0.9940
19278TIP3   OH279324   4.669   1.511  16.797  0.4521 -0.4241 -0.1687
19278TIP3    H179325   4.661   1.565  16.876 -1.0397 -0.6497 -0.1354
19278TIP3    H279326   4.598   1.542  16.740  0.3563 -1.5164 -0.6541
19279TIP3   OH279327   5.269   5.799   2.504 -0.0721  0.5467  0.0054
19279TIP3    H179328   5.216   5.853   2.446  0.9818  2.4098  0.6774
19279TIP3    H279329   5.206   5.757   2.563 -0.9845  0.2134 -1.1790
19280TIP3   OH279330   3.312   1.373   1.334  0.0268  0.3218 -0.6047
19280TIP3    H179331   3.233   1.424   1.355 -0.2362  0.6251 -2.2058
19280TIP3    H279332   3.309   1.299   1.395 -2.0151 -0.1759 -1.2380
19281TIP3   OH279333   1.321   6.467   6.379  0.3123 -0.3605 -0.1121
19281TIP3    H179334   1.329   6.532   6.448  0.1290 -1.9779  1.4987
19281TIP3    H279335   1.271   6.395   6.419 -0.1399 -1.1950 -2.0464
19282TIP3   OH279336   4.877   3.459   4.687 -0.1086  0.3082 -0.2563
19282TIP3    H179337   4.851   3.368   4.700 -1.1045  0.6693  0.3785
19282TIP3    H279338   4.872   3.472   4.592  0.9556 -0.5458 -0.4454
19283TIP3   OH279339   4.702   0.989   0.237  0.1965 -0.3077  1.1437
19283TIP3    H179340   4.742   0.933   0.304  0.4681 -0.8512  0.5387
19283TIP3    H279341   4.691   1.074   0.280  1.0213 -0.4480  1.6537
19284TIP3   OH279342   3.164   3.166   1.198  0.2992 -0.4093 -0.0425
19284TIP3    H179343   3.105   3.240   1.213 -1.1852 -1.4638 -0.3756
19284TIP3    H279344   3.178   3.166   1.103  2.2732  0.8400  0.1962
19285TIP3   OH279345   2.441   3.763  12.449 -0.2879  0.2893  0.1724
19285TIP3    H179346   2.530   3.790  12.427  0.3240 -0.9285  1.0110
19285TIP3    H279347   2.399   3.841  12.484  0.8985  0.5554  1.0358
19286TIP3   OH279348   0.613   4.959  17.152 -0.3949  0.0479 -0.2132
19286TIP3    H179349   0.680   5.027  17.140  1.7247 -2.0038 -0.6024
19286TIP3    H279350   0.647   4.903  17.222 -1.7443 -1.0313 -0.3774
19287TIP3   OH279351   5.028   4.554   1.519  0.0811 -0.0283 -0.0001
19287TIP3    H179352   5.094   4.512   1.463 -1.1801 -1.7734 -0.2473
19287TIP3    H279353   4.945   4.534   1.477 -0.7196  0.9561  1.0637
19288TIP3   OH279354   0.592   1.497   2.067 -0.1825 -0.1494  0.6731
19288TIP3    H179355   0.518   1.451   2.105 -0.3772  1.7102  2.7145
19288TIP3    H279356   0.660   1.430   2.058 -1.5638 -1.5443  0.1944
19289TIP3   OH279357   3.708   6.642  13.745  0.0013 -0.3555  0.1877
19289TIP3    H179358   3.769   6.629  13.817 -1.1753 -0.5888  1.1605
19289TIP3    H279359   3.648   6.569  13.750  0.0673 -0.5383 -1.2321
19290TIP3   OH279360   0.607   5.596  14.764 -0.5921 -0.1499 -0.1063
19290TIP3    H179361   0.640   5.518  14.718  2.5716  1.5703 -1.0383
19290TIP3    H279362   0.600   5.662  14.695  0.1547  1.3276  1.1976
19291TIP3   OH279363   1.039   0.123   2.828 -0.1549  0.0849 -0.0110
19291TIP3    H179364   0.968   0.151   2.770  0.7578  0.7283 -0.8487
19291TIP3    H279365   1.043   0.028   2.816 -0.9622  0.0200  0.1616
19292TIP3   OH279366   6.724   5.128  12.711 -0.3001 -0.2458 -0.9982
19292TIP3    H179367   6.666   5.196  12.677  0.2881 -0.1750 -1.8911
19292TIP3    H279368   6.780   5.105  12.637  0.0234 -1.1560 -0.4852
19293TIP3   OH279369   3.937   1.385  13.607  0.2475 -0.0122  0.3696
19293TIP3    H179370   3.882   1.397  13.684  0.1169  1.1065  0.1151
19293TIP3    H279371   4.023   1.415  13.634  0.2006  0.3862  0.0803
19294TIP3   OH279372   4.083   0.345   5.900 -0.6945 -0.2242 -0.3573
19294TIP3    H179373   4.005   0.301   5.865 -0.2326 -2.7095  1.4025
19294TIP3    H279374   4.156   0.289   5.873  0.0057 -0.2457  1.4383
19295TIP3   OH279375   3.147   0.511   0.106  0.2008  0.2442 -0.1712
19295TIP3    H179376   3.084   0.442   0.125 -2.1220  2.1714 -0.3937
19295TIP3    H279377   3.227   0.465   0.079 -1.8881 -2.3129 -2.4652
19296TIP3   OH279378   6.320   4.998   1.418  0.2408 -0.0614  0.3461
19296TIP3    H179379   6.251   4.941   1.385 -0.3937  2.1034 -2.4495
19296TIP3    H279380   6.401   4.965   1.379  0.5264 -1.2658  1.8522
19297TIP3   OH279381   3.891   3.592   2.535  0.1083 -0.1209  0.3530
19297TIP3    H179382   3.867   3.533   2.464 -0.3718 -0.7022  0.9893
19297TIP3    H279383   3.881   3.680   2.498  0.1675 -0.4231 -0.3870
19298TIP3   OH279384   5.192   3.800  11.077  0.3990 -0.3437  0.8067
19298TIP3    H179385   5.186   3.893  11.058 -2.3381 -0.2874  1.4971
19298TIP3    H279386   5.253   3.765  11.012  0.2774  1.6702 -0.4575
19299TIP3   OH279387   1.813   2.375   1.745  0.6079 -0.5070  0.1410
19299TIP3    H179388   1.790   2.326   1.824 -0.5988 -0.0583  0.0799
19299TIP3    H279389   1.852   2.310   1.687 -1.3161 -1.5238 -0.0933
19300TIP3   OH279390   3.520   6.589   4.596 -0.0721 -0.3565 -0.0709
19300TIP3    H179391   3.431   6.592   4.563  0.6343  1.9329 -2.0717
19300TIP3    H279392   3.575   6.612   4.521  2.0308  0.5512  1.6135
19301TIP3   OH279393   3.448   1.229   5.256 -0.0090  0.1188  0.1395
19301TIP3    H179394   3.517   1.228   5.189 -1.3722  1.5792 -1.3599
19301TIP3    H279395   3.491   1.267   5.333  1.0466  0.3983 -0.5528
19302TIP3   OH279396   2.064   0.087   2.864 -0.6798 -0.3096  0.4423
19302TIP3    H179397   2.003   0.031   2.911 -1.1382  0.7500  1.1350
19302TIP3    H279398   2.009   0.149   2.816 -0.2484 -1.6638 -1.9597
19303TIP3   OH279399   5.373   3.795  16.092  0.0420 -0.1021 -0.1131
19303TIP3    H179400   5.339   3.843  16.016 -0.3001  0.5493  0.4380
19303TIP3    H279401   5.387   3.706  16.060  0.2711  0.2507 -1.0460
19304TIP3   OH279402   1.158   4.945   3.774 -0.0971  0.1340 -0.2316
19304TIP3    H179403   1.091   4.925   3.840 -1.1293  0.6571 -1.0749
19304TIP3    H279404   1.223   4.876   3.783  0.2948  0.7397  1.9824
19305TIP3   OH279405   4.605   3.959  16.788  0.0095  0.2905 -0.1195
19305TIP3    H179406   4.624   3.993  16.875  0.2162 -0.3584  0.0943
19305TIP3    H279407   4.529   4.009  16.759 -0.2234  0.3228  0.5379
19306TIP3   OH279408   1.253   0.601  12.374  0.0352  0.2269  0.4719
19306TIP3    H179409   1.207   0.517  12.370 -1.6263  1.1313 -2.3576
19306TIP3    H279410   1.192   0.659  12.419 -0.0802  0.5830 -0.1355
19307TIP3   OH279411   0.431   1.595  12.195  0.7188  0.1941 -0.4779
19307TIP3    H179412   0.470   1.550  12.269  0.3323  0.0440 -0.3688
19307TIP3    H279413   0.350   1.633  12.228  0.2483 -0.3690 -0.9679
19308TIP3   OH279414   3.452   2.917  14.408  0.0066 -0.0399  0.7250
19308TIP3    H179415   3.491   2.966  14.336  2.1887 -2.3045  0.2391
19308TIP3    H279416   3.471   2.969  14.486 -0.8961  1.5990 -0.0964
19309TIP3   OH279417   0.221   1.713  17.112  0.0515  0.2903  0.6344
19309TIP3    H179418   0.182   1.799  17.096 -1.5381 -0.5936 -0.4921
19309TIP3    H279419   0.248   1.717  17.204 -1.4534  1.4650  1.0788
19310TIP3   OH279420   2.720   0.105  16.255  0.4653 -0.1331 -0.0751
19310TIP3    H179421   2.649   0.096  16.192 -1.9270  3.1628  1.8389
19310TIP3    H279422   2.762   0.188  16.234  0.5559  0.3286  1.7285
19311TIP3   OH279423   4.445   1.043  17.134  0.5940  0.4065 -0.5901
19311TIP3    H179424   4.438   1.012  17.044  1.0381  0.0567 -0.5086
19311TIP3    H279425   4.414   1.133  17.132 -0.5205  0.0345 -0.8791
19312TIP3   OH279426   3.494   0.893  16.021  0.2788 -0.2880  0.0176
19312TIP3    H179427   3.527   0.830  15.957  2.8300  1.2527 -0.3295
19312TIP3    H279428   3.560   0.962  16.022 -0.9531  0.9615  2.5111
19313TIP3   OH279429   5.770   1.491   4.910  0.0863  0.0563 -0.0258
19313TIP3    H179430   5.746   1.512   5.001 -0.6126  0.6489 -0.3396
19313TIP3    H279431   5.858   1.528   4.900 -0.6417  1.8617 -0.1951
19314TIP3   OH279432   2.200   6.271   6.208 -0.1885  0.8139  0.3356
19314TIP3    H179433   2.264   6.297   6.142 -1.8279  1.5054 -1.0651
19314TIP3    H279434   2.193   6.347   6.265 -0.1851  0.9589  0.1446
19315TIP3   OH279435   1.857   1.413   4.989  0.2482  0.3009  0.3192
19315TIP3    H179436   1.925   1.381   5.048 -0.2971 -3.2851 -0.8061
19315TIP3    H279437   1.800   1.338   4.974 -2.5067  2.4462 -0.8672
19316TIP3   OH279438   1.270   0.545  12.074  0.0408 -0.2240 -0.2792
19316TIP3    H179439   1.357   0.559  12.037  0.3294 -0.0676  0.4467
19316TIP3    H279440   1.280   0.564  12.167 -0.6598 -0.6699 -0.1035
19317TIP3   OH279441   4.888   6.206   5.116  0.1874  0.2518 -0.4464
19317TIP3    H179442   4.908   6.266   5.044  1.7420 -0.7296 -0.8899
19317TIP3    H279443   4.904   6.258   5.195 -1.3261  1.2715 -0.7661
19318TIP3   OH279444   0.703   4.730   1.252 -0.3362 -0.2922  0.2520
19318TIP3    H179445   0.723   4.806   1.197 -1.1307  1.3601  2.0952
19318TIP3    H279446   0.719   4.761   1.341 -2.3628 -1.7200  1.1847
19319TIP3   OH279447   2.592   5.573   0.014 -0.4113 -0.1898  0.7083
19319TIP3    H179448   2.552   5.605   0.095 -0.9415  1.8833 -0.2938
19319TIP3    H279449   2.531   5.506  -0.018 -1.1628  0.2985  1.0850
19320TIP3   OH279450   4.414   4.257  15.688  1.1066  0.4872 -0.1462
19320TIP3    H179451   4.403   4.277  15.781 -1.9846  0.7670 -0.4584
19320TIP3    H279452   4.470   4.179  15.687  1.2528  0.5042  1.9461
19321TIP3   OH279453   4.639   4.661  12.394 -0.2329  0.3420  0.3708
19321TIP3    H179454   4.618   4.722  12.324 -0.4156  0.0464  0.1623
19321TIP3    H279455   4.569   4.671  12.458 -1.0660 -0.6746 -0.3429
19322TIP3   OH279456   1.057   5.412  13.854 -0.4240  0.2062  0.0273
19322TIP3    H179457   1.142   5.456  13.848  0.9082 -2.0381  0.9313
19322TIP3    H279458   1.032   5.420  13.946  0.0212 -1.1675  0.2868
19323TIP3   OH279459   3.734   4.658   5.435 -0.1537  0.1168  0.3465
19323TIP3    H179460   3.764   4.569   5.453 -0.7792  0.1835  1.9196
19323TIP3    H279461   3.738   4.666   5.340  2.1479 -0.7890  0.2917
19324TIP3   OH279462   0.830   6.118   4.610 -0.0689  0.2685  0.4075
19324TIP3    H179463   0.922   6.095   4.626 -0.2583  0.4398  1.8395
19324TIP3    H279464   0.798   6.047   4.554  1.3926  1.1690 -1.7000
19325TIP3   OH279465   6.224   4.504   0.855  0.0475  0.7521  0.2446
19325TIP3    H179466   6.319   4.508   0.852  0.0824  0.7384  1.2391
19325TIP3    H279467   6.204   4.411   0.869 -0.2460  0.0769 -3.5095
19326TIP3   OH279468   5.968   0.671   5.093 -0.8127 -0.8211 -0.1254
19326TIP3    H179469   5.886   0.717   5.111 -0.5431 -0.3130 -0.1885
19326TIP3    H279470   5.966   0.596   5.152 -1.9450 -1.5749 -1.0489
19327TIP3   OH279471   0.982   1.804  15.189 -0.2466  0.3308  0.0402
19327TIP3    H179472   1.003   1.771  15.102  0.2276 -2.3021  1.0635
19327TIP3    H279473   1.060   1.783  15.241 -0.7522  1.3414  1.2551
19328TIP3   OH279474   4.817   2.431  16.525  0.1105  0.2461 -0.5214
19328TIP3    H179475   4.754   2.464  16.461  0.2069  0.6307 -0.4240
19328TIP3    H279476   4.820   2.499  16.592 -1.2351 -0.9031  0.7444
19329TIP3   OH279477   6.351   0.408   0.219 -0.1546  0.0269 -0.7669
19329TIP3    H179478   6.338   0.467   0.145 -0.4814  0.2361 -0.5444
19329TIP3    H279479   6.267   0.365   0.231 -1.2181  2.4404  1.5982
19330TIP3   OH279480   5.252   6.547  14.136 -0.2766  0.4769  0.1355
19330TIP3    H179481   5.190   6.475  14.126 -1.0147  1.0442  0.5271
19330TIP3    H279482   5.328   6.507  14.179 -0.6668 -0.0736  0.3277
19331TIP3   OH279483   2.335   0.548   2.250  0.1045  0.3534  0.3434
19331TIP3    H179484   2.338   0.472   2.192 -0.0373  1.7683 -1.5930
19331TIP3    H279485   2.267   0.604   2.213  0.9345  1.9190  1.1137
19332TIP3   OH279486   1.239   5.315  15.323  0.1799  0.4021 -0.1038
19332TIP3    H179487   1.310   5.288  15.264 -0.7096  0.1733 -1.0957
19332TIP3    H279488   1.227   5.240  15.381 -0.6634 -0.4401 -1.3137
19333TIP3   OH279489   2.338   4.670   5.501  0.2964 -0.2192  0.0238
19333TIP3    H179490   2.357   4.718   5.581  0.7709  0.4941 -0.4977
19333TIP3    H279491   2.384   4.718   5.433 -0.4256 -0.5803 -0.7417
19334TIP3   OH279492   0.397   5.824  16.249 -0.2843 -0.4244  0.2815
19334TIP3    H179493   0.302   5.835  16.241 -0.2599  0.7959  1.5188
19334TIP3    H279494   0.433   5.908  16.222  0.4533 -0.8286 -0.0103
19335TIP3   OH279495   4.226   2.991   5.250 -0.4274 -0.0230  0.0521
19335TIP3    H179496   4.199   2.945   5.329 -0.5592  1.8177  1.1363
19335TIP3    H279497   4.144   3.008   5.203 -0.2373 -2.4185 -1.3211
19336TIP3   OH279498   2.367   1.933   1.467 -0.7602  0.5159 -0.0500
19336TIP3    H179499   2.342   1.884   1.389 -1.9165 -0.6152  0.9716
19336TIP3    H279500   2.365   2.025   1.440  3.1191  0.1100 -2.5097
19337TIP3   OH279501   3.598   3.240  14.632  0.0472 -0.1102 -0.0937
19337TIP3    H179502   3.565   3.293  14.560 -0.5756 -1.4799 -0.8707
19337TIP3    H279503   3.597   3.298  14.708 -1.3516  0.7558 -0.7364
19338TIP3   OH279504   0.175   1.422  12.364  0.5579 -0.1587  0.0689
19338TIP3    H179505   0.106   1.362  12.333  1.1736 -0.1319 -1.4592
19338TIP3    H279506   0.135   1.508  12.358 -0.2218 -0.3445  1.9655
19339TIP3   OH279507   0.385   1.964   2.103 -0.0278  0.7771 -0.0330
19339TIP3    H179508   0.373   2.019   2.181  1.7302  1.6757 -0.3454
19339TIP3    H279509   0.406   1.878   2.138 -0.9623  0.7465  0.4739
19340TIP3   OH279510   1.383   0.907  13.823  0.7075 -0.5217 -0.1721
19340TIP3    H179511   1.314   0.891  13.759  2.7678 -1.8340 -2.2304
19340TIP3    H279512   1.416   0.994  13.801  0.5283 -0.4101 -0.0009
19341TIP3   OH279513   0.841   2.269  15.182  0.3151 -0.2910 -0.0437
19341TIP3    H179514   0.797   2.221  15.252 -0.0576 -0.3040 -0.2861
19341TIP3    H279515   0.878   2.201  15.126  0.3188 -0.2839 -0.0498
19342TIP3   OH279516   3.234   4.752  14.899  0.1221 -0.8345 -0.0451
19342TIP3    H179517   3.167   4.734  14.965  0.3312  0.0782  0.4398
19342TIP3    H279518   3.214   4.840  14.868  0.9983 -0.6044  0.0047
19343TIP3   OH279519   5.608   6.827  15.917  0.1976 -1.1090  0.3361
19343TIP3    H179520   5.675   6.885  15.880 -0.2647 -0.3427  0.6771
19343TIP3    H279521   5.621   6.832  16.012  0.8725 -2.4558  0.3379
19344TIP3   OH279522   0.994   3.252   4.247 -0.1481  0.0777 -0.0909
19344TIP3    H179523   0.958   3.242   4.335  1.5699  0.6069  0.7261
19344TIP3    H279524   0.977   3.344   4.224  0.4782  0.2766  0.2173
19345TIP3   OH279525   5.960   0.028   5.947 -0.0998  0.1245  0.2386
19345TIP3    H179526   5.889  -0.032   5.970 -0.9516  0.8956 -0.3199
19345TIP3    H279527   6.024   0.017   6.017 -0.4365 -1.1045  0.3776
19346TIP3   OH279528   4.189   6.076   0.203  0.0933  0.3651 -0.7184
19346TIP3    H179529   4.131   6.081   0.279 -0.3945 -0.9327 -0.9834
19346TIP3    H279530   4.261   6.136   0.223  0.1968 -0.2923  0.9585
19347TIP3   OH279531   0.116   0.203   5.798  0.3206 -0.1445  0.1396
19347TIP3    H179532   0.128   0.298   5.796 -0.0633 -0.1108 -0.7129
19347TIP3    H279533   0.083   0.180   5.711 -0.0337 -0.9990  0.4811
19348TIP3   OH279534   4.699   6.178   0.928 -0.3300  0.5669  0.0071
19348TIP3    H179535   4.744   6.108   0.976  0.4242  0.9186 -0.1595
19348TIP3    H279536   4.615   6.188   0.973 -0.8180 -1.0242 -0.5055
19349TIP3   OH279537   3.963   3.875   3.161  0.3317  0.3874 -0.2293
19349TIP3    H179538   3.881   3.922   3.146  1.2827  2.1316 -0.2407
19349TIP3    H279539   3.984   3.891   3.253  0.7780  0.1735 -0.2884
19350TIP3   OH279540   2.129   5.297   4.259 -0.1492 -0.2329  0.3988
19350TIP3    H179541   2.193   5.327   4.194 -0.6562 -0.4705 -0.2168
19350TIP3    H279542   2.124   5.369   4.322  0.8322 -0.2733  0.5427
19351TIP3   OH279543   2.546   3.886   1.538 -0.5345 -0.2329 -0.2956
19351TIP3    H179544   2.571   3.904   1.628 -1.4288 -2.3313  0.4386
19351TIP3    H279545   2.452   3.864   1.543 -0.8765  0.6906 -1.9065
19352TIP3   OH279546   3.325   2.974  16.165 -0.4116  0.1792 -0.1757
19352TIP3    H179547   3.286   2.965  16.252 -1.4982 -0.7882 -0.7268
19352TIP3    H279548   3.303   2.891  16.121  3.1307 -0.8902 -0.2071
19353TIP3   OH279549   5.308   2.839  13.881 -0.1413  0.8552 -0.4831
19353TIP3    H179550   5.314   2.851  13.786  1.2640 -0.3070 -0.5668
19353TIP3    H279551   5.395   2.809  13.907 -0.2228  2.0780  1.3348
19354TIP3   OH279552   4.331   3.025  11.494 -0.2058 -0.9726  0.4476
19354TIP3    H179553   4.315   3.118  11.508 -0.7785 -1.1025  0.6862
19354TIP3    H279554   4.426   3.016  11.495 -0.0703 -0.1348 -1.2116
19355TIP3   OH279555   1.958   1.244  12.662 -0.3803  0.5745  0.0266
19355TIP3    H179556   2.054   1.243  12.658 -0.4077 -0.6614 -2.2305
19355TIP3    H279557   1.936   1.187  12.735  0.6051  0.8713  0.5720
19356TIP3   OH279558   4.278   5.845  12.333  0.1875  0.4526  0.6225
19356TIP3    H179559   4.306   5.931  12.301  0.4017  0.5733  1.1247
19356TIP3    H279560   4.332   5.783  12.284 -1.4134  0.4787 -1.2750
19357TIP3   OH279561   1.639   4.642   4.187 -0.4333  0.4831 -0.3932
19357TIP3    H179562   1.710   4.664   4.247  1.8193 -0.3824 -2.5549
19357TIP3    H279563   1.621   4.723   4.140  0.5535  0.2659 -1.1827
19358TIP3   OH279564   1.491   4.217   4.768 -0.3923  0.0778  0.5553
19358TIP3    H179565   1.495   4.312   4.764 -0.9267  0.0867  0.2460
19358TIP3    H279566   1.551   4.194   4.839  0.8940  0.5547 -0.3340
19359TIP3   OH279567   0.540   3.917  17.175  0.0507 -0.1908  0.3566
19359TIP3    H179568   0.615   3.866  17.205  1.9911  1.0076 -2.1213
19359TIP3    H279569   0.481   3.920  17.251  1.9998 -2.0283  2.0736
19360TIP3   OH279570   3.313   1.467  14.102  0.4220 -0.1695  0.2541
19360TIP3    H179571   3.242   1.439  14.043  1.0053 -0.3670 -0.3700
19360TIP3    H279572   3.313   1.562  14.096  0.4225 -0.1837 -0.0077
19361TIP3   OH279573   6.104   4.268  14.076 -0.1627  0.7629 -0.4494
19361TIP3    H179574   6.079   4.263  14.168  1.7863 -0.7698  0.0646
19361TIP3    H279575   6.200   4.265  14.076 -0.0931  1.1735 -2.5101
19362TIP3   OH279576   0.771   4.828   4.189  0.0256  0.1761  0.1224
19362TIP3    H179577   0.717   4.749   4.190 -0.0061  0.1771 -0.8196
19362TIP3    H279578   0.819   4.825   4.272  1.4749 -1.8603 -0.6981
19363TIP3   OH279579   5.483   2.556  15.479 -0.8690  0.9315 -0.4199
19363TIP3    H179580   5.476   2.518  15.567 -0.2428  1.8384  0.0283
19363TIP3    H279581   5.393   2.580  15.457 -1.2305 -0.4128 -0.5606
19364TIP3   OH279582   1.464   3.230  13.224 -0.7002  0.5013  0.1168
19364TIP3    H179583   1.398   3.179  13.178 -0.4355 -0.1510  0.4363
19364TIP3    H279584   1.421   3.255  13.306 -0.8792  0.9179 -0.1038
19365TIP3   OH279585   0.668   2.210   1.310 -0.1455 -0.3269  0.2095
19365TIP3    H179586   0.599   2.276   1.301  0.1255  0.3535  2.3420
19365TIP3    H279587   0.622   2.126   1.308 -1.2000  0.1316  2.2302
19366TIP3   OH279588   1.657   2.511  13.201  0.2857 -0.1059 -0.0085
19366TIP3    H179589   1.581   2.456  13.219  1.0814 -0.8010  1.3618
19366TIP3    H279590   1.697   2.473  13.123 -1.0676  0.6322 -1.1165
19367TIP3   OH279591   4.381   1.477   0.996  0.2344 -0.0056 -0.3237
19367TIP3    H179592   4.402   1.504   0.906  1.1475  0.6031  0.0518
19367TIP3    H279593   4.467   1.462   1.036 -0.1992 -1.1562  0.1860
19368TIP3   OH279594   0.501   0.431  13.786 -0.6700 -0.1938  0.0270
19368TIP3    H179595   0.556   0.380  13.846 -0.1309  1.6026  1.1058
19368TIP3    H279596   0.428   0.372  13.765  0.4191 -1.7600  0.4500
19369TIP3   OH279597   0.235   0.005   4.885 -0.1099 -0.4505 -0.0139
19369TIP3    H179598   0.205  -0.082   4.909  1.0293 -0.6670  0.6906
19369TIP3    H279599   0.238   0.053   4.968 -0.5948  0.2276 -0.3745
19370TIP3   OH279600   0.885   0.486   5.110 -0.4917  0.7490 -0.3747
19370TIP3    H179601   0.921   0.460   5.195  0.4639  0.9935 -0.6882
19370TIP3    H279602   0.873   0.403   5.063  1.1683  0.7232 -0.8321
19371TIP3   OH279603   4.943   2.580   4.131  0.2915  0.1716 -0.4335
19371TIP3    H179604   4.997   2.653   4.101 -0.3654  0.4829 -0.8789
19371TIP3    H279605   5.006   2.511   4.153  0.9440  1.0218  0.4384
19372TIP3   OH279606   5.747   3.512   3.037 -0.4847 -0.1761  0.2885
19372TIP3    H179607   5.753   3.509   2.942 -2.4631  2.7345 -0.0715
19372TIP3    H279608   5.830   3.552   3.065  0.1005 -1.0352 -0.1633
19373TIP3   OH279609   3.723   2.868  12.433  0.0246  0.3307  0.2734
19373TIP3    H179610   3.662   2.932  12.470  1.8471  0.5174  3.3168
19373TIP3    H279611   3.803   2.918  12.419  1.0183 -0.8955  1.2905
19374TIP3   OH279612   1.633   2.239   2.378 -0.2657  0.0555 -0.2085
19374TIP3    H179613   1.670   2.317   2.420  1.8251  0.1783 -2.1081
19374TIP3    H279614   1.622   2.264   2.286  0.1511 -1.7827 -0.8047
19375TIP3   OH279615   1.929   3.543  13.718 -0.0601 -0.2135 -0.2626
19375TIP3    H179616   1.838   3.546  13.748 -0.1445  0.3191 -0.5561
19375TIP3    H279617   1.938   3.619  13.661  1.3116  1.2793  1.8200
19376TIP3   OH279618   0.199   1.081  14.513  0.2919 -0.0161 -0.2659
19376TIP3    H179619   0.221   1.036  14.594 -0.2826  1.3300  0.6833
19376TIP3    H279620   0.103   1.076  14.508  0.2531  0.6950 -0.3670
19377TIP3   OH279621   5.961   6.300   5.054  0.1471 -0.0283 -0.3531
19377TIP3    H179622   6.040   6.352   5.072  0.5587 -0.0997 -1.8537
19377TIP3    H279623   5.993   6.223   5.007 -0.4723 -1.6405  1.7118
19378TIP3   OH279624   5.215   5.952  16.036  0.0488  0.3547  0.1643
19378TIP3    H179625   5.188   5.924  16.123  1.6390 -1.2743  0.1673
19378TIP3    H279626   5.265   5.879  16.000  1.8396  2.0458 -1.0186
19379TIP3   OH279627   2.824   0.564   1.609 -0.0249  0.7249 -0.0954
19379TIP3    H179628   2.834   0.484   1.662 -0.3233  0.5242 -0.3441
19379TIP3    H279629   2.768   0.620   1.662  0.2180  0.7901  0.0986
19380TIP3   OH279630   3.024   6.165  16.083  0.2273 -0.4600  0.2197
19380TIP3    H179631   3.100   6.201  16.037  0.2634 -0.4296  0.3047
19380TIP3    H279632   2.968   6.131  16.013 -0.9211  1.8281 -0.0507
19381TIP3   OH279633   5.388   1.654  11.086  0.0152  0.1448 -0.3328
19381TIP3    H179634   5.475   1.631  11.119  0.0304  0.3470 -0.2319
19381TIP3    H279635   5.374   1.594  11.013 -0.5129 -1.1023  0.7562
19382TIP3   OH279636   4.240   3.159  16.594 -0.0319  0.2701  0.2868
19382TIP3    H179637   4.284   3.079  16.566 -1.7150 -1.1458  1.4824
19382TIP3    H279638   4.173   3.174  16.527  0.1002  0.5589  0.2143
19383TIP3   OH279639   4.063   4.315   1.581  0.1526  0.2523  0.0036
19383TIP3    H179640   4.076   4.288   1.490  0.5218  0.2589  0.0490
19383TIP3    H279641   4.144   4.287   1.625  0.4871  1.2825  0.0815
19384TIP3   OH279642   6.167   3.405  17.146 -0.0061  0.1984  0.4790
19384TIP3    H179643   6.090   3.359  17.178 -0.6908  1.7980  1.2578
19384TIP3    H279644   6.136   3.451  17.068  0.2647  0.5169  0.5571
19385TIP3   OH279645   4.137   4.148  11.656 -0.1923  0.0668  0.1091
19385TIP3    H179646   4.228   4.124  11.671  0.1415  0.4889 -1.1149
19385TIP3    H279647   4.098   4.151  11.743  0.5597 -1.6454  0.5469
19386TIP3   OH279648   0.241   0.214   5.075  0.1731 -0.2111  0.2824
19386TIP3    H179649   0.188   0.214   5.154 -0.6608 -0.1207 -0.2698
19386TIP3    H279650   0.315   0.271   5.095  0.2107 -0.5601  1.1522
19387TIP3   OH279651   1.788   5.751  16.137  0.4095  0.2944 -0.1009
19387TIP3    H179652   1.725   5.690  16.177  0.7003  0.9441  1.4302
19387TIP3    H279653   1.733   5.822  16.103  0.3053  1.4803  2.3353
19388TIP3   OH279654   0.785   5.476   2.391 -0.3620  0.1291  0.0871
19388TIP3    H179655   0.865   5.447   2.435 -0.8699 -1.0597  0.2697
19388TIP3    H279656   0.715   5.426   2.432 -1.5357  2.6670  1.4214
19389TIP3   OH279657   6.234   5.548   0.443 -0.0132 -0.9412 -0.0083
19389TIP3    H179658   6.288   5.550   0.364  0.5683  0.7444  0.3771
19389TIP3    H279659   6.158   5.602   0.423 -0.5264 -1.5786  0.1646
19390TIP3   OH279660   4.340   2.501   3.330  0.1155  0.2471  0.0678
19390TIP3    H179661   4.395   2.443   3.383  2.5748  0.5838 -1.9558
19390TIP3    H279662   4.381   2.587   3.338 -1.1314  0.8898 -0.1827
19391TIP3   OH279663   5.803   3.333   2.503 -0.3079 -0.0932 -0.0306
19391TIP3    H179664   5.732   3.363   2.445 -0.9476 -1.8121 -0.1921
19391TIP3    H279665   5.764   3.261   2.552  1.2620 -0.9015  0.0713
19392TIP3   OH279666   4.378   2.286   3.133 -0.3955  0.5691  0.0800
19392TIP3    H179667   4.382   2.371   3.177 -0.6004  1.9558 -2.3547
19392TIP3    H279668   4.466   2.249   3.144 -0.5188  0.7323  1.7932
19393TIP3   OH279669   6.524   5.609  11.148 -0.1114 -0.1246 -0.2577
19393TIP3    H179670   6.546   5.697  11.117  0.3725 -0.4233 -0.8053
19393TIP3    H279671   6.584   5.593  11.221  1.2480 -0.7649 -1.4625
19394TIP3   OH279672   0.216   1.922  16.792  0.2905 -0.2447  0.4067
19394TIP3    H179673   0.195   1.887  16.705  1.7993 -1.7516  0.6002
19394TIP3    H279674   0.280   1.991  16.775 -0.6752  0.6163  0.2147
19395TIP3   OH279675   3.647   5.092  11.978 -0.2279  0.6505 -0.1477
19395TIP3    H179676   3.713   5.157  11.958  0.9155 -0.3814  0.1526
19395TIP3    H279677   3.622   5.110  12.069 -0.1549  0.8544 -0.1684
19396TIP3   OH279678   4.990   6.591   6.745 -0.0306  0.0898  0.3332
19396TIP3    H179679   4.947   6.674   6.726  1.8203  0.7943 -1.0902
19396TIP3    H279680   5.084   6.612   6.746  0.6060 -2.2121 -1.6128
19397TIP3   OH279681   6.688   5.433  15.620 -0.1981 -0.5170  0.2547
19397TIP3    H179682   6.630   5.502  15.588  1.3210  1.1834  1.0048
19397TIP3    H279683   6.771   5.450  15.576  0.3770 -1.4911  0.9411
19398TIP3   OH279684   3.548   5.191   0.776  0.1670 -0.6136 -0.1959
19398TIP3    H179685   3.630   5.155   0.743 -0.6698 -3.1782  0.3051
19398TIP3    H279686   3.555   5.183   0.871 -0.2515  0.1376 -0.0941
19399TIP3   OH279687   1.084   5.267  14.740  0.8617 -0.3697 -0.4228
19399TIP3    H179688   1.057   5.299  14.826  0.7687  1.4399 -1.0776
19399TIP3    H279689   1.157   5.324  14.715  0.9944 -0.9723 -1.4718
19400TIP3   OH279690   5.389   3.860  16.372 -0.0460  0.1504  0.1398
19400TIP3    H179691   5.366   3.778  16.414  0.6884 -0.2603 -0.2337
19400TIP3    H279692   5.383   3.842  16.278 -2.2300  1.2163  0.0182
19401TIP3   OH279693   0.898   2.777   3.567  0.3380  0.5256 -0.0594
19401TIP3    H179694   0.930   2.853   3.616  1.0797  1.1937 -1.5197
19401TIP3    H279695   0.977   2.728   3.544  0.0114  0.2591 -0.6446
19402TIP3   OH279696   3.588   3.315   3.458 -0.6048 -0.8102 -0.0272
19402TIP3    H179697   3.564   3.266   3.379 -2.6484 -2.9333  1.7686
19402TIP3    H279698   3.552   3.402   3.444 -1.0670 -1.1961 -1.3723
19403TIP3   OH279699   5.913   3.312   2.084 -0.3422  0.4416  0.3105
19403TIP3    H179700   5.957   3.298   2.167  1.3974  0.6013 -0.5336
19403TIP3    H279701   5.947   3.244   2.026 -1.3157  0.4996 -0.3612
19404TIP3   OH279702   2.481   3.653   3.877  0.1292 -0.3269 -0.4497
19404TIP3    H179703   2.513   3.597   3.806 -0.2613 -1.4022  0.1929
19404TIP3    H279704   2.462   3.737   3.834  1.9318 -0.2578 -1.1938
19405TIP3   OH279705   1.745   2.980  13.738 -0.1876  0.4003  0.1182
19405TIP3    H179706   1.786   2.913  13.683  0.5654  0.4193  0.6384
19405TIP3    H279707   1.655   2.950  13.750 -0.3493  0.3679 -1.0689
19406TIP3   OH279708   5.546   3.062   4.246  0.0364  0.0805  1.3134
19406TIP3    H179709   5.564   3.025   4.332 -1.2141  0.3098  1.6948
19406TIP3    H279710   5.619   3.033   4.192 -0.1030 -1.6304  1.9795
19407TIP3   OH279711   6.464   0.253  10.657 -0.9737  0.1222 -0.1735
19407TIP3    H179712   6.379   0.243  10.699 -0.3642  0.3227  1.1761
19407TIP3    H279713   6.516   0.180  10.690 -0.7818 -0.3446 -1.4521
19408TIP3   OH279714   0.544   0.817  13.921  0.1952  0.2889 -0.1297
19408TIP3    H179715   0.560   0.725  13.939  0.1147  0.1260 -0.8356
19408TIP3    H279716   0.451   0.822  13.899 -0.1013  0.7626  1.1801
19409TIP3   OH279717   2.412   1.545  11.072 -0.2873  0.0155  0.2020
19409TIP3    H179718   2.421   1.570  11.164  3.6952  1.0438 -0.2579
19409TIP3    H279719   2.404   1.449  11.074  1.7960 -0.2083  1.6648
19410TIP3   OH279720   5.741   4.924  14.883 -0.0162 -0.8107  0.2029
19410TIP3    H179721   5.805   4.944  14.815  0.2727 -0.3807  0.5939
19410TIP3    H279722   5.659   4.907  14.835  0.1422 -0.3532 -0.2405
19411TIP3   OH279723   4.224   3.780   3.377 -0.0159  0.5691 -0.2290
19411TIP3    H179724   4.250   3.787   3.469  0.2501 -1.1857 -0.1402
19411TIP3    H279725   4.149   3.721   3.377  1.4736 -1.4411 -1.3348
19412TIP3   OH279726   2.744   4.025  11.692 -0.4796  0.3439  0.0937
19412TIP3    H179727   2.809   3.957  11.672 -1.3348 -0.2753 -0.6315
19412TIP3    H279728   2.660   3.985  11.670 -1.0015  1.6246 -0.3096
19413TIP3   OH279729   6.628   6.554  15.255 -0.3274 -0.4950 -0.3390
19413TIP3    H179730   6.714   6.517  15.237 -0.4069 -1.6723  1.4606
19413TIP3    H279731   6.588   6.493  15.318 -0.8163  2.1364  2.1055
19414TIP3   OH279732   1.167   6.603  11.253 -0.4152 -0.1387 -0.8104
19414TIP3    H179733   1.136   6.528  11.201 -1.6183 -0.1962 -0.0352
19414TIP3    H279734   1.204   6.662  11.188  1.1312 -1.6614 -1.3789
19415TIP3   OH279735   1.523   6.818  11.744  0.1199  0.1231 -0.0074
19415TIP3    H179736   1.599   6.873  11.725  1.0236 -1.3704 -0.9069
19415TIP3    H279737   1.558   6.740  11.786 -1.0332 -0.1590  0.4901
19416TIP3   OH279738   1.319   4.597   3.915 -0.4567 -0.3735 -1.0778
19416TIP3    H179739   1.384   4.657   3.880 -0.1265 -1.2194 -1.9557
19416TIP3    H279740   1.248   4.653   3.945  0.3546  0.5194 -0.7732
19417TIP3   OH279741   4.176   0.293  12.729  0.1256 -0.1534 -0.8256
19417TIP3    H179742   4.159   0.289  12.635 -0.3490  1.9295 -0.8722
19417TIP3    H279743   4.184   0.386  12.748  1.0908 -0.5732  1.0651
19418TIP3   OH279744   6.371   6.540   3.747 -0.0140  0.0857 -0.1729
19418TIP3    H179745   6.392   6.575   3.834 -0.1693  1.8404 -0.8027
19418TIP3    H279746   6.319   6.609   3.706  1.4862  0.0350 -2.2924
19419TIP3   OH279747   5.341   1.878   3.228 -0.4700  0.1674  0.1795
19419TIP3    H179748   5.328   1.808   3.163 -0.0630 -0.0862  0.3624
19419TIP3    H279749   5.385   1.948   3.180  0.2741 -0.2114  0.2777
19420TIP3   OH279750   2.156   0.145   4.821 -0.3417  0.6201 -0.0705
19420TIP3    H179751   2.143   0.102   4.737  0.2894 -0.7833  0.5161
19420TIP3    H279752   2.246   0.123   4.846 -0.9827 -0.2557  1.6433
19421TIP3   OH279753   2.246   0.673   1.456  0.3090 -0.0582 -0.1232
19421TIP3    H179754   2.155   0.701   1.448  0.0970 -1.2873 -2.9345
19421TIP3    H279755   2.295   0.736   1.403  0.8944 -0.3816  0.0294
19422TIP3   OH279756   6.436   4.869   2.615 -0.1629  0.5248 -0.3145
19422TIP3    H179757   6.396   4.953   2.592 -1.6523  0.4879  1.9303
19422TIP3    H279758   6.520   4.893   2.656  0.9612  0.7081 -2.5630
19423TIP3   OH279759   3.938   3.801  15.416 -0.7066  0.2191  0.2193
19423TIP3    H179760   3.846   3.826  15.415 -0.9963 -0.7720 -1.3289
19423TIP3    H279761   3.977   3.849  15.343 -0.4541 -0.8943 -0.4009
19424TIP3   OH279762   4.019   0.322  10.645 -0.3232  0.1245  0.1156
19424TIP3    H179763   3.987   0.264  10.576 -0.4963 -0.6670  0.8378
19424TIP3    H279764   3.978   0.406  10.626 -1.0017 -0.2841 -0.2960
19425TIP3   OH279765   2.930   1.120   5.618  0.4751  0.2539 -0.1439
19425TIP3    H179766   2.910   1.048   5.558  0.3018  1.6489 -1.8115
19425TIP3    H279767   3.002   1.087   5.672  0.2959 -1.2201 -0.7625
19426TIP3   OH279768   5.991   4.850   3.800  0.1642 -0.4505 -0.1014
19426TIP3    H179769   5.944   4.862   3.882  0.4542  1.0897 -0.1230
19426TIP3    H279770   6.083   4.862   3.823  0.3714 -1.2979 -0.4404
19427TIP3   OH279771   5.230   4.232  11.970 -0.5973  0.8408 -0.0832
19427TIP3    H179772   5.219   4.227  11.875 -1.4126 -0.4201  0.0656
19427TIP3    H279773   5.299   4.168  11.990 -2.2893 -0.8856  0.4442
19428TIP3   OH279774   4.717   2.804   0.119  0.1262  0.1423 -0.1404
19428TIP3    H179775   4.799   2.760   0.138 -0.8638 -1.1852  1.3530
19428TIP3    H279776   4.701   2.786   0.026 -0.0647 -2.4723  0.3071
19429TIP3   OH279777   3.667   0.983   5.011 -0.0161  0.0920 -0.2011
19429TIP3    H179778   3.627   0.932   4.941 -0.7517 -2.7845  2.0704
19429TIP3    H279779   3.593   1.013   5.065  0.6002  0.0674  0.6879
19430TIP3   OH279780   3.877   1.806  11.071 -0.5388  0.4432 -0.9495
19430TIP3    H179781   3.855   1.749  10.998  3.0199 -1.4014 -0.8513
19430TIP3    H279782   3.845   1.760  11.148  2.8432 -2.0640 -0.8119
19431TIP3   OH279783   0.725   0.158  12.080  0.5885  0.4951 -0.3985
19431TIP3    H179784   0.662   0.185  12.013  1.8692  2.2358 -0.9595
19431TIP3    H279785   0.713   0.221  12.151  0.3307 -0.3978  0.3801
19432TIP3   OH279786   4.500   4.246  14.668 -0.9360 -0.1861 -0.0168
19432TIP3    H179787   4.511   4.325  14.721 -0.4721 -0.5980  0.5121
19432TIP3    H279788   4.590   4.220  14.645 -1.1532  0.3943 -1.6241
19433TIP3   OH279789   2.156   1.397   1.173 -0.3142 -0.8078 -0.2596
19433TIP3    H179790   2.215   1.389   1.248  1.3977 -0.6640 -1.5236
19433TIP3    H279791   2.214   1.413   1.099 -2.0063 -0.0556 -1.4899
19434TIP3   OH279792   1.045   2.664  15.029  0.1407 -0.0422  0.1257
19434TIP3    H179793   0.959   2.622  15.029 -1.1984  2.5049  0.1062
19434TIP3    H279794   1.056   2.696  15.119  0.4750  0.7565 -0.1922
19435TIP3   OH279795   0.441   6.157  17.032 -0.2789  0.6200 -0.0133
19435TIP3    H179796   0.352   6.123  17.028 -0.3964  1.0022 -1.6927
19435TIP3    H279797   0.473   6.134  17.119 -1.2226 -1.5336 -0.1801
19436TIP3   OH279798   2.525   4.503  11.620  0.7299  0.5605 -0.2280
19436TIP3    H179799   2.586   4.541  11.684 -0.1176  2.0656 -0.2832
19436TIP3    H279800   2.474   4.440  11.671  1.6210  0.0272  0.0381
19437TIP3   OH279801   4.534   2.824   4.737 -0.3396 -0.4091 -0.1544
19437TIP3    H179802   4.559   2.916   4.732 -1.4466 -0.1734 -2.0596
19437TIP3    H279803   4.570   2.785   4.658 -1.2366 -1.2718 -0.1515
19438TIP3   OH279804   4.439   2.033   4.068 -0.0989  0.2946 -0.3990
19438TIP3    H179805   4.476   1.948   4.043  4.7878  1.1970  2.4938
19438TIP3    H279806   4.460   2.090   3.994  2.2537  0.1613  0.0763
19439TIP3   OH279807   5.490   1.674   3.407 -0.5513 -0.4641  0.2343
19439TIP3    H179808   5.463   1.696   3.318  0.9203 -0.0954 -0.1390
19439TIP3    H279809   5.480   1.579   3.412  1.8908 -0.8716 -1.2581
19440TIP3   OH279810   6.174   4.926  11.869  0.4644 -0.3132 -0.4209
19440TIP3    H179811   6.142   4.839  11.895 -0.4404 -0.2845 -1.3892
19440TIP3    H279812   6.261   4.910  11.834  0.8160 -0.6469  0.5667
19441TIP3   OH279813   6.257   5.187  11.968  0.3979  0.1993 -0.2696
19441TIP3    H179814   6.209   5.106  11.952  1.0004 -0.1025 -0.5804
19441TIP3    H279815   6.240   5.207  12.060 -1.2691  0.7396 -0.6766
19442TIP3   OH279816   3.838   4.144   4.768  0.5546 -0.5401 -0.2288
19442TIP3    H179817   3.924   4.103   4.758  0.4363 -0.7021 -0.5887
19442TIP3    H279818   3.779   4.088   4.719  0.3836  0.0342 -0.6856
19443TIP3   OH279819   5.494   0.204  12.170  0.1312 -0.2774  0.2724
19443TIP3    H179820   5.436   0.264  12.124  0.1841 -0.0039  0.5535
19443TIP3    H279821   5.439   0.127  12.190  0.6593 -1.3529 -2.1083
19444TIP3   OH279822   0.199   5.897  10.635 -0.5145 -0.1459 -0.3532
19444TIP3    H179823   0.287   5.864  10.620 -0.2999  0.0262  0.4721
19444TIP3    H279824   0.148   5.821  10.664 -0.2417  0.0511  0.6807
19445TIP3   OH279825   1.035   5.701   4.610  0.0940 -0.3775 -0.1235
19445TIP3    H179826   1.091   5.628   4.635 -1.2993 -1.2334  0.6470
19445TIP3    H279827   0.955   5.688   4.660 -0.9337  0.6230 -1.4261
19446TIP3   OH279828   1.543   2.589  11.209 -0.4281  0.7721  0.2709
19446TIP3    H179829   1.466   2.573  11.155 -0.2025 -0.2713  0.2357
19446TIP3    H279830   1.602   2.639  11.153  0.0386 -0.7764 -0.6733
19447TIP3   OH279831   2.922   1.219  16.311  0.4515 -0.1640  0.5432
19447TIP3    H179832   2.881   1.187  16.231 -0.2199 -1.7202  1.4609
19447TIP3    H279833   2.947   1.140  16.359  1.1124  0.7264  1.7392
19448TIP3   OH279834   2.565   6.622  16.520  0.1126 -0.1921 -0.3722
19448TIP3    H179835   2.626   6.561  16.480  0.4655 -0.4786  0.5825
19448TIP3    H279836   2.563   6.597  16.612 -1.1464  0.0627 -0.3139
19449TIP3   OH279837   2.724   3.099   3.434  0.4384  0.5939  0.6581
19449TIP3    H179838   2.803   3.057   3.400 -0.2438 -0.2352  0.0275
19449TIP3    H279839   2.690   3.037   3.499 -1.2488 -0.5142 -1.1534
19450TIP3   OH279840   1.405   2.575  13.645 -0.0369  0.2379 -0.2192
19450TIP3    H179841   1.500   2.576  13.630 -0.0776 -0.1691 -0.5239
19450TIP3    H279842   1.367   2.580  13.558 -0.2841 -0.9883 -0.2030
19451TIP3   OH279843   5.250   2.260   2.600  0.5309 -0.4413 -0.0580
19451TIP3    H179844   5.160   2.287   2.617 -0.1137 -1.9065 -0.9529
19451TIP3    H279845   5.286   2.328   2.543 -0.7433 -0.9582 -1.5186
19452TIP3   OH279846   0.370   6.224  16.746 -0.5463 -0.0020  0.5606
19452TIP3    H179847   0.446   6.196  16.798  0.6066 -1.3910 -1.7285
19452TIP3    H279848   0.387   6.316  16.726 -0.5262  0.2760  1.7620
19453TIP3   OH279849   3.686   2.086   1.480 -0.1863  0.5824  0.1006
19453TIP3    H179850   3.620   2.103   1.546 -0.0645 -1.0808  0.7087
19453TIP3    H279851   3.675   1.993   1.458  0.2348  0.9144 -1.7089
19454TIP3   OH279852   6.234   0.866  13.726  0.2605  0.0949 -0.4168
19454TIP3    H179853   6.147   0.835  13.750 -0.1145  0.8011 -0.8222
19454TIP3    H279854   6.219   0.949  13.680  1.1847  0.5399  0.0375
19455TIP3   OH279855   6.033   4.873  11.116 -0.7096 -0.1683 -0.5845
19455TIP3    H179856   5.951   4.861  11.069 -0.7140 -0.9960 -0.3818
19455TIP3    H279857   6.071   4.953  11.080 -1.8898  0.5500 -0.2673
19456TIP3   OH279858   4.486   0.648   0.509  0.4701  0.1858  0.2960
19456TIP3    H179859   4.564   0.649   0.565 -0.2828  1.8227  1.4026
19456TIP3    H279860   4.414   0.632   0.570 -0.2480  0.7111 -0.4009
19457TIP3   OH279861   0.445   2.581   6.349  0.1190  0.3120  0.3755
19457TIP3    H179862   0.488   2.500   6.322  1.2397  0.4524  1.6272
19457TIP3    H279863   0.504   2.651   6.320  1.3762  0.4639  3.0128
19458TIP3   OH279864   1.077   0.510   1.800  0.9577 -0.1374  0.7148
19458TIP3    H179865   1.151   0.553   1.843  2.4932 -0.8559 -1.0648
19458TIP3    H279866   1.096   0.517   1.706 -1.3454 -0.2097  0.1670
19459TIP3   OH279867   3.037   3.737  13.056 -0.2782 -0.0309 -0.2135
19459TIP3    H179868   2.984   3.761  13.132  0.8555 -0.7318  0.8467
19459TIP3    H279869   2.995   3.659  13.021  0.9034 -1.5908  1.6290
19460TIP3   OH279870   3.107   6.054   2.722 -0.7780 -0.3566  0.1695
19460TIP3    H179871   3.110   6.149   2.732 -0.7625 -0.4545  1.1273
19460TIP3    H279872   3.111   6.019   2.811  1.3750 -1.3190 -0.2476
19461TIP3   OH279873   1.269   6.589  11.907  0.3641  0.1856 -0.4421
19461TIP3    H179874   1.228   6.503  11.907 -1.5748  1.0465  0.2758
19461TIP3    H279875   1.215   6.641  11.847  1.4370  0.9285 -0.7904
19462TIP3   OH279876   3.280   1.103   4.952  0.1550  0.7525 -0.3915
19462TIP3    H179877   3.228   1.143   5.021  0.3300  1.5605 -0.7196
19462TIP3    H279878   3.332   1.036   4.996 -1.4457 -0.3734 -0.1099
19463TIP3   OH279879   6.680   4.158   2.210 -0.1326  0.2569  0.4770
19463TIP3    H179880   6.773   4.180   2.217 -0.3037  0.8416  0.9900
19463TIP3    H279881   6.646   4.171   2.298 -0.9499  1.1991  0.0317
19464TIP3   OH279882   1.341   4.973   2.135  0.0747  0.2566 -0.5983
19464TIP3    H179883   1.432   4.990   2.159 -0.2877 -0.3278  1.3635
19464TIP3    H279884   1.338   4.879   2.117 -0.4523 -0.0638  1.0228
19465TIP3   OH279885   1.107   6.179  15.166 -0.1012  0.6512  0.7527
19465TIP3    H179886   1.071   6.090  15.168 -1.9279  1.3638  2.2652
19465TIP3    H279887   1.043   6.230  15.118 -0.5008  1.6857  2.3150
19466TIP3   OH279888   4.224   3.641  11.591  0.2405 -0.0828  0.2746
19466TIP3    H179889   4.306   3.672  11.630  0.6790  0.6784 -1.1848
19466TIP3    H279890   4.248   3.614  11.502 -0.4854 -2.9531  0.8536
19467TIP3   OH279891   0.423   3.187   1.731 -0.1965 -0.1085  0.2113
19467TIP3    H179892   0.514   3.163   1.712  0.1413  0.8673  0.5479
19467TIP3    H279893   0.427   3.280   1.753 -1.2830 -0.0560  0.2237
19468TIP3   OH279894   3.094   5.832   1.867 -0.5538  0.0387 -1.0086
19468TIP3    H179895   3.099   5.782   1.949  0.8065 -1.0340 -1.7000
19468TIP3    H279896   3.069   5.767   1.801  0.4031  0.4312 -1.7896
19469TIP3   OH279897   6.263   6.304   0.644  0.0773  0.1400 -0.0585
19469TIP3    H179898   6.298   6.366   0.708  0.1179  1.1296 -1.0178
19469TIP3    H279899   6.251   6.223   0.694 -1.3435  1.2829  1.6179
19470TIP3   OH279900   4.512   0.201  11.959 -0.3645  0.3200  0.7921
19470TIP3    H179901   4.578   0.158  11.905 -0.8359  0.6402 -0.0645
19470TIP3    H279902   4.535   0.177  12.049  1.0844  0.6742  0.5402
19471TIP3   OH279903   3.373   4.921  11.312 -0.1402  0.0681  0.9009
19471TIP3    H179904   3.400   5.001  11.356  1.7565 -0.4216  0.7230
19471TIP3    H279905   3.355   4.948  11.221 -0.7554  0.4826  1.1365
19472TIP3   OH279906   4.645   0.111   5.323 -0.3696 -0.4455 -0.2326
19472TIP3    H179907   4.590   0.082   5.396 -2.4889  1.1355 -1.0804
19472TIP3    H279908   4.734   0.092   5.351 -1.1721 -0.8877  2.2966
19473TIP3   OH279909   4.022   6.231   6.587 -0.0556 -0.0396  0.4416
19473TIP3    H179910   4.091   6.165   6.593  0.6838  0.7309  0.5720
19473TIP3    H279911   4.068   6.313   6.571 -0.9598  0.4548  0.3022
19474TIP3   OH279912   5.017   5.341   3.386 -0.2702  0.0031 -0.1479
19474TIP3    H179913   5.111   5.327   3.392 -0.0492  1.1500 -0.5385
19474TIP3    H279914   4.987   5.278   3.320 -0.1449 -1.7923  1.4329
19475TIP3   OH279915   4.067   5.274   3.255 -0.6604  0.1879 -0.0453
19475TIP3    H179916   4.132   5.301   3.320 -2.3905  1.6220  1.2114
19475TIP3    H279917   3.983   5.281   3.301 -1.7155 -2.0473 -1.4433
19476TIP3   OH279918   6.395   3.131  13.944  0.4682 -0.2303  0.6811
19476TIP3    H179919   6.467   3.068  13.950 -0.9195 -1.9204  0.3356
19476TIP3    H279920   6.348   3.123  14.027  0.6372  0.8437  0.8975
19477TIP3   OH279921   4.010   3.177   5.853  0.5135  0.2397 -0.4795
19477TIP3    H179922   3.987   3.268   5.874  1.0971  0.4169 -0.5681
19477TIP3    H279923   4.091   3.184   5.803  1.4341 -0.3962  0.8368
19478TIP3   OH279924   5.554   6.769   4.978  0.1124  0.4012  0.4588
19478TIP3    H179925   5.495   6.710   4.931  0.8585 -0.0975  0.1384
19478TIP3    H279926   5.537   6.751   5.070 -0.2286  0.2568  0.3690
19479TIP3   OH279927   3.254   4.159   1.144  0.1805  0.0605 -0.4022
19479TIP3    H179928   3.186   4.177   1.210  0.5922  1.9657 -0.4525
19479TIP3    H279929   3.314   4.098   1.188 -0.6247 -0.2946  0.2476
19480TIP3   OH279930   3.969   4.633   0.969 -0.3462  0.0911  0.4539
19480TIP3    H179931   4.027   4.571   1.014  0.7392  0.9977  0.3325
19480TIP3    H279932   3.905   4.577   0.924  0.1765 -0.9144  0.9230
19481TIP3   OH279933   4.323   6.184  16.182 -0.5307 -0.1019  0.2349
19481TIP3    H179934   4.269   6.131  16.123 -0.1228  0.6709 -0.8628
19481TIP3    H279935   4.413   6.171  16.150 -0.2788  0.1594  0.8304
19482TIP3   OH279936   0.633   2.944  16.221  0.1385  0.5821  0.0530
19482TIP3    H179937   0.595   2.967  16.136  2.1524  1.0945 -0.7662
19482TIP3    H279938   0.663   2.853  16.210 -0.9197  0.1291  0.7408
19483TIP3   OH279939   4.401   0.826   5.452  0.2375 -0.5771  0.4379
19483TIP3    H179940   4.387   0.879   5.531 -1.1287 -0.0634 -0.1155
19483TIP3    H279941   4.478   0.772   5.473  0.9258  0.7324  1.4796
19484TIP3   OH279942   3.848   5.543  14.560 -0.0485  0.2328 -0.2125
19484TIP3    H179943   3.878   5.457  14.532  1.1526  0.7893 -0.7091
19484TIP3    H279944   3.914   5.572  14.622  1.9658  2.5112 -3.1294
19485TIP3   OH279945   4.218   4.283  17.063  0.0099 -0.3778  0.2049
19485TIP3    H179946   4.220   4.375  17.036 -1.4219 -0.0239  1.1862
19485TIP3    H279947   4.127   4.257  17.050 -0.2666 -0.8042  2.6319
19486TIP3   OH279948   4.056   1.013   5.451  0.0049 -0.5050  0.1663
19486TIP3    H179949   3.976   1.052   5.416  0.2604  1.9219  1.9966
19486TIP3    H279950   4.056   1.038   5.543  3.8512  1.4193 -0.1830
19487TIP3   OH279951   3.713   6.348  16.221 -0.1970 -0.1001  0.3659
19487TIP3    H179952   3.722   6.435  16.259  0.1016  0.6306 -1.2896
19487TIP3    H279953   3.741   6.288  16.290  0.4773  1.1647  1.2166
19488TIP3   OH279954   1.540   0.472   2.845 -0.3731  0.1700  0.1118
19488TIP3    H179955   1.624   0.458   2.889 -0.6960 -0.0788  0.6499
19488TIP3    H279956   1.474   0.444   2.908 -0.8042 -1.7959 -1.1041
19489TIP3   OH279957   4.887   2.919  13.764 -0.1387 -0.2371 -0.3966
19489TIP3    H179958   4.817   2.971  13.724 -1.7255 -1.2414  0.9431
19489TIP3    H279959   4.908   2.966  13.844 -0.2338 -0.6358 -0.1355
19490TIP3   OH279960   5.649   6.095  15.197 -0.0211  0.2630 -0.2946
19490TIP3    H179961   5.596   6.018  15.219  0.3477  0.1323  0.1747
19490TIP3    H279962   5.585   6.164  15.180 -0.3637 -0.2480 -1.1164
19491TIP3   OH279963   3.578   0.149  12.213  0.1237 -0.3594 -0.0500
19491TIP3    H179964   3.600   0.060  12.241  0.4726 -0.4367 -0.5493
19491TIP3    H279965   3.482   0.149  12.207  0.1145 -0.6657  0.0719
19492TIP3   OH279966   6.712   0.549  17.090  0.4143 -0.2153 -0.2067
19492TIP3    H179967   6.637   0.584  17.137 -0.0658 -3.3287  1.5881
19492TIP3    H279968   6.714   0.599  17.008 -3.2842  0.3469 -0.1145
19493TIP3   OH279969   0.271   6.617  13.776  0.3834  0.4096 -0.5911
19493TIP3    H179970   0.349   6.593  13.827 -0.3743 -0.2964  0.2708
19493TIP3    H279971   0.199   6.610  13.839 -0.5445 -0.2025 -1.7023
19494TIP3   OH279972   0.192   5.693  15.235  0.4970 -0.1151 -0.4380
19494TIP3    H179973   0.221   5.697  15.326 -1.3517 -1.0472  0.2450
19494TIP3    H279974   0.228   5.610  15.202  0.3364 -0.2637 -0.2402
19495TIP3   OH279975   6.091   5.365  12.959  0.6114  0.6502 -0.2401
19495TIP3    H179976   6.184   5.352  12.943  0.5340  0.8104 -0.8691
19495TIP3    H279977   6.055   5.276  12.962  0.7369  0.5966 -0.3029
19496TIP3   OH279978   6.165   3.414   6.374  0.4218  0.5501  0.3278
19496TIP3    H179979   6.257   3.398   6.352 -0.3742 -1.2514 -2.1253
19496TIP3    H279980   6.139   3.336   6.423 -0.5935 -0.6823 -1.9926
19497TIP3   OH279981   0.513   3.597  14.605  0.1156 -0.4023  0.3683
19497TIP3    H179982   0.593   3.590  14.657  0.8574  0.1368 -0.6834
19497TIP3    H279983   0.528   3.671  14.546 -1.8435  0.8289  1.3114
19498TIP3   OH279984   5.087   2.262  11.673 -0.6137  0.2809  0.0830
19498TIP3    H179985   4.993   2.246  11.671 -0.3376 -1.6209 -0.5219
19498TIP3    H279986   5.121   2.213  11.598  0.7492  1.8828 -0.4009
19499TIP3   OH279987   3.170   0.699  14.435 -0.3013 -0.0310 -0.2547
19499TIP3    H179988   3.217   0.623  14.400 -1.3207  0.5832 -3.2217
19499TIP3    H279989   3.171   0.686  14.530  3.4195 -1.4181 -0.3326
19500TIP3   OH279990   6.344   2.788   4.855 -0.3971 -0.0338 -0.0844
19500TIP3    H179991   6.366   2.880   4.847 -1.6082  0.2616 -0.3113
19500TIP3    H279992   6.345   2.771   4.950  1.1988 -0.1717 -0.1013
19501TIP3   OH279993   5.122   4.128  14.559 -0.3407 -0.2796 -0.7867
19501TIP3    H179994   5.053   4.064  14.577  0.5726 -0.6442  1.9855
19501TIP3    H279995   5.088   4.181  14.487 -3.1012 -1.0402 -0.1686
19502TIP3   OH279996   4.005   2.161  14.761  0.0098 -0.1808  0.2644
19502TIP3    H179997   4.054   2.135  14.683 -0.3320  0.0974 -0.0462
19502TIP3    H279998   4.073   2.182  14.825  0.2927 -1.0180  0.2504
19503TIP3   OH279999   4.805   6.465  15.699  0.4009  0.1286 -0.0945
19503TIP3    H180000   4.789   6.558  15.685  0.0831  0.4173  1.9108
19503TIP3    H280001   4.886   6.447  15.650  1.0621  1.7153  0.3523
19504TIP3   OH280002   6.007   6.141   0.490  0.3057 -0.3269  0.2099
19504TIP3    H180003   5.973   6.230   0.495 -0.5371 -0.4034 -2.3823
19504TIP3    H280004   6.053   6.128   0.572  0.3143  2.4302  0.7385
19505TIP3   OH280005   1.174   3.866   4.208 -0.1019 -0.1771  0.5263
19505TIP3    H180006   1.115   3.938   4.232 -1.0707 -0.9998  0.6804
19505TIP3    H280007   1.215   3.840   4.290  0.1295  0.0741  0.4955
19506TIP3   OH280008   4.721   2.755  13.305  0.0181 -0.4386 -0.3909
19506TIP3    H180009   4.638   2.710  13.321  0.1647 -0.7676 -0.5540
19506TIP3    H280010   4.782   2.685  13.281  0.2427 -0.1508 -0.6630
19507TIP3   OH280011   0.874   4.372   4.265  0.3703  0.3028 -0.2646
19507TIP3    H180012   0.876   4.448   4.323 -0.1214 -0.2399  0.4711
19507TIP3    H280013   0.791   4.380   4.218  0.0785 -0.0494  0.1856
19508TIP3   OH280014   6.388   1.787  13.473  0.5427 -0.1476 -0.0341
19508TIP3    H180015   6.370   1.815  13.563  2.2101 -1.5493  0.7927
19508TIP3    H280016   6.436   1.861  13.434  1.6074 -0.3182  0.9095
19509TIP3   OH280017   1.360   5.033   4.125  0.1742 -0.1136  0.1384
19509TIP3    H180018   1.323   5.114   4.090 -0.9447  0.3015  2.1247
19509TIP3    H280019   1.373   5.051   4.218 -1.4202 -2.6108  0.9557
19510TIP3   OH280020   5.399   2.322  16.833 -0.0152 -0.1658  0.4773
19510TIP3    H180021   5.486   2.318  16.874 -0.0498  1.5515  0.7926
19510TIP3    H280022   5.341   2.284  16.899  0.3995 -0.7006  0.5449
19511TIP3   OH280023   5.716   4.246  12.577 -0.3951 -0.3663  0.7439
19511TIP3    H180024   5.744   4.323  12.528 -1.5725 -0.0152  0.5832
19511TIP3    H280025   5.724   4.272  12.669  0.6127 -0.5835  0.7287
19512TIP3   OH280026   3.356   6.031  13.683 -0.1251  0.4459 -0.0206
19512TIP3    H180027   3.357   5.991  13.770  0.7261  0.0291 -0.2119
19512TIP3    H280028   3.343   5.957  13.623  1.8139  0.3562 -0.4008
19513TIP3   OH280029   0.372   0.099  12.495 -0.0614  0.0172 -0.3752
19513TIP3    H180030   0.358   0.112  12.588  2.2794  0.7472 -0.0447
19513TIP3    H280031   0.362   0.005  12.481 -0.3593 -0.1048  0.6347
19514TIP3   OH280032   0.709   1.928   3.728 -0.2593 -0.0536  0.1462
19514TIP3    H180033   0.765   1.972   3.793  0.1585 -1.4618  0.7867
19514TIP3    H280034   0.651   1.996   3.696  1.1920  1.2360  0.1763
19515TIP3   OH280035   0.291   3.817  14.040  0.2288  0.0223 -0.2735
19515TIP3    H180036   0.281   3.911  14.054  0.7442  0.1002 -0.4057
19515TIP3    H280037   0.209   3.790  13.999 -0.3712  0.2064  0.7718
19516TIP3   OH280038   6.667   2.595  14.175 -0.2380 -0.1469  0.2544
19516TIP3    H180039   6.600   2.603  14.107  0.3035  3.7635 -0.0488
19516TIP3    H280040   6.619   2.571  14.254 -0.8687 -4.9102 -1.2629
19517TIP3   OH280041   4.963   4.897   4.885  0.1354 -0.2996 -0.1955
19517TIP3    H180042   4.923   4.900   4.798  1.5753 -0.5364 -0.8920
19517TIP3    H280043   4.890   4.877   4.944 -0.8122 -0.4513 -1.3795
19518TIP3   OH280044   6.227   1.025   1.605 -0.6271  0.1967 -0.2125
19518TIP3    H180045   6.170   1.070   1.668 -1.4829  0.6286 -1.2541
19518TIP3    H280046   6.169   1.005   1.531 -0.1396 -2.1076 -0.0470
19519TIP3   OH280047   6.091   6.417   1.629 -0.5770  0.2926  0.0421
19519TIP3    H180048   6.023   6.482   1.610  0.6455  1.8353  0.7758
19519TIP3    H280049   6.158   6.431   1.563 -0.0560  0.1433  0.5315
19520TIP3   OH280050   1.936   5.005  17.079 -0.0626  0.0625  0.3091
19520TIP3    H180051   1.866   4.975  17.021  0.8994  1.2920 -1.5716
19520TIP3    H280052   2.002   4.936  17.076  0.5541  0.6881 -1.1304
19521TIP3   OH280053   0.027   6.793  15.992  0.5745 -0.5287 -0.4782
19521TIP3    H180054   0.011   6.703  16.022  1.0400 -0.2876  0.5486
19521TIP3    H280055  -0.007   6.795  15.903  0.4862 -1.7062 -0.4899
19522TIP3   OH280056   4.916   5.863  12.683 -0.1355 -0.2791 -0.0096
19522TIP3    H180057   4.936   5.791  12.622 -1.8604 -0.9488  0.1560
19522TIP3    H280058   4.966   5.842  12.762  2.1599  0.6213 -1.1387
19523TIP3   OH280059   0.960   4.190   3.592 -0.2255  0.5576 -0.1209
19523TIP3    H180060   0.873   4.210   3.558 -0.7909 -0.5800  0.5844
19523TIP3    H280061   0.960   4.227   3.680 -0.9461 -1.5075  0.8386
19524TIP3   OH280062   6.471   5.486   0.272  0.1672  0.4562 -0.0306
19524TIP3    H180063   6.503   5.426   0.339 -2.9383  0.5714  1.7713
19524TIP3    H280064   6.517   5.568   0.289  0.4531  0.0755  1.0710
19525TIP3   OH280065   3.715   1.830  12.410  0.2260 -0.5801 -0.6477
19525TIP3    H180066   3.798   1.855  12.370 -0.3913  1.4130 -0.7881
19525TIP3    H280067   3.704   1.890  12.483 -0.8453 -1.1772 -0.2812
19526TIP3   OH280068   5.764   0.261   6.210 -0.9755  0.1844  0.8055
19526TIP3    H180069   5.793   0.301   6.292 -0.3588 -0.0415  0.7000
19526TIP3    H280070   5.772   0.330   6.144 -0.2614 -0.0007  0.6939
19527TIP3   OH280071   4.945   1.944  11.823 -0.1582 -0.1171  0.1291
19527TIP3    H180072   4.895   1.997  11.885 -1.0272  0.0308 -0.6846
19527TIP3    H280073   5.020   1.913  11.874  0.1572  1.5478  0.7280
19528TIP3   OH280074   3.592   4.601  11.808 -0.4990 -0.2220  0.3410
19528TIP3    H180075   3.528   4.578  11.741 -0.0767  0.3195 -0.2571
19528TIP3    H280076   3.558   4.562  11.888 -2.6062  1.6834  0.4615
19529TIP3   OH280077   3.763   5.167  16.558 -0.1477 -0.0481  1.0900
19529TIP3    H180078   3.786   5.104  16.626 -0.4654 -0.6764  0.6210
19529TIP3    H280079   3.669   5.154  16.544 -0.0470 -0.0577  0.3913
19530TIP3   OH280080   1.252   3.567  13.204 -0.5907  0.6708  0.2136
19530TIP3    H180081   1.172   3.593  13.158 -0.1134  0.5614 -0.7001
19530TIP3    H280082   1.225   3.559  13.296 -1.6391  0.5732 -0.0864
19531TIP3   OH280083   5.545   3.624  12.777  0.0817 -0.2916 -0.4170
19531TIP3    H180084   5.612   3.692  12.772  0.9659 -1.2078 -2.0707
19531TIP3    H280085   5.558   3.583  12.862  2.7941 -1.5238 -1.3228
19532TIP3   OH280086   1.787   1.377   1.446  0.0327  0.3328  0.2088
19532TIP3    H180087   1.733   1.437   1.499  1.0735  0.3020  1.3366
19532TIP3    H280088   1.867   1.366   1.497 -0.2893 -2.3945  0.2514
19533TIP3   OH280089   2.602   3.266  13.551  0.1576 -0.1041  0.4974
19533TIP3    H180090   2.516   3.282  13.512  0.7678  1.2689 -0.3246
19533TIP3    H280091   2.583   3.238  13.640 -1.1218  0.9621  0.5800
19534TIP3   OH280092   5.104   5.107   1.129  0.0196 -0.1791  0.2834
19534TIP3    H180093   5.163   5.156   1.072  0.7730 -0.5627  0.7184
19534TIP3    H280094   5.018   5.117   1.089  0.3671  0.4504 -0.3209
19535TIP3   OH280095   4.192   5.914  13.781 -0.3488 -0.4082  0.5920
19535TIP3    H180096   4.124   5.972  13.748  0.3029  1.0101  1.6431
19535TIP3    H280097   4.155   5.876  13.861 -0.4692 -0.8377  0.3379
19536TIP3   OH280098   6.814   4.949   5.466 -0.2971  0.7476  0.2947
19536TIP3    H180099   6.829   5.032   5.420 -1.1087  0.9277  0.3528
19536TIP3    H280100   6.771   4.894   5.401  0.5657  0.2337  0.1398
19537TIP3   OH280101   5.907   4.978   4.901 -0.0465 -0.4721  0.3830
19537TIP3    H180102   5.834   4.945   4.849  0.0321 -0.1459  0.0630
19537TIP3    H280103   5.882   5.068   4.923  0.1350 -0.4522  0.5119
19538TIP3   OH280104   3.056   5.799  13.155  0.5536  0.4079  0.5536
19538TIP3    H180105   3.033   5.748  13.232 -0.0722 -0.7250 -0.3432
19538TIP3    H280106   3.049   5.890  13.183  0.6864  0.0270  1.9134
19539TIP3   OH280107   5.877   4.348   1.512  0.3489  0.3364 -0.6643
19539TIP3    H180108   5.897   4.255   1.503 -1.0415 -0.0300 -0.3096
19539TIP3    H280109   5.805   4.362   1.451  0.6467  1.2154 -0.8171
19540TIP3   OH280110   1.380   5.027   3.458  0.5630 -0.1447 -0.0942
19540TIP3    H180111   1.426   4.946   3.433  1.7347  0.1285  1.0928
19540TIP3    H280112   1.441   5.097   3.436 -0.2334  0.4083 -0.6072
19541TIP3   OH280113   0.826   2.037  16.991  0.2342  0.0320  0.5664
19541TIP3    H180114   0.788   1.958  17.029 -0.0325 -0.5955 -0.9365
19541TIP3    H280115   0.769   2.108  17.020 -0.1233 -0.4624  1.0825
19542TIP3   OH280116   4.439   5.909   1.715  0.3986 -0.4043  0.2011
19542TIP3    H180117   4.413   5.912   1.807  0.5674  1.1513  0.2156
19542TIP3    H280118   4.514   5.968   1.709 -2.4584  3.4700 -1.7637
19543TIP3   OH280119   0.933   2.748   5.718  0.1226  0.3499 -0.0344
19543TIP3    H180120   0.966   2.680   5.777 -1.3466 -0.4120 -0.0562
19543TIP3    H280121   0.945   2.829   5.766  2.2928  0.1834 -0.1647
19544TIP3   OH280122   1.038   5.068  11.421  0.4488 -0.4168 -0.0007
19544TIP3    H180123   1.082   5.043  11.503 -0.1800 -1.0942  0.1390
19544TIP3    H280124   0.945   5.056  11.439  0.2466  0.2076 -0.5649
19545TIP3   OH280125   5.742   3.176  10.833  0.9623  0.0452  0.2398
19545TIP3    H180126   5.652   3.177  10.801  1.8833 -2.3586 -2.9350
19545TIP3    H280127   5.778   3.260  10.807  0.5759 -0.3504 -1.6774
19546TIP3   OH280128   1.414   1.990   2.768  0.5124 -0.2191 -0.0246
19546TIP3    H180129   1.388   1.899   2.784  0.0051  0.1138  1.2007
19546TIP3    H280130   1.345   2.042   2.810 -0.2350  0.7853 -2.3336
19547TIP3   OH280131   5.048   0.296   4.128  0.4188  0.1618  0.3942
19547TIP3    H180132   5.080   0.241   4.057  1.1088 -1.7265  2.0654
19547TIP3    H280133   5.126   0.317   4.179 -0.1763  0.6966  1.1130
19548TIP3   OH280134   1.757   3.835   2.894 -0.5581  0.2978  0.1642
19548TIP3    H180135   1.791   3.924   2.897  0.6487 -0.0526 -1.3453
19548TIP3    H280136   1.784   3.802   2.808 -1.9920 -1.1336  0.1978
19549TIP3   OH280137   3.100   0.180  12.886 -0.1623  0.1941 -0.3251
19549TIP3    H180138   3.153   0.134  12.821 -2.5327 -1.1391 -1.4069
19549TIP3    H280139   3.165   0.225  12.940  2.0542 -0.9504 -1.8346
19550TIP3   OH280140   1.767   5.883   4.040  0.3326  0.5176 -0.1383
19550TIP3    H180141   1.694   5.897   4.100  0.9611 -0.7894  0.9805
19550TIP3    H280142   1.754   5.795   4.006  1.2338  0.3764 -0.1425
19551TIP3   OH280143   3.028   4.637   4.158 -0.3884  0.2712 -0.0848
19551TIP3    H180144   3.039   4.672   4.070  1.0033 -1.7602 -0.7842
19551TIP3    H280145   3.116   4.609   4.184 -1.0667 -0.7317  1.2662
19552TIP3   OH280146   4.937   0.763   0.228  0.0042  0.8645 -0.6040
19552TIP3    H180147   4.850   0.731   0.252 -0.0014  1.3788  0.0802
19552TIP3    H280148   4.991   0.684   0.221 -0.4719  0.5562 -0.8811
19553TIP3   OH280149   0.875   3.777   3.355 -0.1445 -0.1567 -0.4186
19553TIP3    H180150   0.963   3.781   3.392  0.1837 -0.4726 -1.1459
19553TIP3    H280151   0.832   3.706   3.403  0.1173 -0.2443 -0.3093
19554TIP3   OH280152   3.001   4.741   1.116  0.0380  0.3497 -0.2541
19554TIP3    H180153   2.959   4.820   1.150 -0.0937  1.4455 -2.7487
19554TIP3    H280154   3.023   4.763   1.025  3.3791 -1.1952  0.0395
19555TIP3   OH280155   4.278   2.250  15.238  0.2789 -0.4606 -0.4471
19555TIP3    H180156   4.293   2.209  15.323  1.1641 -0.2971 -0.5201
19555TIP3    H280157   4.288   2.344  15.254  0.0287 -0.3966 -0.6515
19556TIP3   OH280158   5.381   1.746   1.932  0.3617  0.4227 -0.0679
19556TIP3    H180159   5.297   1.741   1.885  0.2546 -1.3752  0.2197
19556TIP3    H280160   5.432   1.672   1.898  0.6241 -0.4095  1.9433
19557TIP3   OH280161   5.832   6.511   1.872 -0.3365 -0.1579  0.6606
19557TIP3    H180162   5.821   6.420   1.845  3.1002 -1.0077  1.6546
19557TIP3    H280163   5.798   6.514   1.962  1.9164 -1.2826  1.6486
19558TIP3   OH280164   6.315   6.245   6.013  0.2784 -0.5571  0.1922
19558TIP3    H180165   6.317   6.261   5.919  0.1826 -0.5267  0.1950
19558TIP3    H280166   6.305   6.332   6.052 -0.9170 -0.6687  0.1839
19559TIP3   OH280167   6.521   0.779   6.155 -0.5247  0.6031 -0.1141
19559TIP3    H180168   6.602   0.782   6.103  0.4480  1.8260  1.3748
19559TIP3    H280169   6.481   0.865   6.142 -1.2652  0.2288 -0.3354
19560TIP3   OH280170   2.608   5.233  15.397  0.2182 -0.0417 -0.4096
19560TIP3    H180171   2.545   5.254  15.328  1.3665 -1.1535 -1.8505
19560TIP3    H280172   2.678   5.298  15.387  0.4542 -0.2892 -0.3855
19561TIP3   OH280173   2.005   4.344  12.778 -0.1160 -0.1886 -0.0301
19561TIP3    H180174   2.022   4.262  12.732 -2.1372 -0.6782 -0.0039
19561TIP3    H280175   1.971   4.316  12.863  2.1981  0.7089  1.2726
19562TIP3   OH280176   5.718   1.253  16.140  0.4496 -0.3426 -0.5653
19562TIP3    H180177   5.647   1.273  16.201 -1.0438 -1.8634 -1.6872
19562TIP3    H280178   5.798   1.271  16.189 -0.6806 -0.4771  1.4441
19563TIP3   OH280179   6.045   3.900  15.742  0.0730  0.0052  0.8739
19563TIP3    H180180   6.107   3.926  15.674  0.2645 -1.9980  0.2126
19563TIP3    H280181   6.097   3.901  15.823  0.4305  0.2536  0.6439
19564TIP3   OH280182   6.180   5.633  13.627 -0.4419 -1.2292 -0.1788
19564TIP3    H180183   6.123   5.588  13.688 -0.6200 -0.2468  0.4067
19564TIP3    H280184   6.218   5.705  13.677  0.2805 -1.0684 -0.9200
19565TIP3   OH280185   4.548   6.176   3.701  0.0059 -0.2717  0.4952
19565TIP3    H180186   4.475   6.235   3.688  0.1160 -0.0409  0.9126
19565TIP3    H280187   4.625   6.233   3.708  0.4458 -0.5569 -1.2942
19566TIP3   OH280188   1.470   1.280   0.255 -0.2153 -0.9928  0.3617
19566TIP3    H180189   1.381   1.297   0.225  0.8882 -0.7534 -3.1743
19566TIP3    H280190   1.459   1.254   0.347 -3.9280 -1.4672 -0.0472
19567TIP3   OH280191   4.357   0.246   6.138 -0.5888 -0.1245  0.0258
19567TIP3    H180192   4.337   0.156   6.164 -0.1715 -0.4064 -0.6124
19567TIP3    H280193   4.453   0.252   6.141 -0.6497  0.6466  1.1822
19568TIP3   OH280194   2.000   5.544  14.407  0.3344  0.1431  0.0320
19568TIP3    H180195   2.074   5.603  14.394 -0.0935  0.4471 -1.1246
19568TIP3    H280196   1.980   5.510  14.320 -0.8052 -0.0288  0.3439
19569TIP3   OH280197   1.966   6.464   6.535  0.2019  0.6006  0.3340
19569TIP3    H180198   1.878   6.474   6.569 -0.6514  0.7336 -1.7606
19569TIP3    H280199   2.017   6.534   6.576 -1.0369  1.4416  0.4648
19570TIP3   OH280200   0.527   3.758  14.168 -0.2661  0.4686  0.2025
19570TIP3    H180201   0.477   3.730  14.244 -0.0370  1.4842  0.7459
19570TIP3    H280202   0.461   3.779  14.102 -0.6195  2.3572  1.1067
19571TIP3   OH280203   6.013   5.527  13.818  0.5955  0.6938 -0.0073
19571TIP3    H180204   6.004   5.604  13.874 -0.7323  0.1757  0.5152
19571TIP3    H280205   5.924   5.498  13.802  1.0689 -0.6306 -0.3607
19572TIP3   OH280206   2.701   3.910   2.030 -0.1767  0.2446  0.2599
19572TIP3    H180207   2.793   3.931   2.015  0.2110 -0.9657  0.8495
19572TIP3    H280208   2.664   3.990   2.067 -0.0606  1.7049 -2.5256
19573TIP3   OH280209   5.751   6.295   3.765  0.2691 -0.2762  0.2049
19573TIP3    H180210   5.704   6.212   3.756 -0.3933  0.1509 -0.3688
19573TIP3    H280211   5.694   6.349   3.819 -1.0587  1.0536 -2.3834
19574TIP3   OH280212   2.485   0.501  17.185 -0.5889  0.0290 -0.3376
19574TIP3    H180213   2.451   0.569  17.126  0.0944  0.5797 -0.1102
19574TIP3    H280214   2.499   0.546  17.268  1.5419  0.0776 -0.6618
19575TIP3   OH280215   3.640   6.752  12.303  0.4900 -0.1163  0.2764
19575TIP3    H180216   3.731   6.727  12.318  0.3682  0.2371  1.7843
19575TIP3    H280217   3.591   6.670  12.310  0.7386 -0.4304 -1.2803
19576TIP3   OH280218   3.410   6.102   3.708 -0.1660 -0.8963 -0.4286
19576TIP3    H180219   3.346   6.108   3.637  0.3828  2.5508 -0.7952
19576TIP3    H280220   3.492   6.081   3.665  0.6482  3.3266 -1.3922
19577TIP3   OH280221   1.456   0.826   3.189  0.2747 -0.2846  0.1251
19577TIP3    H180222   1.375   0.781   3.166  0.6521 -0.4529 -0.9254
19577TIP3    H280223   1.427   0.903   3.239 -0.4444 -0.9720  0.8001
19578TIP3   OH280224   4.438   5.419  13.978 -0.1185 -0.1859  0.3174
19578TIP3    H180225   4.481   5.467  13.907 -0.7955 -0.1081 -0.0544
19578TIP3    H280226   4.509   5.395  14.038  0.1531  1.8513  0.8564
19579TIP3   OH280227   0.177   0.902   2.005  0.2164  0.3498 -0.3445
19579TIP3    H180228   0.221   0.897   2.090  0.7105  0.8322 -0.5638
19579TIP3    H280229   0.100   0.957   2.022  1.0728  1.6498 -0.4961
19580TIP3   OH280230   0.481   5.529   2.569 -0.2909 -0.0682 -0.4711
19580TIP3    H180231   0.463   5.561   2.481  1.2116  0.3499 -0.6500
19580TIP3    H280232   0.549   5.588   2.603  0.1289 -1.0421  0.4373
19581TIP3   OH280233   6.099   1.921  11.942 -0.1961  0.5899 -0.2194
19581TIP3    H180234   6.123   2.013  11.930  2.9422 -0.1060 -0.2543
19581TIP3    H280235   6.051   1.920  12.025  1.7139  2.0524  1.0158
19582TIP3   OH280236   2.539   3.256  14.554  0.0838  0.4143 -0.1446
19582TIP3    H180237   2.630   3.259  14.583 -0.1889  1.7991  0.6380
19582TIP3    H280238   2.494   3.319  14.610 -1.7341 -1.5583  0.7493
19583TIP3   OH280239   0.650   3.918   4.385  0.2929  0.2520 -0.0989
19583TIP3    H180240   0.576   3.976   4.365 -0.5919 -0.6841  0.3757
19583TIP3    H280241   0.611   3.846   4.434  1.6050 -0.0401  0.5572
19584TIP3   OH280242   1.052   0.983  10.558 -0.2209  0.1998 -0.1761
19584TIP3    H180243   0.994   0.993  10.633  0.5674 -0.8797  0.5998
19584TIP3    H280244   1.046   1.067  10.512 -1.1915  0.6545  0.7359
19585TIP3   OH280245   0.508   1.613  15.359  0.2575  0.4300 -0.6895
19585TIP3    H180246   0.535   1.599  15.449 -0.6307 -2.6064 -0.7950
19585TIP3    H280247   0.588   1.602  15.307  0.1592 -1.5872 -0.4907
19586TIP3   OH280248   3.039   5.396   3.207  0.2575 -0.2960  0.4399
19586TIP3    H180249   3.088   5.317   3.183  2.2691  0.3680  2.1354
19586TIP3    H280250   3.067   5.461   3.143  2.2604  0.2764  1.8129
19587TIP3   OH280251   5.947   6.796   1.893 -0.2712 -0.0773  0.3291
19587TIP3    H180252   5.896   6.820   1.971 -1.1962  1.4110 -0.6814
19587TIP3    H280253   5.926   6.704   1.878 -0.2287 -0.3342  1.7143
19588TIP3   OH280254   6.735   5.494  11.954 -0.1542 -0.1316 -0.0180
19588TIP3    H180255   6.641   5.483  11.969  0.1338 -2.3770  0.4751
19588TIP3    H280256   6.774   5.494  12.042  0.2790  1.6703 -0.1634
19589TIP3   OH280257   3.955   2.073   5.537  0.0263 -0.1958  0.0273
19589TIP3    H180258   3.938   1.984   5.506 -1.0692 -0.0634  0.1837
19589TIP3    H280259   3.872   2.119   5.522  0.2893  0.5513  0.8115
19590TIP3   OH280260   3.774   5.260   4.934 -0.2868  0.1367  0.7426
19590TIP3    H180261   3.720   5.207   4.994  1.7804 -0.2640  2.3543
19590TIP3    H280262   3.770   5.348   4.970 -1.5602  0.5865 -0.4074
19591TIP3   OH280263   0.027   3.173   5.577 -0.1698  0.0925  0.2482
19591TIP3    H180264   0.101   3.129   5.620 -0.2042 -1.1587 -0.9097
19591TIP3    H280265  -0.049   3.146   5.629  0.0857  0.7954  1.0079
19592TIP3   OH280266   1.258   5.632  14.545 -0.0142 -0.2376 -0.1432
19592TIP3    H180267   1.247   5.569  14.616  0.3060 -0.4605 -0.2868
19592TIP3    H280268   1.353   5.648  14.541 -0.2450  1.8222  1.2269
19593TIP3   OH280269   1.334   2.851   5.787  0.3414 -0.2704 -0.3998
19593TIP3    H180270   1.313   2.759   5.805  0.3051 -0.1571  0.1504
19593TIP3    H280271   1.394   2.847   5.712 -0.4853 -0.6735 -1.0526
19594TIP3   OH280272   5.803   5.056   3.320  0.0633  0.1542  0.0518
19594TIP3    H180273   5.856   5.099   3.388 -0.7195 -0.6785  1.2358
19594TIP3    H280274   5.850   4.975   3.302  0.5326  0.6027 -0.7843
19595TIP3   OH280275   4.405   3.283   4.797 -0.1830 -0.2053 -0.4038
19595TIP3    H180276   4.435   3.204   4.751 -0.0397  0.3232 -1.2391
19595TIP3    H280277   4.383   3.253   4.885  0.9871 -0.9623 -0.3552
19596TIP3   OH280278   1.896   4.229  11.221 -0.3083 -0.7615  0.1398
19596TIP3    H180279   1.858   4.297  11.166  1.4995  2.1798  2.2456
19596TIP3    H280280   1.963   4.188  11.166  0.2966  0.9311 -0.4356
19597TIP3   OH280281   5.737   6.213  12.463  0.2397 -0.4329 -0.3162
19597TIP3    H180282   5.767   6.165  12.386 -0.5065  0.4560 -1.1895
19597TIP3    H280283   5.814   6.263  12.492  0.6678 -1.1731 -0.1569
19598TIP3   OH280284   5.362   5.924   1.238 -0.1447  0.0266 -0.3776
19598TIP3    H180285   5.274   5.913   1.205 -0.5113  0.8825  0.2604
19598TIP3    H280286   5.377   5.847   1.293 -0.9804  0.4767  0.5140
19599TIP3   OH280287   2.295   1.470   5.041 -0.3092  0.5402 -0.2700
19599TIP3    H180288   2.371   1.478   4.983  0.7499  0.5904  1.0677
19599TIP3    H280289   2.244   1.397   5.004  0.2976  0.6158 -1.2876
19600TIP3   OH280290   5.430   5.232  15.514  0.1202  0.3834  0.1452
19600TIP3    H180291   5.490   5.291  15.559 -0.6837 -0.2675  2.1493
19600TIP3    H280292   5.383   5.186  15.584 -1.1117 -0.7643 -1.3542
19601TIP3   OH280293   3.641   3.705   2.707 -0.0313 -0.2365 -0.3537
19601TIP3    H180294   3.556   3.694   2.750 -0.5728 -0.9954 -1.5923
19601TIP3    H280295   3.674   3.616   2.695  0.3304 -0.0134 -1.0807
19602TIP3   OH280296   3.529   3.067   2.607  0.0031 -0.4585 -0.1374
19602TIP3    H180297   3.447   3.023   2.583 -1.1196  0.7671  1.2633
19602TIP3    H280298   3.526   3.151   2.562  0.0144  0.0013  0.7037
19603TIP3   OH280299   2.870   2.460   4.871 -0.1610 -0.4737  0.0172
19603TIP3    H180300   2.942   2.505   4.914  0.0136 -1.2001  0.5028
19603TIP3    H280301   2.796   2.521   4.877  0.1179 -0.1783  0.4930
19604TIP3   OH280302   4.630   0.766  13.005 -0.6008  0.2645  0.2507
19604TIP3    H180303   4.681   0.816  13.069 -2.0097  2.3433 -0.1495
19604TIP3    H280304   4.545   0.752  13.048 -1.8731  2.4363 -1.3661
19605TIP3   OH280305   0.709   1.041   2.203 -0.1468  0.5955  0.0480
19605TIP3    H180306   0.646   1.013   2.136 -0.2961  3.0903 -0.9769
19605TIP3    H280307   0.791   0.998   2.179 -0.7608 -0.3889 -0.3393
19606TIP3   OH280308   3.221   0.184  11.160  0.1836 -0.4280  0.3196
19606TIP3    H180309   3.276   0.262  11.152  0.9037 -1.0099 -0.8597
19606TIP3    H280310   3.232   0.140  11.075 -3.4793  0.2827 -0.6731
19607TIP3   OH280311   4.299   4.358   1.833  0.5465 -0.2217 -0.0350
19607TIP3    H180312   4.307   4.453   1.829 -0.3466 -0.1306  0.1235
19607TIP3    H280313   4.390   4.327   1.836  0.9261  0.7774  3.1927
19608TIP3   OH280314   3.342   0.181   0.926 -0.0569  0.1948  0.2372
19608TIP3    H180315   3.427   0.163   0.885 -0.3090 -0.8445  0.1530
19608TIP3    H280316   3.331   0.111   0.990 -1.4781 -0.4734 -0.7110
19609TIP3   OH280317   2.760   6.548   2.528 -0.2131  0.1927 -0.1661
19609TIP3    H180318   2.668   6.537   2.552 -0.5368  1.8346 -0.5332
19609TIP3    H280319   2.759   6.611   2.456  1.1047 -0.9626 -1.2586
19610TIP3   OH280320   6.794   6.822   5.441  0.3314 -0.4581  0.3137
19610TIP3    H180321   6.716   6.830   5.495  0.6216  0.8944  0.5722
19610TIP3    H280322   6.866   6.812   5.503  0.5988  0.5220  0.1842
19611TIP3   OH280323   2.978   2.400   0.301  0.3785 -0.3833 -0.4040
19611TIP3    H180324   2.963   2.451   0.380  0.2710 -1.6850  0.4437
19611TIP3    H280325   3.052   2.443   0.258 -1.0109  1.7308 -0.8432
19612TIP3   OH280326   4.347   6.032   4.138 -0.5892 -0.2567 -0.0394
19612TIP3    H180327   4.298   6.093   4.083 -0.3030  0.3178  0.3353
19612TIP3    H280328   4.439   6.049   4.117 -0.5414 -1.3595 -0.7716
19613TIP3   OH280329   0.314   1.826  14.080 -0.4358  0.6968  0.2637
19613TIP3    H180330   0.392   1.809  14.028 -1.2467  1.2281 -1.1651
19613TIP3    H280331   0.347   1.849  14.167  0.9052 -1.7211  0.4899
19614TIP3   OH280332   6.090   6.231  16.682 -0.0113  0.1048  0.0813
19614TIP3    H180333   6.102   6.227  16.587 -1.1354  5.2452 -0.5862
19614TIP3    H280334   6.009   6.182  16.698 -1.3044  1.3437 -2.1396
19615TIP3   OH280335   1.262   6.770   1.102 -0.7593 -0.3358  0.4391
19615TIP3    H180336   1.240   6.685   1.140 -2.0670 -0.1780  0.1086
19615TIP3    H280337   1.189   6.827   1.128  0.7290  1.0681  1.7912
19616TIP3   OH280338   6.767   2.683   4.460 -0.3693 -0.3648 -0.7096
19616TIP3    H180339   6.744   2.740   4.386  2.1947 -0.1410 -1.4045
19616TIP3    H280340   6.721   2.601   4.442 -1.2268  0.2831 -1.5869
19617TIP3   OH280341   4.717   5.530   2.715 -0.3823 -0.1492  0.2047
19617TIP3    H180342   4.743   5.565   2.800 -2.1985  1.4978  0.1344
19617TIP3    H280343   4.670   5.449   2.736 -1.7346  0.7742  0.9079
19618TIP3   OH280344   2.164   0.108  14.249  0.0993  0.1710  0.4989
19618TIP3    H180345   2.177   0.192  14.207 -0.1568  0.1082  0.2898
19618TIP3    H280346   2.121   0.054  14.183  0.7386 -0.2946  0.4468
19619TIP3   OH280347   1.735   1.602  16.417  0.2311  0.3658  0.4969
19619TIP3    H180348   1.683   1.678  16.391  0.9419  0.2087 -1.5219
19619TIP3    H280349   1.671   1.540  16.451 -0.3739  1.7781  2.0584
19620TIP3   OH280350   4.577   5.577   5.574 -0.2054  0.0736  0.4129
19620TIP3    H180351   4.571   5.483   5.593  0.1538  0.3180  1.7902
19620TIP3    H280352   4.649   5.584   5.512 -1.6839 -0.7860 -1.5329
19621TIP3   OH280353   2.591   5.269  12.224  0.0562  0.2514 -0.3775
19621TIP3    H180354   2.539   5.313  12.157 -1.4226 -2.5915 -1.2612
19621TIP3    H280355   2.682   5.292  12.202 -0.5726  1.9087 -1.4106
19622TIP3   OH280356   4.896   4.839   5.613  0.5414 -0.5485  0.8670
19622TIP3    H180357   4.874   4.778   5.684 -1.3074 -0.7290  0.2078
19622TIP3    H280358   4.812   4.856   5.570  1.2398  1.3854  0.1661
19623TIP3   OH280359   5.479   4.234   0.401 -0.0369 -0.2975  0.8821
19623TIP3    H180360   5.539   4.202   0.469 -0.0398 -0.7373  0.6840
19623TIP3    H280361   5.501   4.182   0.324 -1.0525 -0.8731  0.9595
19624TIP3   OH280362   4.123   1.316   4.630  0.0416  0.3120 -0.0220
19624TIP3    H180363   4.176   1.395   4.621  0.1406  0.4303  1.3605
19624TIP3    H280364   4.118   1.301   4.724 -0.8350 -0.7564 -0.2141
19625TIP3   OH280365   1.939   4.300   3.466 -0.3015  0.0054  0.2101
19625TIP3    H180366   1.909   4.238   3.400  1.4714  1.1640 -1.7962
19625TIP3    H280367   2.005   4.251   3.516  0.6204  0.0208 -0.9439
19626TIP3   OH280368   3.177   5.440   1.094  0.1187  0.0584 -0.3529
19626TIP3    H180369   3.151   5.526   1.125 -1.0275 -0.4150  0.0382
19626TIP3    H280370   3.163   5.442   0.999 -2.8474 -0.6445 -0.0077
19627TIP3   OH280371   5.212   4.980  12.043  0.1773 -0.2986 -0.2796
19627TIP3    H180372   5.226   4.897  11.998  0.8679 -0.8637  0.9279
19627TIP3    H280373   5.119   4.999  12.031  0.0404 -1.1875 -0.6721
19628TIP3   OH280374   1.886   1.502   5.737 -0.2376  0.3185 -0.4171
19628TIP3    H180375   1.897   1.489   5.831  1.6589  0.1095 -0.6206
19628TIP3    H280376   1.940   1.434   5.697  2.8754  3.1968 -1.5893
19629TIP3   OH280377   3.270   2.459   6.556  0.3847  0.2357 -0.2819
19629TIP3    H180378   3.328   2.491   6.626 -0.1130  0.9444 -0.1849
19629TIP3    H280379   3.313   2.485   6.475  1.0199 -0.6854 -0.2565
19630TIP3   OH280380   0.513   3.755  16.351  0.2068  0.0642 -0.1178
19630TIP3    H180381   0.553   3.828  16.304  0.0259  0.5853  0.5174
19630TIP3    H280382   0.444   3.796  16.404  0.5440 -0.4710  0.7570
19631TIP3   OH280383   6.008   5.699  14.684  0.1363  0.1519  0.2390
19631TIP3    H180384   5.973   5.668  14.768 -1.1928 -3.7848 -1.4874
19631TIP3    H280385   6.100   5.671  14.685  0.1882  0.3309  0.4857
19632TIP3   OH280386   4.708   6.004   2.606 -0.1522  0.2907 -0.0128
19632TIP3    H180387   4.653   6.082   2.601 -1.0233 -0.2412  0.9952
19632TIP3    H280388   4.672   5.945   2.540 -1.4043 -0.4078  1.2431
19633TIP3   OH280389   1.612   5.709   6.160 -0.3202  0.0606 -0.1712
19633TIP3    H180390   1.635   5.799   6.183  1.6240 -0.3438 -0.3386
19633TIP3    H280391   1.579   5.672   6.242  0.5637  0.4330  0.3755
19634TIP3   OH280392   5.995   0.583   3.924 -0.5703 -0.4939  0.4889
19634TIP3    H180393   6.089   0.584   3.906 -0.2225 -1.3345  2.0587
19634TIP3    H280394   5.954   0.571   3.839  0.8600 -2.3104 -0.0062
19635TIP3   OH280395   3.296   0.150   3.087  0.2791 -0.7478  0.4231
19635TIP3    H180396   3.345   0.207   3.146 -1.6290 -0.1386  1.4914
19635TIP3    H280397   3.357   0.079   3.067  2.0947  0.7097  0.4880
19636TIP3   OH280398   5.099   4.732   5.055 -0.7037  0.5812 -0.6139
19636TIP3    H180399   5.191   4.757   5.054 -0.8607  1.1592 -0.8520
19636TIP3    H280400   5.064   4.766   4.972 -1.2729  0.9034 -0.2498
19637TIP3   OH280401   5.430   5.500   1.094 -0.1992  0.1208 -0.3038
19637TIP3    H180402   5.353   5.446   1.074 -0.2530  0.6092 -1.4900
19637TIP3    H280403   5.470   5.457   1.169  0.8660 -2.7648 -2.3288
19638TIP3   OH280404   5.914   4.427  11.807  0.2380  0.4221  0.2670
19638TIP3    H180405   5.907   4.517  11.840  0.0663  0.1659  0.9554
19638TIP3    H280406   5.975   4.433  11.734 -2.3367  1.6586 -1.9294
19639TIP3   OH280407   6.348   2.707  15.111 -0.4083  0.0604  0.2053
19639TIP3    H180408   6.356   2.612  15.104  1.0380  0.1374  0.6451
19639TIP3    H280409   6.412   2.733  15.177 -0.7746  1.3482  0.0955
19640TIP3   OH280410   6.366   2.467  13.853  0.1737  0.0716  0.6571
19640TIP3    H180411   6.428   2.419  13.798 -0.9743  0.6129 -1.1685
19640TIP3    H280412   6.422   2.524  13.906  1.2751  0.3892 -0.7727
19641TIP3   OH280413   5.264   4.324   0.683 -0.3174  0.3006 -0.5217
19641TIP3    H180414   5.245   4.236   0.650  1.7211 -0.0210 -1.0226
19641TIP3    H280415   5.251   4.318   0.778  0.8278 -0.8948 -0.4048
19642TIP3   OH280416   0.629   0.920   2.989 -0.2885 -0.0706 -0.6816
19642TIP3    H180417   0.542   0.896   3.021  1.1252 -2.5643  1.6831
19642TIP3    H280418   0.659   0.844   2.939  1.0398  0.1983 -0.3314
19643TIP3   OH280419   5.453   2.773  17.030  0.4277 -0.4650 -0.5466
19643TIP3    H180420   5.544   2.780  17.004  0.7167  0.6198  0.6447
19643TIP3    H280421   5.404   2.767  16.948  1.4258  0.9155 -1.2754
19644TIP3   OH280422   2.881   5.259   5.879  0.2955 -0.0076  0.4049
19644TIP3    H180423   2.850   5.173   5.852 -3.0939  1.2563 -0.3000
19644TIP3    H280424   2.889   5.253   5.974 -0.3720 -0.9783  0.4175
19645TIP3   OH280425   6.495   5.388   1.236 -0.4202 -0.4402 -0.5048
19645TIP3    H180426   6.412   5.427   1.263 -0.2003 -0.0814 -0.3339
19645TIP3    H280427   6.560   5.427   1.294  0.5035  2.4518 -3.1808
19646TIP3   OH280428   0.271   1.022  11.638  0.4359  0.5434 -0.3701
19646TIP3    H180429   0.362   0.992  11.638  0.0102 -0.9901  1.6946
19646TIP3    H280430   0.266   1.083  11.712  0.0575  1.6059 -1.2549
19647TIP3   OH280431   5.512   3.107  11.069  0.7574  0.8055 -0.3943
19647TIP3    H180432   5.529   3.046  10.997  0.4796  0.3656 -0.0929
19647TIP3    H280433   5.514   3.193  11.029 -0.2136  0.5219 -1.0921
19648TIP3   OH280434   5.132   0.109   0.576 -0.3121  0.0193 -0.2435
19648TIP3    H180435   5.182   0.048   0.631 -0.1120  1.5281  1.3173
19648TIP3    H280436   5.055   0.059   0.548 -0.5828 -0.7017  1.7010
19649TIP3   OH280437   3.471   4.927   3.106 -0.0195  0.2183 -0.0335
19649TIP3    H180438   3.522   4.967   3.177  1.5401 -2.2281  0.3377
19649TIP3    H280439   3.396   4.888   3.150  0.8268 -1.0978  0.3033
19650TIP3   OH280440   5.975   2.917  11.281 -0.4080 -0.3118  0.5097
19650TIP3    H180441   6.011   2.986  11.337 -0.2389 -0.3272  0.4198
19650TIP3    H280442   5.940   2.963  11.205 -1.2420 -0.2241  0.9329
19651TIP3   OH280443   4.675   2.655   5.243  0.2380  0.2415 -0.1432
19651TIP3    H180444   4.615   2.621   5.178  1.3629  3.0389 -2.8565
19651TIP3    H280445   4.760   2.616   5.220  0.2348 -0.7061  1.2929
19652TIP3   OH280446   2.058   5.961   1.114  0.0516  0.0454  0.1526
19652TIP3    H180447   2.113   6.024   1.160  0.2474 -0.0231  0.0136
19652TIP3    H280448   2.117   5.889   1.091 -0.3473 -0.5989  1.0744
19653TIP3   OH280449   5.934   0.228  11.487 -0.2282 -0.9412 -0.3367
19653TIP3    H180450   6.003   0.231  11.420  0.7766 -1.3235  0.6548
19653TIP3    H280451   5.976   0.263  11.566 -1.6963  0.4864 -0.1335
19654TIP3   OH280452   3.311   0.775  11.839  0.0472  0.0545  0.0120
19654TIP3    H180453   3.360   0.837  11.893  0.2716 -0.8246  0.8353
19654TIP3    H280454   3.251   0.732  11.900 -0.2893 -0.3609 -0.6036
19655TIP3   OH280455   4.446   4.743  15.524 -0.2007 -0.0271 -0.0375
19655TIP3    H180456   4.541   4.734  15.522  0.1514  2.6481  0.7240
19655TIP3    H280457   4.428   4.792  15.604 -2.0928  0.7698 -0.8850
19656TIP3   OH280458   0.831   1.297  16.092  0.7054  0.6841 -0.7865
19656TIP3    H180459   0.803   1.341  16.172  1.9003  0.4274 -0.2001
19656TIP3    H280460   0.862   1.367  16.036  0.9743  0.7610 -0.5463
19657TIP3   OH280461   0.732   0.362   0.091 -0.3993 -0.6344  0.2131
19657TIP3    H180462   0.775   0.307   0.156 -0.8841 -1.8308 -0.4361
19657TIP3    H280463   0.671   0.303   0.047 -0.0446  0.1282 -1.3681
19658TIP3   OH280464   3.488   0.068   1.743  0.2352 -0.2873  0.1711
19658TIP3    H180465   3.462   0.017   1.820  0.4184  0.1611  0.5366
19658TIP3    H280466   3.583   0.075   1.750  0.2706 -0.4044 -0.1996
19659TIP3   OH280467   6.356   1.913  15.137 -0.1724  0.2604 -0.3777
19659TIP3    H180468   6.338   1.832  15.088  0.4201 -1.4753  2.0967
19659TIP3    H280469   6.381   1.883  15.224  0.0531  3.1620  0.6503
19660TIP3   OH280470   1.357   3.960  14.975  0.4119  0.4109 -0.4885
19660TIP3    H180471   1.337   3.984  15.066  2.4835 -1.3672  0.5274
19660TIP3    H280472   1.390   4.041  14.936 -0.2106  1.1280  0.4246
19661TIP3   OH280473   5.597   3.517   3.706 -0.0964  0.2736  0.1742
19661TIP3    H180474   5.559   3.542   3.621  1.2150 -3.5358 -1.7562
19661TIP3    H280475   5.675   3.572   3.714 -0.1327  0.5795 -1.2105
19662TIP3   OH280476   5.095   5.982   1.523  0.0605 -0.3948  0.1016
19662TIP3    H180477   5.119   5.983   1.615  0.0925  0.1975  0.0883
19662TIP3    H280478   5.124   6.066   1.489 -0.3907 -0.4062 -0.3347
19663TIP3   OH280479   0.903   5.728  13.364 -0.2986 -0.5087  0.1277
19663TIP3    H180480   0.887   5.741  13.458  0.0762 -0.0530  0.1301
19663TIP3    H280481   0.863   5.643  13.345  0.4962 -1.0896  0.9229
19664TIP3   OH280482   4.889   1.340  15.725 -0.0753 -0.1753  0.3457
19664TIP3    H180483   4.974   1.298  15.738  0.6022  0.9475 -0.2979
19664TIP3    H280484   4.844   1.286  15.661  0.6345 -0.1354 -0.1971
19665TIP3   OH280485   0.125   1.336  13.080 -0.9294  0.7661  0.1514
19665TIP3    H180486   0.041   1.364  13.117 -1.5862 -1.4089  0.4458
19665TIP3    H280487   0.102   1.278  13.008  0.3328  0.1662  0.1955
19666TIP3   OH280488   6.228   3.655  13.067  0.2388 -0.1836 -0.4622
19666TIP3    H180489   6.152   3.638  13.122 -0.4443 -1.1750 -1.6533
19666TIP3    H280490   6.299   3.674  13.129 -1.2311  2.0952  0.6492
19667TIP3   OH280491   4.905   0.155   2.863 -0.3650 -0.0142 -0.2390
19667TIP3    H180492   4.856   0.199   2.794 -0.8991  0.9957  0.7521
19667TIP3    H280493   4.984   0.122   2.819 -0.5407  0.8755 -1.2645
19668TIP3   OH280494   1.850   3.764  14.625  0.0930  0.2886  0.3616
19668TIP3    H180495   1.905   3.687  14.643 -0.7615  0.1049  2.4889
19668TIP3    H280496   1.912   3.833  14.602  1.0151 -0.5567  0.2458
19669TIP3   OH280497   0.277   5.523  16.010  0.1182 -0.1886 -0.2076
19669TIP3    H180498   0.226   5.524  16.091 -1.7651  0.7012 -1.3399
19669TIP3    H280499   0.256   5.439  15.970 -2.4062  1.0418 -1.7475
19670TIP3   OH280500   1.430   6.501   5.395  0.0266  0.2546 -0.1961
19670TIP3    H180501   1.482   6.569   5.353  1.1595  0.5595  1.6075
19670TIP3    H280502   1.346   6.503   5.349  1.2238  0.4601 -2.4834
19671TIP3   OH280503   6.678   6.219   4.640 -0.0791  0.1652 -0.1732
19671TIP3    H180504   6.584   6.228   4.655  0.2577  0.8053  1.9096
19671TIP3    H280505   6.685   6.176   4.555 -2.2383  0.3869 -0.5224
19672TIP3   OH280506   2.674   6.638  14.495  0.0248 -0.4578  0.5831
19672TIP3    H180507   2.602   6.627  14.432  0.2780 -1.0932  0.3989
19672TIP3    H280508   2.630   6.662  14.577 -0.2622  1.2636 -0.0167
19673TIP3   OH280509   5.234   1.748  12.880 -1.1925 -0.1186 -0.1561
19673TIP3    H180510   5.234   1.828  12.828 -1.3647 -0.2987 -0.4331
19673TIP3    H280511   5.307   1.696  12.846 -1.6189 -0.4560 -0.5566
19674TIP3   OH280512   1.164   2.864   3.249 -0.3354 -0.0438 -0.3738
19674TIP3    H180513   1.155   2.782   3.200  0.1794 -0.0039 -0.5376
19674TIP3    H280514   1.252   2.895   3.228 -0.4646  0.4652 -0.1792
19675TIP3   OH280515   1.153   5.987  10.398 -0.8539  0.2903 -0.0920
19675TIP3    H180516   1.076   5.962  10.449  0.8691 -0.4432  2.2993
19675TIP3    H280517   1.159   6.082  10.408  0.1226  0.0438  2.2125
19676TIP3   OH280518   1.441   2.085  11.496  0.0139 -0.4999  0.3531
19676TIP3    H180519   1.391   2.105  11.417  1.8051  0.1349 -0.6772
19676TIP3    H280520   1.379   2.039  11.552 -1.9758  0.9862 -0.4820
19677TIP3   OH280521   6.104   4.617  13.558  0.3278 -0.4973 -0.4723
19677TIP3    H180522   6.087   4.674  13.483  0.4787 -0.6577 -0.6287
19677TIP3    H280523   6.162   4.668  13.614 -1.2412  0.3666  0.4380
19678TIP3   OH280524   2.329   5.490  14.127  0.9132  0.1787  0.2594
19678TIP3    H180525   2.242   5.529  14.121  1.0702  0.9833  2.4051
19678TIP3    H280526   2.313   5.396  14.137  0.3976  0.1009 -1.0851
19679TIP3   OH280527   3.847   4.567  12.884  0.2379 -0.1038 -0.2790
19679TIP3    H180528   3.826   4.538  12.795 -1.9832  1.0345 -0.1770
19679TIP3    H280529   3.841   4.662  12.880  3.1517  0.2039  0.4263
19680TIP3   OH280530   3.629   2.750   3.801  0.5859 -0.2937 -0.4896
19680TIP3    H180531   3.587   2.801   3.870 -0.9573 -1.2855 -0.6367
19680TIP3    H280532   3.691   2.811   3.760  1.9516  0.1635  2.0557
19681TIP3   OH280533   1.699   1.122  15.237 -0.0268 -0.5422  0.3986
19681TIP3    H180534   1.780   1.121  15.186 -0.5000 -1.4146 -0.3590
19681TIP3    H280535   1.638   1.069  15.187 -0.8584 -0.4894  1.3185
19682TIP3   OH280536   2.277   0.908  17.093 -0.2611 -0.0145 -0.3534
19682TIP3    H180537   2.212   0.958  17.045 -1.6453 -0.5793  0.8714
19682TIP3    H280538   2.361   0.946  17.066 -1.1806  2.0507 -0.4673
19683TIP3   OH280539   0.795   2.498  12.066  0.4250 -0.0993 -0.0808
19683TIP3    H180540   0.861   2.505  11.997 -0.3979  0.4187 -0.8455
19683TIP3    H280541   0.812   2.414  12.108  2.1017  0.4016  0.3046
19684TIP3   OH280542   3.457   4.421  15.579 -0.3052 -0.3327  0.5192
19684TIP3    H180543   3.459   4.495  15.640  0.6398 -0.6839  0.9434
19684TIP3    H280544   3.527   4.363  15.610 -0.7386 -1.1933 -0.0705
19685TIP3   OH280545   0.039   0.975  15.431 -0.6161 -0.2907  0.5011
19685TIP3    H180546   0.016   0.921  15.356  0.2773 -1.9478  1.3607
19685TIP3    H280547   0.114   0.931  15.470  0.8796  2.1967  0.6419
19686TIP3   OH280548   4.947   5.038  12.006 -0.6279  0.4686  0.3447
19686TIP3    H180549   4.921   4.963  11.952 -0.1513  0.4682  0.1110
19686TIP3    H280550   4.864   5.077  12.034 -0.8983  1.0094 -1.1376
19687TIP3   OH280551   1.266   6.570   2.783  0.3529  0.0161  0.4637
19687TIP3    H180552   1.263   6.490   2.731 -0.5947 -0.3342  1.0342
19687TIP3    H280553   1.180   6.610   2.771  1.4059  1.9374 -1.2875
19688TIP3   OH280554   1.914   6.002  14.458  0.1950  0.2470  0.5172
19688TIP3    H180555   1.924   5.907  14.450  0.2637  0.1629  1.5238
19688TIP3    H280556   1.821   6.018  14.439 -0.4146 -0.3273  2.7029
19689TIP3   OH280557   5.961   6.604  13.739 -0.1312  0.2252 -0.1991
19689TIP3    H180558   5.948   6.635  13.649 -1.8473 -1.3626 -0.5505
19689TIP3    H280559   5.958   6.509  13.732  1.0916  0.0332  1.3837
19690TIP3   OH280560   1.556   5.267   5.829 -0.0615  0.4224  0.0020
19690TIP3    H180561   1.633   5.210   5.821 -0.0724  0.4649 -0.4688
19690TIP3    H280562   1.592   5.353   5.851  0.0295  0.4386 -0.2040
19691TIP3   OH280563   0.543   5.521   5.671 -0.4623 -0.3049 -0.0321
19691TIP3    H180564   0.500   5.464   5.734  0.0236 -1.0787 -0.3791
19691TIP3    H280565   0.472   5.568   5.628 -0.7464  0.8768  1.6705
19692TIP3   OH280566   1.055   1.454   2.890  0.1105 -0.1728  0.3010
19692TIP3    H180567   1.006   1.478   2.968 -0.1201  1.7132 -0.3641
19692TIP3    H280568   1.143   1.489   2.905  0.2863 -0.4878  0.0353
19693TIP3   OH280569   0.367   5.968   4.049  0.7636  0.0567  0.2255
19693TIP3    H180570   0.341   5.925   4.130  0.6596 -1.1705 -0.4222
19693TIP3    H280571   0.344   5.905   3.980  0.4157  1.2535 -0.8003
19694TIP3   OH280572   5.905   5.767   4.117 -0.1898 -0.5416  0.2631
19694TIP3    H180573   5.920   5.850   4.164  2.7056 -0.2965 -0.8732
19694TIP3    H280574   5.879   5.794   4.029  1.3999 -0.7598 -0.3049
19695TIP3   OH280575   1.402   0.125  13.312  0.0860  0.2802 -0.2737
19695TIP3    H180576   1.373   0.216  13.306 -0.8386  0.0933  1.1116
19695TIP3    H280577   1.438   0.106  13.225  1.6809  2.4089 -0.1633
19696TIP3   OH280578   2.283   5.504  12.199 -0.0077  0.1735  0.1758
19696TIP3    H180579   2.224   5.444  12.154 -0.0786 -0.3923  0.9955
19696TIP3    H280580   2.240   5.589  12.195 -0.1285  0.0864 -0.5867
19697TIP3   OH280581   3.185   3.772   2.042 -0.0947 -0.0003 -0.0967
19697TIP3    H180582   3.154   3.728   2.121 -1.1580  1.5264  0.3745
19697TIP3    H280583   3.271   3.806   2.066 -0.2135  0.0595  0.2487
19698TIP3   OH280584   3.161   3.019   5.228 -0.0929 -0.1720  0.3172
19698TIP3    H180585   3.223   2.958   5.188 -1.0142 -0.3229 -0.9263
19698TIP3    H280586   3.178   3.012   5.322 -0.7555 -3.0119  0.2969
19699TIP3   OH280587   2.299   2.436  15.867  0.0659 -0.3776  0.7332
19699TIP3    H180588   2.300   2.509  15.806  1.2301 -0.0831  1.0809
19699TIP3    H280589   2.234   2.375  15.831 -0.0583  0.2876 -0.1898
19700TIP3   OH280590   1.957   6.835   2.078 -0.7465  0.0146  0.0708
19700TIP3    H180591   1.925   6.865   2.163  1.1986  1.9963  0.2068
19700TIP3    H280592   1.999   6.912   2.040  1.6465 -1.7349 -1.0873
19701TIP3   OH280593   1.692   6.542  11.626  0.2938 -0.2279 -0.3842
19701TIP3    H180594   1.738   6.461  11.604 -0.1551 -0.8135  0.7440
19701TIP3    H280595   1.696   6.547  11.722  0.4265  1.1637 -0.4350
19702TIP3   OH280596   0.820   3.569   1.891 -0.0130  0.4229 -0.2197
19702TIP3    H180597   0.852   3.478   1.893  0.2670  0.4791  2.8944
19702TIP3    H280598   0.725   3.561   1.902 -0.0006  0.5104 -0.0526
19703TIP3   OH280599   2.752   5.460  13.997 -0.5686 -0.1999 -0.5058
19703TIP3    H180600   2.730   5.553  13.998  0.4981  0.0783  1.1779
19703TIP3    H280601   2.812   5.449  14.070 -0.1876 -2.1127 -1.0564
19704TIP3   OH280602   2.583   5.060  11.473  0.5065 -0.1527 -0.0944
19704TIP3    H180603   2.530   4.992  11.433  0.4932  0.5268 -1.2694
19704TIP3    H280604   2.549   5.068  11.562  0.3152 -1.4491 -0.0354
19705TIP3   OH280605   4.457   1.561  14.534  0.4637  0.3920  1.0713
19705TIP3    H180606   4.418   1.493  14.480  0.3427  1.7046 -0.5813
19705TIP3    H280607   4.499   1.514  14.606 -0.9838 -1.2902  0.8637
19706TIP3   OH280608   0.126   0.617   1.476 -0.3266 -0.4487 -0.1219
19706TIP3    H180609   0.129   0.545   1.539 -3.5307  0.3215  1.0466
19706TIP3    H280610   0.170   0.690   1.520 -1.6396 -0.2177  0.8549
19707TIP3   OH280611   1.881   2.854  15.265  0.2598  0.6298  0.6578
19707TIP3    H180612   1.901   2.785  15.202  0.9672  0.5788  0.9319
19707TIP3    H280613   1.896   2.813  15.350 -2.2257  0.1758  0.9639
19708TIP3   OH280614   6.502   0.845  16.787 -0.0701  0.1001  0.0250
19708TIP3    H180615   6.419   0.869  16.746 -1.0481 -0.7845  1.4006
19708TIP3    H280616   6.566   0.903  16.746 -1.8837  3.3844  1.4659
19709TIP3   OH280617   2.739   4.513   2.992  0.4688  0.2318  0.1207
19709TIP3    H180618   2.759   4.531   3.084 -2.3165  2.1581  0.4535
19709TIP3    H280619   2.718   4.419   2.990  1.5003 -0.0526  1.2248
19710TIP3   OH280620   4.548   4.310   3.494 -0.0551  0.4890 -0.2942
19710TIP3    H180621   4.588   4.348   3.416 -0.9024 -0.5421 -1.2564
19710TIP3    H280622   4.470   4.265   3.462 -0.6351  0.3625  1.2007
19711TIP3   OH280623   2.583   3.596   4.879 -1.0750 -0.3389 -0.2729
19711TIP3    H180624   2.641   3.529   4.844  0.1997  0.9211 -0.6964
19711TIP3    H280625   2.507   3.596   4.821 -0.4993 -0.5363 -1.0336
19712TIP3   OH280626   4.571   4.816  13.250  0.0865 -0.3306  0.5329
19712TIP3    H180627   4.531   4.729  13.256  2.1513 -1.3541  0.5473
19712TIP3    H280628   4.528   4.867  13.319 -1.4307 -1.2088  0.2852
19713TIP3   OH280629   5.277   4.287  16.183 -0.7460  0.1316  0.2055
19713TIP3    H180630   5.348   4.268  16.121 -0.7984  1.3824 -0.2790
19713TIP3    H280631   5.322   4.324  16.260 -0.8716  1.3037 -0.2606
19714TIP3   OH280632   1.589   4.596  13.237  0.8832  0.1486 -0.6772
19714TIP3    H180633   1.617   4.580  13.147  2.0412  0.2098 -0.3551
19714TIP3    H280634   1.507   4.548  13.247  0.5344  0.4706 -1.8766
19715TIP3   OH280635   2.956   6.040  14.066 -0.0326 -0.3539 -0.4806
19715TIP3    H180636   3.001   5.977  14.010  0.0954 -1.4754  0.8428
19715TIP3    H280637   2.879   5.993  14.098  0.2487  0.0090  0.8096
19716TIP3   OH280638   5.815   5.384  14.109  0.3529  0.0343  0.0968
19716TIP3    H180639   5.819   5.449  14.180 -0.2461  0.3123 -0.1194
19716TIP3    H280640   5.800   5.301  14.154 -0.4881  0.2756  0.2728
19717TIP3   OH280641   3.243   5.227  13.347 -0.1584  0.1494 -0.2738
19717TIP3    H180642   3.222   5.135  13.327  1.1690 -0.3343  0.4182
19717TIP3    H280643   3.186   5.249  13.421  0.3463 -0.5115  0.3264
19718TIP3   OH280644   6.503   1.957  14.805 -0.1562 -0.3035  0.0177
19718TIP3    H180645   6.557   2.006  14.867 -0.5690  1.3764 -0.9018
19718TIP3    H280646   6.445   2.022  14.766 -2.5783 -1.9589  0.6253
19719TIP3   OH280647   6.361   5.374   2.432  0.7987  0.6736 -0.1880
19719TIP3    H180648   6.363   5.286   2.470 -0.2816  0.6003 -0.2542
19719TIP3    H280649   6.314   5.427   2.497  0.6167  0.9793 -0.5657
19720TIP3   OH280650   3.537   5.015   3.358 -0.3876  0.6494 -0.3166
19720TIP3    H180651   3.494   4.950   3.412  1.3137 -0.8209 -0.6166
19720TIP3    H280652   3.565   5.083   3.419 -1.7081  0.8455  0.0823
19721TIP3   OH280653   5.910   2.161   2.627  0.0695 -0.2228 -0.2497
19721TIP3    H180654   5.891   2.155   2.720 -0.4599  0.1747 -0.3252
19721TIP3    H280655   5.842   2.107   2.585  0.9198 -1.2465 -0.3516
19722TIP3   OH280656   5.855   1.409  14.823  0.4244 -0.0817  0.0569
19722TIP3    H180657   5.855   1.402  14.727  0.3910 -1.3869  0.1370
19722TIP3    H280658   5.858   1.503  14.839 -1.4646  0.2597 -1.2340
19723TIP3   OH280659   1.310   5.575   4.339 -0.3536  0.2086  0.4408
19723TIP3    H180660   1.233   5.631   4.342 -1.6820 -1.5548  0.5390
19723TIP3    H280661   1.360   5.606   4.263 -2.3319 -0.0916 -1.0463
19724TIP3   OH280662   5.183   1.709   5.302  0.3256  0.7021 -0.6204
19724TIP3    H180663   5.205   1.729   5.393 -1.0554 -2.5750  0.5860
19724TIP3    H280664   5.109   1.767   5.282  0.6716  1.4885  0.3027
19725TIP3   OH280665   0.357   2.098   3.854 -0.5468  0.1254 -0.2419
19725TIP3    H180666   0.346   2.177   3.907  0.1655  0.2455 -0.2651
19725TIP3    H280667   0.377   2.029   3.916  0.1823  0.2447 -0.3334
19726TIP3   OH280668   6.574   6.600  13.892 -0.1085 -0.0499 -0.1326
19726TIP3    H180669   6.507   6.615  13.958 -0.6787  0.7125 -0.8599
19726TIP3    H280670   6.536   6.536  13.832  0.2300 -0.4047  0.0266
19727TIP3   OH280671   1.879   2.644  16.882  0.3832  0.2789  0.7372
19727TIP3    H180672   1.853   2.575  16.942 -1.3484  2.0886  2.2402
19727TIP3    H280673   1.818   2.635  16.808  0.3134  0.0460  0.8218
19728TIP3   OH280674   4.536   2.254  10.882 -0.0739  0.1298 -0.0375
19728TIP3    H180675   4.552   2.219  10.794 -1.3072  0.5103 -0.4339
19728TIP3    H280676   4.589   2.199  10.940  0.8627 -0.0416 -1.0234
19729TIP3   OH280677   3.255   2.167  13.783 -0.9198 -0.2455 -0.2598
19729TIP3    H180678   3.300   2.242  13.743  0.1253 -0.4870  0.4544
19729TIP3    H280679   3.224   2.116  13.708 -1.4927  0.7874 -0.7602
19730TIP3   OH280680   4.997   6.607  12.350  0.3513 -0.1952  0.6378
19730TIP3    H180681   5.009   6.544  12.421  1.5669 -1.2185 -0.4248
19730TIP3    H280682   5.083   6.613  12.309 -0.3980  0.1320 -0.9596
19731TIP3   OH280683   1.676   5.561  16.717 -0.1311  0.0427 -0.5244
19731TIP3    H180684   1.745   5.627  16.705 -0.7230  0.9658  0.8762
19731TIP3    H280685   1.616   5.575  16.644 -0.4165  1.3167 -0.0817
19732TIP3   OH280686   6.734   2.373  14.436  0.1141 -0.0768 -0.0647
19732TIP3    H180687   6.664   2.432  14.410  0.9521  0.9191 -0.0848
19732TIP3    H280688   6.693   2.286  14.437 -1.0067  0.4382 -0.4730
19733TIP3   OH280689   6.493   3.197   3.328  0.3161 -0.2347 -0.7234
19733TIP3    H180690   6.439   3.118   3.321  0.0993 -0.0853 -0.7431
19733TIP3    H280691   6.433   3.269   3.305  0.1929  0.0538  0.4677
19734TIP3   OH280692   5.117   3.891  13.200  0.5324 -0.3288  0.2785
19734TIP3    H180693   5.136   3.848  13.284 -1.0435  2.0347  1.9837
19734TIP3    H280694   5.176   3.967  13.198  0.6815 -0.4591 -0.8639
19735TIP3   OH280695   3.201   3.466   2.358 -0.3239  0.3407  0.4606
19735TIP3    H180696   3.156   3.547   2.336 -1.7089 -0.9153 -1.8683
19735TIP3    H280697   3.265   3.454   2.287 -2.6280 -2.2534 -1.4316
19736TIP3   OH280698   3.593   4.359  16.354  0.3265  0.1010  0.0581
19736TIP3    H180699   3.603   4.333  16.445  1.0066 -0.4694 -0.1724
19736TIP3    H280700   3.541   4.439  16.357 -0.1586 -0.2438  0.9038
19737TIP3   OH280701   0.329   5.366   1.366  0.3639  0.1587 -0.2012
19737TIP3    H180702   0.272   5.303   1.323  0.2784  0.9911 -1.3505
19737TIP3    H280703   0.391   5.393   1.298  0.9649  0.6454  0.5163
19738TIP3   OH280704   3.487   1.424   0.219 -0.3851 -0.0759  0.1070
19738TIP3    H180705   3.429   1.451   0.290 -0.5306  0.0444 -0.0588
19738TIP3    H280706   3.440   1.446   0.139  0.7058  1.8527 -0.0712
19739TIP3   OH280707   0.117   5.820  14.962 -0.1032 -0.1729  0.0050
19739TIP3    H180708   0.112   5.738  15.012 -1.2283  0.0542  0.2786
19739TIP3    H280709   0.195   5.863  14.995  0.7206 -1.2935 -0.4026
19740TIP3   OH280710   3.586   3.070  13.066  0.6703 -0.4884  0.3385
19740TIP3    H180711   3.651   3.020  13.017  0.6347  0.2746 -0.5053
19740TIP3    H280712   3.511   3.011  13.074  1.0016 -0.9286  0.2355
19741TIP3   OH280713   5.347   2.095   1.462  0.1063  0.1352  0.0235
19741TIP3    H180714   5.275   2.037   1.488 -1.6258  2.1772  0.0662
19741TIP3    H280715   5.406   2.093   1.537 -1.1897  0.3458  1.0916
19742TIP3   OH280716   2.914   1.826  15.023  0.1230  0.0451 -0.0220
19742TIP3    H180717   3.002   1.789  15.029 -0.1089 -0.5858 -0.3511
19742TIP3    H280718   2.913   1.898  15.086  1.3045  0.9400 -0.9887
19743TIP3   OH280719   6.736   2.479  11.284  0.3882 -0.1639  0.0932
19743TIP3    H180720   6.759   2.527  11.204  0.7514  0.2806  0.4572
19743TIP3    H280721   6.784   2.524  11.353  0.5882 -0.9440  0.4704
19744TIP3   OH280722   5.667   1.167   1.039 -0.0765 -0.2759  0.3124
19744TIP3    H180723   5.705   1.209   1.116  0.6223  0.2564 -0.3108
19744TIP3    H280724   5.733   1.103   1.011 -0.6655 -1.0366  0.6108
19745TIP3   OH280725   6.578   0.109  15.351  0.1308  0.2274 -0.1890
19745TIP3    H180726   6.668   0.136  15.369  0.7304 -2.1966  0.7501
19745TIP3    H280727   6.546   0.073  15.434 -0.8936 -1.0210 -1.0858
19746TIP3   OH280728   2.264   3.969  15.753 -0.1720 -0.4109 -0.3484
19746TIP3    H180729   2.265   4.037  15.820 -0.0830  0.6488 -1.4020
19746TIP3    H280730   2.241   3.889  15.801  0.5001  0.1989  1.0363
19747TIP3   OH280731   0.283   0.975   2.294 -0.1570 -0.0475 -0.3027
19747TIP3    H180732   0.207   1.033   2.305 -1.3066 -1.6453  0.6489
19747TIP3    H280733   0.278   0.915   2.368 -0.2576 -2.6925 -2.2802
19748TIP3   OH280734   5.873   2.061   5.316  0.3294 -0.4084  0.9721
19748TIP3    H180735   5.856   2.049   5.410  0.0394 -0.5503  0.9016
19748TIP3    H280736   5.786   2.066   5.276  0.4505 -1.2589  0.5958
19749TIP3   OH280737   4.645   5.112   0.299  0.0693 -0.4400 -0.4838
19749TIP3    H180738   4.640   5.044   0.232  0.3731 -0.5481 -0.4018
19749TIP3    H280739   4.649   5.194   0.250 -2.0300 -0.3366 -0.5650
19750TIP3   OH280740   1.701   0.294  10.637  0.3548 -0.7825 -0.0101
19750TIP3    H180741   1.781   0.241  10.635  1.4057  0.7025  0.4441
19750TIP3    H280742   1.716   0.362  10.571 -0.7249 -0.7243 -0.2109
19751TIP3   OH280743   0.871   4.536   1.162 -0.0383  0.0556  0.5471
19751TIP3    H180744   0.807   4.599   1.196 -0.5213  0.6607 -1.3483
19751TIP3    H280745   0.954   4.584   1.162  0.4009 -0.6243  2.7074
19752TIP3   OH280746   6.425   1.567   4.353  0.4910 -0.0551  0.1209
19752TIP3    H180747   6.481   1.582   4.277 -0.5106  0.7045 -0.4938
19752TIP3    H280748   6.477   1.511   4.410  1.1845 -0.8323 -1.2195
19753TIP3   OH280749   5.527   2.088  15.465  0.2900 -0.5433 -0.2400
19753TIP3    H180750   5.557   2.053  15.549 -0.2347 -1.6694 -0.4996
19753TIP3    H280751   5.432   2.078  15.467  0.0886  1.0962 -0.2551
19754TIP3   OH280752   0.767   2.476   2.701  0.6719  0.0625  0.3156
19754TIP3    H180753   0.798   2.462   2.611  0.8739 -1.5493  0.6149
19754TIP3    H280754   0.741   2.568   2.702  1.8894  0.4719 -1.0188
19755TIP3   OH280755   0.959   2.988   3.367  0.0074  0.2192  0.2624
19755TIP3    H180756   0.889   2.929   3.395  0.4354 -0.0317  0.8236
19755TIP3    H280757   1.014   2.934   3.310 -0.1220  0.3452  0.0193
19756TIP3   OH280758   0.276   4.515   1.553 -0.0379 -0.8256 -0.5377
19756TIP3    H180759   0.316   4.440   1.597  0.7137 -0.5449 -0.7257
19756TIP3    H280760   0.222   4.476   1.485  1.1100 -1.1952 -1.2774
19757TIP3   OH280761   1.684   0.342  13.034 -0.4304  0.3005 -0.0543
19757TIP3    H180762   1.612   0.309  12.980  0.1655 -0.1802 -0.5620
19757TIP3    H280763   1.750   0.273  13.032 -0.0138  0.6691  0.5424
19758TIP3   OH280764   0.333   4.068   0.716 -0.1956 -0.2374 -0.3275
19758TIP3    H180765   0.322   4.068   0.621  0.7575 -0.3589 -0.4480
19758TIP3    H280766   0.379   3.986   0.734  0.7102  0.3536  0.1036
19759TIP3   OH280767   4.214   4.686  10.909 -0.3405 -0.0119  0.1215
19759TIP3    H180768   4.254   4.722  10.829 -0.3286  0.3566  0.2929
19759TIP3    H280769   4.121   4.708  10.902 -0.2498  0.5054  0.4665
19760TIP3   OH280770   4.470   6.426  12.419  0.0803  0.1487  0.2038
19760TIP3    H180771   4.477   6.520  12.405  0.8642  0.0819  0.0842
19760TIP3    H280772   4.514   6.411  12.503  2.7558 -0.4740 -1.2133
19761TIP3   OH280773   3.100   5.395  16.429 -0.6269  0.4698  0.1680
19761TIP3    H180774   3.107   5.419  16.337 -0.5019  2.6648  0.7017
19761TIP3    H280775   3.087   5.478  16.475  1.0116 -0.3694  2.3065
19762TIP3   OH280776   6.031   6.341   4.606  0.1898  0.1721  0.2352
19762TIP3    H180777   6.061   6.317   4.518 -0.9557 -0.5530  0.0164
19762TIP3    H280778   5.989   6.261   4.639 -4.0957  1.7722 -0.6325
19763TIP3   OH280779   5.693   2.123  13.783  0.0861  0.0635  0.7877
19763TIP3    H180780   5.620   2.160  13.733  0.8849 -0.8976 -1.2280
19763TIP3    H280781   5.712   2.189  13.850 -0.8866  1.5861 -0.3587
19764TIP3   OH280782   2.229   4.564   6.288 -0.1418  0.3664 -0.4037
19764TIP3    H180783   2.179   4.490   6.323 -0.6131  0.3518 -1.0949
19764TIP3    H280784   2.163   4.629   6.267  0.0299 -0.0114 -2.2090
19765TIP3   OH280785   6.301   0.174   3.420 -0.1371  0.1569 -0.3479
19765TIP3    H180786   6.283   0.243   3.484  1.3153 -0.5369  0.8661
19765TIP3    H280787   6.299   0.093   3.471 -0.3086 -0.5610 -1.4663
19766TIP3   OH280788   1.135   0.145   5.028 -0.4699  0.3367 -0.2107
19766TIP3    H180789   1.065   0.102   4.979 -1.2403  0.8250  0.4417
19766TIP3    H280790   1.214   0.127   4.977 -0.5132 -2.9369  0.6454
19767TIP3   OH280791   2.824   4.571   2.006 -0.7044 -0.4189  0.3631
19767TIP3    H180792   2.743   4.568   2.057 -0.9077 -0.7722  0.0276
19767TIP3    H280793   2.893   4.565   2.071 -0.9662 -1.0805  0.5880
19768TIP3   OH280794   0.536   0.224  11.872 -0.0670  0.1900 -0.1141
19768TIP3    H180795   0.590   0.189  11.801 -0.0576 -0.0283  0.0020
19768TIP3    H280796   0.559   0.317  11.875  3.3628 -0.5213  2.5651
19769TIP3   OH280797   1.345   6.714   5.657  0.1179  0.7408  0.0259
19769TIP3    H180798   1.323   6.778   5.589 -1.4645  1.0628  0.7872
19769TIP3    H280799   1.376   6.767   5.730 -2.4995  0.8660  1.1708
19770TIP3   OH280800   0.300   4.698  16.483  0.4163  0.1200 -0.2447
19770TIP3    H180801   0.229   4.738  16.534  0.4241 -0.1398 -0.0302
19770TIP3    H280802   0.308   4.610  16.518  0.6405  0.0459 -0.4786
19771TIP3   OH280803   6.765   1.344  12.213  0.3487  0.3196 -0.3985
19771TIP3    H180804   6.701   1.415  12.217  0.5325  0.4408  1.3611
19771TIP3    H280805   6.742   1.295  12.135 -1.5505  0.6767 -0.1174
19772TIP3   OH280806   2.968   2.384  10.557 -0.6869  0.0408  0.2701
19772TIP3    H180807   2.960   2.350  10.467  1.5317  0.8484 -0.3156
19772TIP3    H280808   3.035   2.328  10.597  0.1156  1.1795  0.5818
19773TIP3   OH280809   5.288   0.297  16.638  0.0114 -0.4206  0.0738
19773TIP3    H180810   5.353   0.233  16.669 -1.1479 -1.1180  1.1806
19773TIP3    H280811   5.337   0.379  16.630  0.7172 -0.5058  2.5523
19774TIP3   OH280812   0.941   2.581  13.628 -0.5614  0.0842 -0.0851
19774TIP3    H180813   0.995   2.649  13.590 -0.6095  0.7354  0.9809
19774TIP3    H280814   1.002   2.510  13.648 -0.2974  0.3229 -0.0362
19775TIP3   OH280815   6.424   1.760   2.417 -0.2648 -0.2401  0.1476
19775TIP3    H180816   6.439   1.696   2.486 -0.3819 -0.2043  0.2080
19775TIP3    H280817   6.405   1.841   2.464  1.2205  0.1649  0.0648
19776TIP3   OH280818   0.141   0.791  13.361  0.6640  0.2161 -0.7919
19776TIP3    H180819   0.135   0.703  13.323  0.3213  0.1361 -0.5559
19776TIP3    H280820   0.078   0.843  13.311 -1.1704 -0.3248  0.8571
19777TIP3   OH280821   0.081   3.138  14.824 -0.0417  0.4223  0.3536
19777TIP3    H180822   0.088   3.181  14.738 -0.1109 -0.4534 -0.1028
19777TIP3    H280823   0.047   3.206  14.882  0.4687  1.1771 -0.1959
19778TIP3   OH280824   1.516   6.476  12.645 -0.1612  0.3930 -0.4959
19778TIP3    H180825   1.519   6.441  12.733 -0.1831  2.1896  0.2586
19778TIP3    H280826   1.583   6.545  12.643 -2.4475  2.8009 -0.7048
19779TIP3   OH280827   1.163   4.355   4.037  0.6084 -0.3710  0.5522
19779TIP3    H180828   1.130   4.350   4.127 -1.2516 -1.8177 -0.1223
19779TIP3    H280829   1.228   4.425   4.038  0.3967 -0.1389  2.9368
19780TIP3   OH280830   4.458   1.917   5.185 -0.3859 -0.2138 -0.0162
19780TIP3    H180831   4.429   1.927   5.276 -1.7193 -1.1992 -0.3047
19780TIP3    H280832   4.527   1.983   5.174  1.2020 -1.3895  2.2676
19781TIP3   OH280833   5.519   4.724  14.658 -0.0702  0.2094 -0.2714
19781TIP3    H180834   5.474   4.695  14.579  1.2009 -0.6718 -0.7043
19781TIP3    H280835   5.543   4.643  14.703  1.2337  0.6368 -0.1631
19782TIP3   OH280836   5.648   4.254   2.496  0.1681 -0.3134  0.6716
19782TIP3    H180837   5.727   4.251   2.442  0.2577  1.0520  0.6839
19782TIP3    H280838   5.576   4.252   2.434  0.2373 -0.6034  0.6030
19783TIP3   OH280839   6.016   3.751   2.011 -0.2155  0.0997 -0.1112
19783TIP3    H180840   5.946   3.688   1.991 -1.2591  1.7599 -2.0684
19783TIP3    H280841   6.059   3.765   1.927  2.0865 -0.3535  0.9260
19784TIP3   OH280842   2.933   4.873   2.331 -0.0355 -0.2367  0.3035
19784TIP3    H180843   2.850   4.916   2.312 -0.0006 -0.0055  0.6524
19784TIP3    H280844   2.941   4.805   2.265  0.4791  1.0448 -1.0087
19785TIP3   OH280845   0.119   3.298  13.270  0.3596  0.3630 -0.0693
19785TIP3    H180846   0.116   3.324  13.362  1.4354  0.0867  0.0616
19785TIP3    H280847   0.097   3.377  13.222  2.7488  1.3618  0.3453
19786TIP3   OH280848   0.545   1.296  11.427 -0.2427  0.2482  0.6539
19786TIP3    H180849   0.641   1.292  11.432 -0.2147  0.3537  0.2281
19786TIP3    H280850   0.519   1.348  11.504 -0.0570 -0.9601  1.5538
19787TIP3   OH280851   5.621   1.550  14.462  0.4247 -0.1404 -0.0856
19787TIP3    H180852   5.692   1.504  14.506 -0.5185 -1.4849  0.0707
19787TIP3    H280853   5.642   1.643  14.474  1.8463 -0.5052  0.4331
19788TIP3   OH280854   1.321   4.425   6.429  0.0460 -0.0484 -0.2252
19788TIP3    H180855   1.378   4.369   6.481  1.1075  1.5004  0.3395
19788TIP3    H280856   1.322   4.510   6.474 -1.8424  0.3333 -0.8134
19789TIP3   OH280857   4.377   4.564  13.264 -0.2888 -0.5027  0.4368
19789TIP3    H180858   4.341   4.559  13.353 -1.5571 -2.9868 -0.1091
19789TIP3    H280859   4.308   4.604  13.212 -1.0886 -2.3816 -0.0330
19790TIP3   OH280860   3.139   3.144  11.986  0.2424 -0.0536  0.6283
19790TIP3    H180861   3.054   3.164  11.947 -0.6112 -0.0781  2.3559
19790TIP3    H280862   3.201   3.148  11.913 -1.2718 -0.3234 -0.7303
19791TIP3   OH280863   5.602   5.348   0.469  0.5015  0.6364 -0.5771
19791TIP3    H180864   5.595   5.400   0.549 -0.9115 -1.4707  0.7556
19791TIP3    H280865   5.568   5.405   0.400  2.9083  2.9739 -0.0156
19792TIP3   OH280866   4.897   1.291   1.213  0.1222 -0.4168 -0.6070
19792TIP3    H180867   4.859   1.310   1.298 -1.9745  0.4263 -1.6696
19792TIP3    H280868   4.959   1.363   1.198  1.9246 -1.5467  0.9248
19793TIP3   OH280869   5.437   5.260  15.081  0.1481  0.5670 -0.2935
19793TIP3    H180870   5.511   5.303  15.036 -0.2022  2.2754  0.6467
19793TIP3    H280871   5.388   5.333  15.120 -1.3804 -0.6240  0.1009
19794TIP3   OH280872   3.179   2.606  14.277 -0.2394 -0.4663  0.5785
19794TIP3    H180873   3.201   2.514  14.261 -1.7320 -0.5940 -0.9911
19794TIP3    H280874   3.205   2.651  14.198  0.9719  0.6023  1.5419
19795TIP3   OH280875   0.352   4.325  14.609 -0.1936 -0.5009  0.1849
19795TIP3    H180876   0.289   4.386  14.570 -0.6721 -0.8958  0.3292
19795TIP3    H280877   0.435   4.345  14.565 -0.6245 -0.6481 -0.7349
19796TIP3   OH280878   1.618   2.674  16.743 -0.4276 -0.4011  0.1496
19796TIP3    H180879   1.606   2.613  16.815 -1.5256  0.5741  0.8244
19796TIP3    H280880   1.579   2.756  16.774  1.5490  0.8429 -0.4768
19797TIP3   OH280881   3.537   5.636  11.398  0.3146  1.0312 -0.3406
19797TIP3    H180882   3.530   5.580  11.476 -1.3524  1.7812  0.1031
19797TIP3    H280883   3.531   5.575  11.324 -0.4820  0.5023  0.1414
19798TIP3   OH280884   0.581   5.132   0.218 -0.1297  0.2718  0.3725
19798TIP3    H180885   0.496   5.127   0.260  0.8323 -1.9714  2.2431
19798TIP3    H280886   0.575   5.073   0.143  0.2642 -1.3301  1.5533
19799TIP3   OH280887   4.145   3.772  11.076  0.1432  0.1079 -0.1891
19799TIP3    H180888   4.090   3.848  11.096  0.3317 -0.0085  0.8157
19799TIP3    H280889   4.147   3.769  10.981  1.0056  2.0027 -0.2763
19800TIP3   OH280890   3.972   2.881   3.907  0.2488 -0.1028  0.0439
19800TIP3    H180891   4.018   2.900   3.989 -0.0493  1.7545 -0.1691
19800TIP3    H280892   3.943   2.790   3.916  2.5435 -0.8301  0.8502
19801TIP3   OH280893   5.685   3.870   4.955  0.1199  0.2780  0.3177
19801TIP3    H180894   5.678   3.881   4.861 -0.2566  1.7142  0.4846
19801TIP3    H280895   5.722   3.783   4.967  2.2105  0.8789 -1.2182
19802TIP3   OH280896   2.137   1.889   4.841 -0.2824  0.1980 -0.0851
19802TIP3    H180897   2.144   1.905   4.747 -0.2893  0.1636 -0.0913
19802TIP3    H280898   2.208   1.940   4.879  0.5862 -0.8444 -0.2268
19803TIP3   OH280899   0.963   3.226  15.412  0.5422 -0.2424  0.0281
19803TIP3    H180900   0.977   3.170  15.489  1.1503 -0.2238 -0.0621
19803TIP3    H280901   0.901   3.177  15.358 -0.4395  0.0614  0.8516
19804TIP3   OH280902   1.882   2.094  13.730 -0.3167 -0.1514 -0.4524
19804TIP3    H180903   1.960   2.087  13.674 -0.4539  1.3164 -0.8553
19804TIP3    H280904   1.824   2.153  13.683 -0.1646  1.6980  1.5490
19805TIP3   OH280905   2.905   2.022   0.519 -0.0246  0.0585 -0.8509
19805TIP3    H180906   2.924   2.048   0.428 -0.8951  3.1370 -0.2717
19805TIP3    H280907   2.910   2.103   0.568 -2.8254 -0.9284  1.3192
19806TIP3   OH280908   6.187   1.187   0.519  0.0261 -0.5234  0.3533
19806TIP3    H180909   6.225   1.187   0.607  1.9703 -2.2832 -0.4047
19806TIP3    H280910   6.262   1.184   0.460 -1.2493 -0.5496 -1.3431
19807TIP3   OH280911   1.077   5.488  11.253  0.3929  0.0309 -0.2410
19807TIP3    H180912   1.076   5.486  11.157  1.1296 -0.2908 -0.2428
19807TIP3    H280913   1.100   5.399  11.279 -0.9555 -0.2080  0.2672
19808TIP3   OH280914   0.852   2.404  16.210  0.6883  0.2596  0.1713
19808TIP3    H180915   0.853   2.329  16.270 -1.1550 -1.7746 -2.1527
19808TIP3    H280916   0.858   2.480  16.268 -0.4537 -1.5637  2.9073
19809TIP3   OH280917   1.099   6.664   3.744  0.3604 -0.2737  0.3075
19809TIP3    H180918   1.133   6.751   3.763  0.6707 -0.0992 -0.9240
19809TIP3    H280919   1.102   6.617   3.828  0.7371  0.7103  0.8559
19810TIP3   OH280920   1.571   4.875   0.713 -0.0639 -0.0562 -0.1823
19810TIP3    H180921   1.478   4.880   0.690  0.5793  2.0875 -2.8208
19810TIP3    H280922   1.612   4.834   0.637  1.5259  2.3353 -0.7471
19811TIP3   OH280923   3.017   4.714   1.777 -0.0309  0.2618  0.3736
19811TIP3    H180924   2.941   4.751   1.732 -0.1934 -1.8891 -1.2705
19811TIP3    H280925   3.088   4.720   1.713  0.6068  0.1712  1.0598
19812TIP3   OH280926   5.290   1.454  15.212 -0.1045  0.6479  0.3124
19812TIP3    H180927   5.348   1.433  15.139  1.0122 -0.5682  1.4881
19812TIP3    H280928   5.348   1.488  15.281 -0.6684 -0.8910  1.6248
19813TIP3   OH280929   2.720   1.329  14.285 -0.0136  0.3992 -0.4173
19813TIP3    H180930   2.654   1.262  14.265 -0.9290  1.0342  0.4334
19813TIP3    H280931   2.803   1.288  14.259 -0.2504 -1.9706  2.0865
19814TIP3   OH280932   5.189   5.188   4.381  0.1054  0.3065 -0.1331
19814TIP3    H180933   5.180   5.283   4.369  0.4252  0.2792 -0.6202
19814TIP3    H280934   5.127   5.150   4.318 -0.7574  0.1984  0.7622
19815TIP3   OH280935   0.783   4.108  16.036  0.1224  0.4139  0.0350
19815TIP3    H180936   0.866   4.087  16.079 -0.5453 -0.0002  1.1722
19815TIP3    H280937   0.733   4.026  16.039 -0.7435  0.9404  0.3535
19816TIP3   OH280938   0.187   5.912  14.687 -0.3616 -0.1429 -0.1626
19816TIP3    H180939   0.124   5.925  14.758 -0.3833  0.0605 -0.2183
19816TIP3    H280940   0.143   5.852  14.627 -0.6116  0.2160 -0.3374
19817TIP3   OH280941   1.500   2.837   6.344  0.1193 -0.5408  0.1095
19817TIP3    H180942   1.511   2.743   6.359  2.6801 -0.3775 -0.3008
19817TIP3    H280943   1.583   2.875   6.372 -0.5642  1.5258 -0.5191
19818TIP3   OH280944   6.595   3.494  12.379  1.2120  0.3680  0.1506
19818TIP3    H180945   6.591   3.589  12.391  0.8887  0.4602 -0.6788
19818TIP3    H280946   6.568   3.459  12.464  1.2576  1.0144  0.4408
19819TIP3   OH280947   5.273   1.804  12.450 -0.1803 -0.2756 -1.0548
19819TIP3    H180948   5.249   1.836  12.537  1.1248 -0.4402 -0.6061
19819TIP3    H280949   5.264   1.880  12.393  0.6927  0.3243 -0.4228
19820TIP3   OH280950   5.692   4.483   5.877  0.4624  0.1944  0.0745
19820TIP3    H180951   5.604   4.449   5.865  0.3074  0.8113 -0.6106
19820TIP3    H280952   5.688   4.573   5.844  1.3340  0.2401  0.0638
19821TIP3   OH280953   1.397   3.293   6.007  0.1453  0.3064  0.3818
19821TIP3    H180954   1.302   3.302   6.018  0.3523  0.4407  2.5480
19821TIP3    H280955   1.433   3.317   6.092  2.1857  0.8435 -0.5705
19822TIP3   OH280956   4.308   4.364   0.717 -0.2968  0.1061  0.2681
19822TIP3    H180957   4.393   4.356   0.760 -0.8137  0.7796  1.4790
19822TIP3    H280958   4.250   4.308   0.767 -0.6530 -0.0715 -0.3305
19823TIP3   OH280959   5.243   5.823  12.490  0.3111 -0.2837  0.3228
19823TIP3    H180960   5.243   5.745  12.546 -0.1506  0.7579  1.8270
19823TIP3    H280961   5.320   5.812  12.434  0.1074 -1.9389  0.3085
19824TIP3   OH280962   2.188   3.709  15.718 -0.0311  0.1664  0.0299
19824TIP3    H180963   2.153   3.620  15.720  0.4934 -0.0741 -1.0036
19824TIP3    H280964   2.270   3.703  15.768 -1.6367  0.8624  2.9874
19825TIP3   OH280965   3.931   1.126  13.912 -0.5301 -0.1362  0.5258
19825TIP3    H180966   3.860   1.081  13.959 -1.2474  1.1146  0.6638
19825TIP3    H280967   3.891   1.205  13.877  0.8897  0.7967  0.9304
19826TIP3   OH280968   3.077   3.349  10.432  0.3467 -0.2326  0.6366
19826TIP3    H180969   3.022   3.414  10.387 -2.1072 -2.5133  0.1045
19826TIP3    H280970   3.033   3.336  10.517  1.8304  0.0509  1.4768
19827TIP3   OH280971   5.998   5.490  15.980 -0.6385  0.6616 -0.2465
19827TIP3    H180972   6.026   5.520  15.894  2.9637  0.2340  0.6386
19827TIP3    H280973   6.034   5.555  16.041  2.0935 -2.0597  1.2663
19828TIP3   OH280974   5.737   2.754   2.536 -0.0491 -0.6787  0.0625
19828TIP3    H180975   5.825   2.766   2.571  0.3403 -0.8788 -0.8335
19828TIP3    H280976   5.724   2.659   2.534  0.0291 -0.6780 -0.5706
19829TIP3   OH280977   4.236   1.975  11.636  0.4505  0.0870  0.6999
19829TIP3    H180978   4.317   2.001  11.680  1.2301  0.3214 -0.7891
19829TIP3    H280979   4.264   1.951  11.547 -0.9552 -1.0177  0.5257
19830TIP3   OH280980   2.501   5.130  15.875 -0.2004 -0.4012 -0.5695
19830TIP3    H180981   2.578   5.188  15.876 -0.3219 -0.2146  1.1353
19830TIP3    H280982   2.436   5.178  15.824 -0.0963  0.7184  0.3016
19831TIP3   OH280983   5.114   2.662   0.578  0.2018 -0.3781  0.8317
19831TIP3    H180984   5.115   2.707   0.663  3.0518 -0.0214  0.7062
19831TIP3    H280985   5.187   2.700   0.530 -2.2590  0.5443 -2.4923
19832TIP3   OH280986   6.021   2.870  17.052 -0.1268  0.0620 -0.1843
19832TIP3    H180987   5.985   2.784  17.076 -0.4634  0.3750  0.4685
19832TIP3    H280988   6.024   2.869  16.957  0.9106 -1.0948 -0.1661
19833TIP3   OH280989   6.450   6.771   5.277 -0.4358 -0.0694  0.1574
19833TIP3    H180990   6.359   6.799   5.267 -0.3663  0.4819  1.0284
19833TIP3    H280991   6.447   6.676   5.264 -1.0256  0.0252 -0.4719
19834TIP3   OH280992   0.568   5.435  16.069  0.4382  0.2701 -0.1355
19834TIP3    H180993   0.495   5.377  16.048  0.6542  0.0989 -0.4178
19834TIP3    H280994   0.629   5.425  15.996  2.4742 -2.3033  1.7369
19835TIP3   OH280995   4.492   5.169   2.281 -0.5155  0.1922 -0.0338
19835TIP3    H180996   4.421   5.135   2.336  0.4234 -0.4310  0.8348
19835TIP3    H280997   4.549   5.216   2.343  0.7705 -0.8550 -0.3713
19836TIP3   OH280998   2.198   3.743   5.742  0.2622 -0.1297 -0.2325
19836TIP3    H180999   2.193   3.808   5.672  0.4645 -0.2419 -0.3532
19836TIP3    H281000   2.283   3.759   5.784 -0.1456  0.3738  0.4203
19837TIP3   OH281001   2.318   1.416  13.766 -0.2990 -0.0454 -0.0756
19837TIP3    H181002   2.333   1.478  13.837  0.5283 -0.4813  0.1424
19837TIP3    H281003   2.225   1.423  13.747 -0.1691  1.5269 -0.2954
19838TIP3   OH281004   4.527   1.806  14.397 -0.1872 -0.1115 -0.3389
19838TIP3    H181005   4.525   1.893  14.436  1.3803 -0.8530  1.5665
19838TIP3    H281006   4.467   1.754  14.451  1.6849 -1.0465  0.9715
19839TIP3   OH281007   3.057   6.779  13.193 -0.7317 -0.2925  0.1692
19839TIP3    H181008   3.004   6.741  13.123 -0.0136 -1.2759  0.1328
19839TIP3    H281009   3.055   6.873  13.176 -0.5757 -0.5039 -1.1850
19840TIP3   OH281010   1.756   0.089  15.960 -0.1946  0.0485 -0.1331
19840TIP3    H181011   1.679   0.092  15.902 -0.9684 -1.0406  0.7883
19840TIP3    H281012   1.828   0.065  15.902 -0.2606  2.3150 -1.2509
19841TIP3   OH281013   0.881   5.758  16.400 -0.0027  0.2091  0.1780
19841TIP3    H181014   0.920   5.735  16.315 -0.0738 -2.3016  0.7446
19841TIP3    H281015   0.952   5.801  16.447  1.0497 -1.1480 -0.0803
19842TIP3   OH281016   1.660   1.453  13.154 -0.2565 -0.3526  0.2270
19842TIP3    H181017   1.690   1.500  13.076  0.3412  1.2464  1.3678
19842TIP3    H281018   1.727   1.470  13.220  0.0575 -2.9950  0.6855
19843TIP3   OH281019   6.249   4.571   6.119  0.8053  0.2953 -0.3420
19843TIP3    H181020   6.154   4.564   6.130  1.0267 -4.9528  0.7879
19843TIP3    H281021   6.263   4.564   6.025  0.0039 -1.6402 -0.3746
19844TIP3   OH281022   4.668   0.807  11.829  0.0637  0.1804 -0.4489
19844TIP3    H181023   4.635   0.882  11.778 -0.8791 -0.1799 -0.3862
19844TIP3    H281024   4.594   0.746  11.832 -0.1678  0.4888  1.9495
19845TIP3   OH281025   5.152   1.259   1.424  0.4808 -0.2903  0.0997
19845TIP3    H181026   5.088   1.196   1.458  0.2622 -0.3707 -0.4393
19845TIP3    H281027   5.233   1.209   1.414  0.4000 -0.4008 -0.0039
19846TIP3   OH281028   2.996   3.462   3.606  0.2643  0.5726  0.9538
19846TIP3    H181029   3.066   3.517   3.642  1.8806  0.1106 -1.2422
19846TIP3    H281030   2.966   3.510   3.528 -0.6446 -0.0918  0.8815
19847TIP3   OH281031   2.221   2.910  13.204 -0.1357 -0.1018 -0.0025
19847TIP3    H181032   2.182   2.870  13.282  2.6348 -0.2311  1.4758
19847TIP3    H281033   2.162   2.982  13.181 -1.2159 -0.2739  2.0266
19848TIP3   OH281034   4.761   0.245  14.188 -0.2272  0.1162 -0.0203
19848TIP3    H181035   4.716   0.321  14.153  0.3300  0.5623  0.2133
19848TIP3    H281036   4.694   0.176  14.192 -0.3577  0.1156 -1.7279
19849TIP3   OH281037   5.516   0.655   0.546 -0.0986  0.5778 -0.0067
19849TIP3    H181038   5.476   0.627   0.464  0.5530  1.1856 -0.5494
19849TIP3    H281039   5.579   0.722   0.520  1.4260 -0.4905  0.7731
19850TIP3   OH281040   2.054   3.732  16.956  0.1219 -0.1869 -0.7440
19850TIP3    H181041   2.101   3.771  16.882  0.4906  1.4110  0.2943
19850TIP3    H281042   2.011   3.806  16.999  1.2766 -0.8056  1.6106
19851TIP3   OH281043   4.590   0.152  16.430  0.0611  0.2753 -0.0065
19851TIP3    H181044   4.539   0.072  16.437  1.6460 -0.6718  1.4590
19851TIP3    H281045   4.591   0.188  16.519  1.9405  0.2438  0.0174
19852TIP3   OH281046   3.415   5.184   0.017 -0.6568 -0.3941  0.0676
19852TIP3    H181047   3.434   5.099   0.057  0.6129  0.2657  0.9473
19852TIP3    H281048   3.456   5.247   0.076 -2.1749  0.8909 -0.1892
19853TIP3   OH281049   0.827   1.639   1.446  0.0985 -0.0211  0.3849
19853TIP3    H181050   0.810   1.723   1.403  0.5105 -1.1686 -2.1909
19853TIP3    H281051   0.876   1.663   1.525  0.4446  2.1616 -0.4125
19854TIP3   OH281052   0.528   1.610   1.042 -0.2488  0.4410  0.3037
19854TIP3    H181053   0.469   1.655   1.103 -1.4990 -0.3523 -0.2959
19854TIP3    H281054   0.495   1.632   0.955  0.5654  0.2779 -0.0580
19855TIP3   OH281055   5.523   1.434  11.191  0.6876  0.5791 -0.5356
19855TIP3    H181056   5.587   1.393  11.133  0.7495  1.2836 -0.9801
19855TIP3    H281057   5.445   1.380  11.181  1.3440 -0.5855  0.3905
19856TIP3   OH281058   3.376   5.382   5.940 -0.1678 -0.2485 -1.2965
19856TIP3    H181059   3.381   5.288   5.958  0.5008 -0.3536 -1.9698
19856TIP3    H281060   3.284   5.398   5.920 -0.8308 -0.2566  1.3286
19857TIP3   OH281061   1.945   3.847   4.493 -0.2332 -0.1218  0.3365
19857TIP3    H181062   2.033   3.810   4.488  0.4845  1.1120  2.3400
19857TIP3    H281063   1.893   3.779   4.536  0.0814 -0.3316  0.3907
19858TIP3   OH281064   0.206   3.665   4.909  0.0552  0.2360  0.2451
19858TIP3    H181065   0.150   3.718   4.853 -0.9750 -0.3781  0.6705
19858TIP3    H281066   0.242   3.598   4.850  0.1347  0.4705  0.0260
19859TIP3   OH281067   3.806   3.890  12.381 -0.1087 -0.0015 -0.4600
19859TIP3    H181068   3.885   3.914  12.429  0.6944 -0.0083 -1.7234
19859TIP3    H281069   3.796   3.960  12.315 -1.1690  0.0061 -0.3208
19860TIP3   OH281070   1.563   4.596   0.800  0.3442  0.0843 -0.0909
19860TIP3    H181071   1.566   4.690   0.782  0.1064  0.2287  0.5939
19860TIP3    H281072   1.620   4.584   0.876  0.1404 -0.2783  0.0091
19861TIP3   OH281073   1.245   1.718   4.833 -0.0486  0.3133  0.0056
19861TIP3    H181074   1.242   1.772   4.754  3.7966  0.1689 -0.4223
19861TIP3    H281075   1.253   1.628   4.801  0.5156  0.1572  0.5613
19862TIP3   OH281076   3.334   5.254  14.127 -0.0291 -0.0431  0.1787
19862TIP3    H181077   3.257   5.210  14.164  1.0164 -1.7084  0.5035
19862TIP3    H281078   3.408   5.213  14.172  1.0407  1.8869  0.2565
19863TIP3   OH281079   1.733   3.835   5.594  1.0039  0.1012  0.8118
19863TIP3    H181080   1.781   3.752   5.597 -0.4721 -0.7680  2.3758
19863TIP3    H281081   1.661   3.818   5.534  1.9224  1.0289 -0.6194
19864TIP3   OH281082   1.635   0.438  15.350  0.2865  0.3796 -0.5489
19864TIP3    H181083   1.587   0.512  15.312  0.2513  0.7697  0.2214
19864TIP3    H281084   1.610   0.363  15.297 -0.7390  0.6803 -0.5256
19865TIP3   OH281085   2.040   3.555  15.345  0.1015  0.1768  0.1682
19865TIP3    H181086   2.047   3.638  15.394  0.3238  0.6276 -0.6095
19865TIP3    H281087   2.130   3.533  15.321 -0.0078 -0.0261 -0.0601
19866TIP3   OH281088   3.471   2.039   2.507  0.3353 -0.0822  0.0178
19866TIP3    H181089   3.495   1.955   2.470  0.4581  0.3909 -1.0050
19866TIP3    H281090   3.392   2.065   2.461  0.3638  0.4174  0.2406
19867TIP3   OH281091   5.838   4.550   0.605  0.4331  0.0847  0.0110
19867TIP3    H181092   5.773   4.483   0.628 -0.9869  1.9105  1.6701
19867TIP3    H281093   5.887   4.512   0.532 -0.4794 -2.6135  0.6910
19868TIP3   OH281094   6.072   2.211  13.036  0.4464  0.3737 -0.5490
19868TIP3    H181095   6.073   2.295  12.991 -0.6518  0.5967 -0.1855
19868TIP3    H281096   6.047   2.232  13.126  0.2303 -0.3329 -0.4348
19869TIP3   OH281097   2.381   3.290  14.223 -0.2844 -0.0540  0.2688
19869TIP3    H181098   2.347   3.291  14.312 -0.1930  1.4217  0.3076
19869TIP3    H281099   2.304   3.279  14.168 -0.2821 -1.5941  0.5217
19870TIP3   OH281100   3.808   2.123   4.520  0.2048  0.1712 -0.1586
19870TIP3    H181101   3.757   2.204   4.509  2.1148  1.3413 -1.0093
19870TIP3    H281102   3.790   2.073   4.441  1.5453  1.3312 -1.2687
19871TIP3   OH281103   3.172   5.112   4.865  0.6970 -0.5903  0.5709
19871TIP3    H181104   3.164   5.098   4.771  0.2052 -1.4070  0.7162
19871TIP3    H281105   3.215   5.032   4.897  0.8419 -0.3281  1.0404
19872TIP3   OH281106   6.517   6.154  10.761  0.1580  0.3589 -0.5737
19872TIP3    H181107   6.443   6.096  10.776  1.1833 -0.7695  0.4022
19872TIP3    H281108   6.589   6.096  10.737  0.7256  1.4295 -1.5844
19873TIP3   OH281109   2.992   1.559  13.058  0.1182 -0.7667  0.2461
19873TIP3    H181110   2.954   1.477  13.090  0.8802 -0.4405  2.1349
19873TIP3    H281111   3.025   1.538  12.971 -0.2327 -2.3015  0.4539
19874TIP3   OH281112   1.667   3.161   3.191  0.1877  0.6064 -0.1415
19874TIP3    H181113   1.703   3.072   3.189  3.6031  1.8592 -0.4108
19874TIP3    H281114   1.615   3.164   3.272  0.6593 -1.3915  0.2881
19875TIP3   OH281115   2.828   3.543   4.385  0.3036 -0.1108  0.6858
19875TIP3    H181116   2.829   3.454   4.421 -0.4498  0.2647  1.6641
19875TIP3    H281117   2.768   3.539   4.310  0.4607 -0.4737  0.5779
19876TIP3   OH281118   4.699   6.812  13.844  0.1122  0.3544 -0.3966
19876TIP3    H181119   4.774   6.811  13.903 -0.1047 -0.8905 -0.1223
19876TIP3    H281120   4.692   6.903  13.816  1.2478  0.6326  0.1782
19877TIP3   OH281121   6.545   2.104  12.783 -0.3556  0.4348  0.0438
19877TIP3    H181122   6.514   2.184  12.740 -1.4750  0.7155  1.3092
19877TIP3    H281123   6.488   2.094  12.859  1.4152 -0.1686  1.3636
19878TIP3   OH281124   4.792   2.849  10.874 -0.3217 -0.2887  0.2115
19878TIP3    H181125   4.739   2.903  10.933 -0.7357 -2.0119  1.5012
19878TIP3    H281126   4.852   2.911  10.832 -1.0208  1.2110  1.3297
19879TIP3   OH281127   1.780   3.592  16.843 -0.0473  0.7769  0.1014
19879TIP3    H181128   1.795   3.498  16.843  1.2732  0.9764  0.0798
19879TIP3    H281129   1.866   3.631  16.829 -0.8724  1.9661 -2.2390
19880TIP3   OH281130   2.448   0.982  13.025  0.1840 -0.5277 -0.0213
19880TIP3    H181131   2.378   0.975  12.961 -1.4412 -0.1944  1.6300
19880TIP3    H281132   2.444   1.072  13.057  0.2197 -0.9632  1.2991
19881TIP3   OH281133   5.321   4.745  15.210 -0.7169 -0.0327 -0.0270
19881TIP3    H181134   5.413   4.736  15.186 -1.2391 -0.7264 -1.9051
19881TIP3    H281135   5.281   4.795  15.139 -1.6668  0.9052  1.1180
19882TIP3   OH281136   6.644   5.557  14.184 -1.1170  0.4490  0.0978
19882TIP3    H181137   6.656   5.650  14.205  0.2818 -0.4679  4.4754
19882TIP3    H281138   6.551   5.540  14.199 -1.2167  0.9603  0.0635
19883TIP3   OH281139   4.774   2.973  12.306 -0.5351 -0.2024 -0.3846
19883TIP3    H181140   4.710   2.966  12.234 -0.4184  0.4398 -0.5505
19883TIP3    H281141   4.765   3.063  12.338 -1.7879 -0.9301  1.5416
19884TIP3   OH281142   3.956   2.673   4.286  0.2953  0.0916 -0.2514
19884TIP3    H181143   3.983   2.587   4.254 -0.8842 -0.2373 -0.3913
19884TIP3    H281144   3.886   2.655   4.348 -2.1826  1.0627 -2.5640
19885TIP3   OH281145   4.105   3.965   5.627 -0.1576  0.1520  0.3409
19885TIP3    H181146   4.147   4.034   5.678 -0.2125  0.8653 -0.5468
19885TIP3    H281147   4.104   3.999   5.537 -1.7894 -0.2284  0.1835
19886TIP3   OH281148   0.854   1.397   2.124  0.5119  0.0164  0.3893
19886TIP3    H181149   0.863   1.493   2.123  0.9670 -0.0256  0.0361
19886TIP3    H281150   0.842   1.375   2.216  0.0100  0.4498  0.4297
19887TIP3   OH281151   2.587   3.937  13.540 -0.5282 -0.6797 -0.0136
19887TIP3    H181152   2.588   3.883  13.619 -0.2099 -2.0610 -0.9154
19887TIP3    H281153   2.589   4.027  13.572  2.4585 -1.1612  1.5567
19888TIP3   OH281154   2.605   4.594   0.913  0.2687 -0.0855  0.6250
19888TIP3    H181155   2.575   4.601   0.822  1.0176 -0.2460  0.3573
19888TIP3    H281156   2.677   4.657   0.919  0.1149  0.0415  1.1554
19889TIP3   OH281157   5.034   5.996   0.661 -0.2005  0.8929 -0.1280
19889TIP3    H181158   4.992   5.940   0.595  0.4184 -0.4570  0.5765
19889TIP3    H281159   4.966   6.010   0.727  0.0227 -0.1829  0.3548
19890TIP3   OH281160   1.478   6.339  10.843 -0.4070 -0.1431  0.2495
19890TIP3    H181161   1.533   6.418  10.842  0.2873 -0.6162  0.5971
19890TIP3    H281162   1.389   6.372  10.855 -0.2877  0.6775 -0.9298
19891TIP3   OH281163   4.984   6.758   3.266 -0.3423 -0.0276 -0.1279
19891TIP3    H181164   4.974   6.849   3.238  0.0097 -0.1151 -0.5452
19891TIP3    H281165   5.073   6.753   3.300 -1.2701  0.5038  2.6663
19892TIP3   OH281166   5.441   3.541   5.552 -0.1106 -0.3491 -0.4650
19892TIP3    H181167   5.457   3.601   5.480  1.5146  0.2491  0.3582
19892TIP3    H281168   5.525   3.497   5.567 -0.7427 -1.3916  0.2474
19893TIP3   OH281169   5.933   1.219   0.862  0.0208 -0.0049  0.5139
19893TIP3    H181170   5.997   1.250   0.926 -2.2501  0.6920  2.6107
19893TIP3    H281171   5.934   1.124   0.871 -0.6151  0.1032  2.0183
19894TIP3   OH281172   0.769   4.575   4.823 -0.0599 -0.2103 -0.2322
19894TIP3    H181173   0.783   4.496   4.771  1.2407 -1.9533  2.4951
19894TIP3    H281174   0.747   4.542   4.910 -1.3899  2.5067  0.5542
19895TIP3   OH281175   2.638   4.902  14.072  0.2067 -0.4714 -0.2097
19895TIP3    H181176   2.573   4.841  14.037 -0.0074 -1.2520  1.4268
19895TIP3    H281177   2.610   4.988  14.041 -1.4888 -0.8239  0.2572
19896TIP3   OH281178   4.259   3.685   2.510 -0.4686  0.2337  0.5265
19896TIP3    H181179   4.263   3.765   2.457 -2.2554  0.4212  0.6119
19896TIP3    H281180   4.281   3.714   2.599  0.2967  0.3362  0.3159
19897TIP3   OH281181   5.659   3.798  13.636 -0.2418 -0.2814 -0.1962
19897TIP3    H181182   5.623   3.879  13.673 -2.6308 -2.3556  2.4948
19897TIP3    H281183   5.689   3.748  13.712  1.1603 -1.9761 -1.7656
19898TIP3   OH281184   1.770   1.973  14.658 -0.1707 -0.5148 -0.1137
19898TIP3    H181185   1.742   2.048  14.606  2.1643  0.6791  0.2102
19898TIP3    H281186   1.797   1.908  14.593 -1.5188 -0.8506 -0.3820
19899TIP3   OH281187   0.756   5.817   3.564 -0.5755  0.0021  0.2476
19899TIP3    H181188   0.770   5.875   3.639 -0.6629  0.7631 -0.3189
19899TIP3    H281189   0.830   5.757   3.566 -0.0541  0.6377  0.3698
19900TIP3   OH281190   2.123   5.880   2.847  0.0015  0.3724 -0.5168
19900TIP3    H181191   2.163   5.944   2.788 -0.8909  0.2182 -1.3147
19900TIP3    H281192   2.166   5.797   2.825  0.5181  0.5276 -0.1086
19901TIP3   OH281193   2.013   5.262  15.221 -0.0254 -0.1630 -0.4087
19901TIP3    H181194   2.048   5.339  15.175  1.7325  0.8094  2.2904
19901TIP3    H281195   1.934   5.294  15.265 -0.3124 -0.4080 -0.7421
19902TIP3   OH281196   4.300   0.802  12.223 -0.3466 -0.3202  0.3377
19902TIP3    H181197   4.369   0.749  12.263 -1.2310 -0.9298  1.0917
19902TIP3    H281198   4.241   0.823  12.295  0.0937  1.9196  0.1125
19903TIP3   OH281199   4.276   1.136   2.207 -0.5737 -0.3590  0.3676
19903TIP3    H181200   4.313   1.155   2.121  0.0061 -0.3174  0.6165
19903TIP3    H281201   4.328   1.063   2.240 -1.0643 -0.6469  0.5148
19904TIP3   OH281202   1.327   2.193   0.909  0.3106 -0.0414 -0.1034
19904TIP3    H181203   1.401   2.136   0.890  0.1266  0.4963 -2.7182
19904TIP3    H281204   1.366   2.271   0.947  0.9810 -0.2000 -0.4446
19905TIP3   OH281205   3.551   0.081  16.204  0.4988  0.1841  0.5059
19905TIP3    H181206   3.616   0.099  16.136  1.7910  2.1918  2.1506
19905TIP3    H281207   3.469   0.119  16.170  1.3992  2.2657  0.5011
19906TIP3   OH281208   2.454   2.545  13.691 -0.0875 -0.2790 -0.2054
19906TIP3    H181209   2.461   2.573  13.782  0.7829 -0.2378 -0.2761
19906TIP3    H281210   2.391   2.606  13.652 -1.2136 -0.8815  0.5786
19907TIP3   OH281211   4.201   0.500   6.681 -0.1860  0.2705  0.3376
19907TIP3    H181212   4.251   0.563   6.628 -1.1408  1.7615  1.1479
19907TIP3    H281213   4.119   0.488   6.633 -1.0062  1.5369  1.3537
19908TIP3   OH281214   0.698   1.930  13.427 -0.1572  0.3567 -0.6103
19908TIP3    H181215   0.635   1.884  13.372 -0.6143 -0.3847  0.4931
19908TIP3    H281216   0.782   1.889  13.406 -0.6013 -1.2876  0.5925
19909TIP3   OH281217   0.882   1.004   3.073  0.2456 -0.0494 -0.4228
19909TIP3    H181218   0.909   0.926   3.121  0.5023 -0.2250 -0.8498
19909TIP3    H281219   0.808   0.976   3.020 -0.9757  0.4927  0.9354
19910TIP3   OH281220   3.223   4.845   3.253  0.0521  0.1018  0.5251
19910TIP3    H181221   3.152   4.782   3.245  1.9734 -2.0753 -0.5808
19910TIP3    H281222   3.263   4.827   3.338 -0.9617  1.6996  1.4011
19911TIP3   OH281223   2.183   4.762   3.682 -0.1282 -0.3546  0.0446
19911TIP3    H181224   2.226   4.799   3.605 -0.6689 -0.7583 -0.4600
19911TIP3    H281225   2.127   4.832   3.715 -0.4398 -0.4120 -0.3583
19912TIP3   OH281226   2.237   6.626  11.338 -0.0180 -0.2490 -0.5918
19912TIP3    H181227   2.145   6.652  11.341 -0.0953 -0.5501 -0.2826
19912TIP3    H281228   2.278   6.677  11.409 -0.7589 -3.1834  2.1801
19913TIP3   OH281229   4.939   2.007   4.662  0.0970  0.4772  0.1061
19913TIP3    H181230   4.931   1.934   4.600  0.3235  0.4966  0.0554
19913TIP3    H281231   5.012   2.059   4.629 -1.4012  1.9217 -1.1096
19914TIP3   OH281232   6.779   4.592  13.531  0.2355  0.0826 -0.5067
19914TIP3    H181233   6.771   4.688  13.533 -2.0629 -0.0420 -1.0214
19914TIP3    H281234   6.829   4.573  13.453  1.1858  0.8763 -0.1086
19915TIP3   OH281235   0.890   5.232   0.138 -0.2764  0.0113 -0.8215
19915TIP3    H181236   0.902   5.314   0.088 -0.6037  0.7161  0.2224
19915TIP3    H281237   0.977   5.212   0.172 -0.5160  0.9290  0.4015
19916TIP3   OH281238   2.304   5.164  10.867 -0.4657  0.1252  0.6334
19916TIP3    H181239   2.386   5.120  10.843 -1.0578 -0.4815 -0.3635
19916TIP3    H281240   2.241   5.131  10.804 -1.1204  1.8226  0.3709
19917TIP3   OH281241   2.531   5.161   0.165 -0.5392  0.4198  0.2597
19917TIP3    H181242   2.466   5.216   0.209 -0.4279 -0.3184  1.4112
19917TIP3    H281243   2.541   5.199   0.078 -2.1581  0.8405  0.2305
19918TIP3   OH281244   5.392   4.397  15.049 -0.0714 -0.4621  0.2984
19918TIP3    H181245   5.474   4.386  15.096  0.3313 -0.1416 -0.3086
19918TIP3    H281246   5.324   4.377  15.113  0.4401  0.5682  1.2045
19919TIP3   OH281247   6.004   1.046  14.542  0.3767  0.0600  0.0654
19919TIP3    H181248   5.926   1.068  14.593 -1.4724 -2.3029 -1.5337
19919TIP3    H281249   6.045   1.131  14.524 -0.1269  1.1589  3.3904
19920TIP3   OH281250   0.919   4.586   3.545  0.1657  0.2388  0.4529
19920TIP3    H181251   0.984   4.521   3.572 -1.0788 -1.5165 -0.5441
19920TIP3    H281252   0.960   4.630   3.470  0.9929  0.6092  1.0947
19921TIP3   OH281253   5.921   3.722  12.847 -0.2074 -0.1057  0.0288
19921TIP3    H181254   5.905   3.733  12.754 -1.1308 -0.5024  0.1351
19921TIP3    H281255   5.940   3.629  12.857 -1.2647 -0.2955  0.3919
19922TIP3   OH281256   0.677   1.763   3.197 -0.0068  0.3161 -0.4879
19922TIP3    H181257   0.622   1.795   3.125 -0.9175  1.1358  0.5376
19922TIP3    H281258   0.688   1.839   3.254  0.9819 -0.2351  0.0860
19923TIP3   OH281259   0.848   0.289  12.954 -0.5227  0.2057  1.0348
19923TIP3    H181260   0.769   0.246  12.922 -0.2502  0.9659 -0.8021
19923TIP3    H281261   0.819   0.375  12.982 -0.8362 -0.6076  3.4242
19924TIP3   OH281262   5.686   0.566   0.071  0.5776 -0.0356  0.3103
19924TIP3    H181263   5.743   0.533   0.001 -1.2118 -0.3320 -1.0950
19924TIP3    H281264   5.602   0.582   0.027 -0.0627  1.6209  2.0222
19925TIP3   OH281265   5.706   1.859   4.058 -0.2961  0.6023 -0.0725
19925TIP3    H181266   5.699   1.767   4.033 -0.1713  0.2792  1.0572
19925TIP3    H281267   5.681   1.907   3.978  2.6552 -0.3407 -1.6995
19926TIP3   OH281268   0.569   5.318   5.061 -0.5429 -1.2229 -0.8470
19926TIP3    H181269   0.631   5.391   5.066 -2.1807  0.1294  0.6755
19926TIP3    H281270   0.578   5.274   5.146 -2.8507  0.0725  0.1555
19927TIP3   OH281271   2.291   0.329   2.090  0.4188  0.3818  0.4537
19927TIP3    H181272   2.238   0.269   2.141  0.6690  0.9283  1.3775
19927TIP3    H281273   2.321   0.277   2.015  0.5647 -0.6217  1.1911
19928TIP3   OH281274   5.069   2.890  13.559 -0.2485  0.5636 -0.3298
19928TIP3    H181275   5.151   2.934  13.582 -0.2973  0.0267  0.9972
19928TIP3    H281276   5.010   2.911  13.632 -0.1525 -1.9670  0.5780
19929TIP3   OH281277   3.692   0.746  17.122  0.6034  0.1210  0.3368
19929TIP3    H181278   3.652   0.830  17.099 -1.2070 -0.9616 -0.6198
19929TIP3    H281279   3.648   0.720  17.203 -1.2495 -1.4045 -1.0795
19930TIP3   OH281280   1.010   1.589  16.525 -0.2505 -0.4896  0.4044
19930TIP3    H181281   0.963   1.508  16.506 -0.4965 -0.2071 -0.2330
19930TIP3    H281282   0.944   1.645  16.566 -1.1391  0.6608 -2.3112
19931TIP3   OH281283   2.800   4.355  15.235  0.4076  1.0312 -0.5153
19931TIP3    H181284   2.870   4.411  15.270  0.5349  0.5155  0.0692
19931TIP3    H281285   2.723   4.379  15.287  0.9533 -0.8816  1.3237
19932TIP3   OH281286   2.069   6.620   2.189  0.3350 -0.1393 -0.3377
19932TIP3    H181287   2.029   6.681   2.127 -0.1963  0.2116  0.3418
19932TIP3    H281288   1.996   6.583   2.238  0.8324  0.8310  1.2101
19933TIP3   OH281289   5.486   4.944  14.020  0.0779  0.0479 -0.5456
19933TIP3    H181290   5.457   4.853  14.020  3.1762 -1.1751  2.5183
19933TIP3    H281291   5.505   4.963  14.112 -0.2183  3.7608 -1.0912
19934TIP3   OH281292   0.838   4.134  16.363  0.0706 -0.3837 -0.0507
19934TIP3    H181293   0.881   4.168  16.442 -0.2314  2.0460 -0.8449
19934TIP3    H281294   0.756   4.097  16.394  0.8329 -1.2546  0.9844
19935TIP3   OH281295   2.270   2.806  15.091  0.5905  0.4711  0.6396
19935TIP3    H181296   2.236   2.801  15.181  1.1749 -0.6035  0.8116
19935TIP3    H281297   2.275   2.715  15.062 -0.4015  0.8339 -0.8048
19936TIP3   OH281298   1.744   1.893   1.477 -0.0734 -0.5224 -0.4614
19936TIP3    H181299   1.721   1.924   1.389 -1.9534 -1.0793 -0.1949
19936TIP3    H281300   1.716   1.802   1.479  1.2003 -0.9288  0.2960
19937TIP3   OH281301   1.969   4.194   0.793 -0.0051  0.2777 -0.2093
19937TIP3    H181302   1.985   4.166   0.884  0.1754  0.2499 -0.2481
19937TIP3    H281303   1.901   4.134   0.762 -0.8113  0.9437  0.2302
19938TIP3   OH281304   5.613   5.242  16.153 -0.2792  0.0623  0.4501
19938TIP3    H181305   5.652   5.157  16.132 -0.1367  0.5983 -1.6537
19938TIP3    H281306   5.661   5.305  16.099 -0.3699  1.5177  1.9622
19939TIP3   OH281307   3.913   1.718   3.391 -0.3411 -0.4330  0.3264
19939TIP3    H181308   3.979   1.746   3.328 -1.0798 -1.4250 -0.9445
19939TIP3    H281309   3.937   1.763   3.472  1.6694 -0.4698 -0.1759
19940TIP3   OH281310   3.323   3.966   0.551  0.4935  0.0514 -0.4340
19940TIP3    H181311   3.333   3.985   0.645  0.9099  0.5648 -0.5766
19940TIP3    H281312   3.261   4.032   0.520 -1.3718 -1.4477 -0.1026
19941TIP3   OH281313   6.639   4.244   2.492 -0.0834  0.5759  0.4734
19941TIP3    H181314   6.689   4.240   2.574 -0.8385  1.1457  0.9725
19941TIP3    H281315   6.573   4.175   2.500 -1.9211  2.3386  1.5704
19942TIP3   OH281316   3.031   3.025   4.126  0.5062 -0.5632 -0.6078
19942TIP3    H181317   3.115   2.994   4.091  0.6648 -1.0466  0.1753
19942TIP3    H281318   3.009   2.961   4.194  0.3628  0.5266  0.3868
19943TIP3   OH281319   2.134   4.698  11.410  0.0462  0.2930 -0.2893
19943TIP3    H181320   2.066   4.688  11.343 -0.2029 -1.1472  0.1537
19943TIP3    H281321   2.112   4.780  11.455 -1.4319 -0.1777 -0.1242
19944TIP3   OH281322   4.586   3.748   6.062  0.6652  0.2153  0.0473
19944TIP3    H181323   4.526   3.707   5.999 -1.0338  2.4651  0.0842
19944TIP3    H281324   4.537   3.751   6.144  1.9811 -0.5327  0.9079
19945TIP3   OH281325   1.957   2.577  14.804  0.0495 -0.4912  0.9410
19945TIP3    H181326   2.025   2.514  14.781  1.2172  1.0459 -0.0783
19945TIP3    H281327   1.982   2.611  14.890  0.3972 -0.1773  0.7195
19946TIP3   OH281328   3.006   6.635  15.728  0.0706  0.1636 -0.0100
19946TIP3    H181329   3.056   6.707  15.766 -0.4165  1.9261 -2.4918
19946TIP3    H281330   3.058   6.607  15.653 -0.3759 -1.2339  0.1740
19947TIP3   OH281331   6.381   2.947  16.608 -0.1075  0.0422  0.3423
19947TIP3    H181332   6.333   3.020  16.570  2.7828  0.5776 -2.7630
19947TIP3    H281333   6.389   2.883  16.536  1.9561 -0.8955  1.3165
19948TIP3   OH281334   1.576   5.395   2.427 -0.4094 -0.3400  0.2177
19948TIP3    H181335   1.582   5.349   2.510  0.5618 -0.5452  0.0488
19948TIP3    H281336   1.638   5.468   2.436 -1.5670  0.6650  0.3051
19949TIP3   OH281337   5.930   4.445   0.383 -0.7167  0.1535 -0.4442
19949TIP3    H181338   5.880   4.392   0.321  1.2795 -0.0477 -2.0147
19949TIP3    H281339   5.966   4.516   0.329 -3.5559  3.4871  1.5950
19950TIP3   OH281340   0.414   0.689  14.748 -0.1860 -0.2925 -0.5038
19950TIP3    H181341   0.403   0.620  14.813  0.7970  0.2511  0.2614
19950TIP3    H281342   0.410   0.771  14.798 -0.4833  0.1761 -1.2740
19951TIP3   OH281343   1.165   4.601  16.966  0.5110  0.0417 -0.0827
19951TIP3    H181344   1.188   4.508  16.975  1.2630  0.0032 -1.8686
19951TIP3    H281345   1.105   4.603  16.891 -0.4823  0.8827  0.6977
19952TIP3   OH281346   1.854   3.071  12.307 -0.2733 -0.1621  0.0794
19952TIP3    H181347   1.848   3.060  12.212  0.2885  1.4375 -0.1673
19952TIP3    H281348   1.911   2.999  12.336 -0.0268 -0.3543 -0.8542
19953TIP3   OH281349   0.933   3.440  11.397  0.1766 -0.1117 -0.1540
19953TIP3    H181350   0.872   3.513  11.390 -1.5778 -1.0554  3.1262
19953TIP3    H281351   0.979   3.455  11.479  0.0339 -2.4064  0.4244
19954TIP3   OH281352   3.624   4.756  15.180  0.0884  0.0814 -0.2282
19954TIP3    H181353   3.621   4.818  15.108 -0.3478  0.7833  0.3788
19954TIP3    H281354   3.535   4.723  15.188  0.6114 -1.8055 -1.5212
19955TIP3   OH281355   2.673   2.643   1.354 -0.1824  0.2315  0.3264
19955TIP3    H181356   2.639   2.722   1.396 -0.9578  0.5738 -0.8907
19955TIP3    H281357   2.758   2.670   1.319  0.5634 -0.1121  1.7813
19956TIP3   OH281358   3.672   6.017   2.893 -0.3587  0.3629  0.7574
19956TIP3    H181359   3.649   5.941   2.839 -1.7572  0.5020  1.1123
19956TIP3    H281360   3.607   6.083   2.869  1.7207  2.0235 -0.6459
19957TIP3   OH281361   2.550   5.918   5.344 -0.5075  0.4477 -0.5461
19957TIP3    H181362   2.574   5.882   5.429 -1.7984 -0.4212 -0.5235
19957TIP3    H281363   2.633   5.927   5.297  0.1489  0.3264  0.5600
19958TIP3   OH281364   3.791   3.272   4.857  0.0811  0.6686  1.1057
19958TIP3    H181365   3.801   3.178   4.841 -1.3926  0.6643 -0.0272
19958TIP3    H281366   3.853   3.313   4.796 -0.3714  0.4504  0.4855
19959TIP3   OH281367   6.247   2.813   1.056  0.1203  0.1447  0.2611
19959TIP3    H181368   6.338   2.836   1.077  0.0434 -1.2872  2.4879
19959TIP3    H281369   6.200   2.827   1.138 -1.3506 -0.7514 -0.4007
19960TIP3   OH281370   1.518   1.422  13.611 -0.0085  0.1134 -0.0797
19960TIP3    H181371   1.426   1.443  13.599  0.2187  0.3812 -1.5008
19960TIP3    H281372   1.537   1.354  13.546  0.5592 -0.6800  0.8840
19961TIP3   OH281373   0.881   3.675   2.177  0.5109  0.4847 -0.2383
19961TIP3    H181374   0.869   3.657   2.083  0.4739 -1.6073  0.1229
19961TIP3    H281375   0.819   3.616   2.220  0.7973  1.1563  1.1220
19962TIP3   OH281376   6.136   1.964   1.779 -0.0306 -0.7114  0.1537
19962TIP3    H181377   6.131   2.011   1.862  1.0672 -2.8848  1.5535
19962TIP3    H281378   6.074   1.891   1.790 -1.2760 -0.0055 -1.7194
19963TIP3   OH281379   2.185   0.897  13.956  0.0840 -0.1101  0.2737
19963TIP3    H181380   2.231   0.903  14.039  1.6414 -0.8613 -0.4895
19963TIP3    H281381   2.146   0.984  13.943  2.7595  1.1723  0.1711
19964TIP3   OH281382   0.227   4.586  17.069 -0.1678  0.0790 -0.3118
19964TIP3    H181383   0.202   4.677  17.053  0.4123 -0.1840 -3.4853
19964TIP3    H281384   0.277   4.562  16.991  0.4898 -2.6983  0.8680
19965TIP3   OH281385   6.331   1.797   5.809  0.0045  0.0271 -0.1723
19965TIP3    H181386   6.295   1.785   5.896  0.3009 -0.4198 -0.1078
19965TIP3    H281387   6.421   1.828   5.823  0.7496 -1.9417 -0.2643
19966TIP3   OH281388   2.836   3.032   1.411 -0.3949  0.7762  0.1446
19966TIP3    H181389   2.783   2.954   1.428 -1.4342  0.4722 -3.6686
19966TIP3    H281390   2.924   2.998   1.396 -0.6332  0.4171 -0.4848
19967TIP3   OH281391   2.302   6.001   5.537 -0.4110  0.5094  0.3228
19967TIP3    H181392   2.357   6.072   5.570 -0.3318  0.5521  0.1026
19967TIP3    H281393   2.214   6.020   5.572  0.1914 -0.9674  2.8598
19968TIP3   OH281394   5.033   6.728   4.745  0.8643  0.0310  0.0707
19968TIP3    H181395   5.062   6.732   4.654 -2.6952  1.3632 -1.1753
19968TIP3    H281396   4.997   6.815   4.763 -2.4787 -1.3933  1.1813
19969TIP3   OH281397   4.028   5.143  11.472  0.0499  0.4711  0.2445
19969TIP3    H181398   4.068   5.084  11.408  0.7302  1.4565 -0.2695
19969TIP3    H281399   3.960   5.091  11.514 -0.1005 -0.3399 -0.9541
19970TIP3   OH281400   2.592   6.710   2.350 -0.6751  0.4937 -0.0356
19970TIP3    H181401   2.498   6.695   2.345 -0.2992 -1.8443 -1.6801
19970TIP3    H281402   2.611   6.766   2.274 -0.5443 -0.3660 -0.6458
19971TIP3   OH281403   3.752   5.591  14.864  0.3136  0.2594 -0.3073
19971TIP3    H181404   3.742   5.575  14.957 -0.0072 -1.2777 -0.5795
19971TIP3    H281405   3.846   5.598  14.850  0.3667  0.3678  0.1034
19972TIP3   OH281406   0.079   2.880  12.130 -0.3121  0.0463  0.1385
19972TIP3    H181407  -0.003   2.918  12.159 -0.8391 -0.8167 -0.1928
19972TIP3    H281408   0.054   2.813  12.065  0.5421 -1.1740  1.0133
19973TIP3   OH281409   2.919   1.028   0.318 -0.5357 -0.1658  0.7876
19973TIP3    H181410   2.923   0.966   0.245 -1.5165  0.1426  0.4617
19973TIP3    H281411   2.883   1.108   0.279 -0.1176  0.3288  1.4014
19974TIP3   OH281412   5.536   5.346  14.243 -0.0012 -0.4445  0.5301
19974TIP3    H181413   5.592   5.337  14.320 -0.0330 -1.4953  0.4439
19974TIP3    H281414   5.479   5.420  14.263  1.0607  0.3204  0.8409
19975TIP3   OH281415   0.081   3.978  12.849  0.3150 -0.4746  0.3160
19975TIP3    H181416   0.096   3.916  12.921  1.0519  1.1710  1.6388
19975TIP3    H281417   0.119   4.060  12.879 -0.6675  0.6659 -1.3771
19976TIP3   OH281418   1.400   3.271   1.519 -0.7031 -0.1489  0.4086
19976TIP3    H181419   1.450   3.222   1.584 -1.5637  1.1208  2.1174
19976TIP3    H281420   1.388   3.210   1.447 -0.8777 -2.1177  2.0137
19977TIP3   OH281421   5.979   2.922   1.220 -0.0472 -0.8270  0.1755
19977TIP3    H181422   6.032   2.846   1.241  0.5412 -0.6595 -0.6383
19977TIP3    H281423   6.042   2.988   1.191 -0.3490  0.5622  2.3774
19978TIP3   OH281424   6.677   5.137   1.957 -0.2972  0.1347 -0.0477
19978TIP3    H181425   6.644   5.126   2.046  0.1595  0.7165  0.2045
19978TIP3    H281426   6.600   5.158   1.905 -0.6396 -0.6759  0.1143
19979TIP3   OH281427   1.531   3.836  12.997  0.2933  0.0614 -0.4386
19979TIP3    H181428   1.621   3.829  13.028 -0.5603 -0.4481  2.1738
19979TIP3    H281429   1.486   3.888  13.064 -2.4020 -3.7532  1.1212
19980TIP3   OH281430   3.844   3.498  14.635  0.0392 -0.2395  0.0808
19980TIP3    H181431   3.793   3.560  14.582 -0.0250 -1.5070 -1.4120
19980TIP3    H281432   3.912   3.552  14.676  0.2643  0.7719 -1.5238
19981TIP3   OH281433   3.675   3.965   1.630  0.3709  0.2526 -0.0934
19981TIP3    H181434   3.656   3.877   1.598  0.4636 -0.1277  0.8614
19981TIP3    H281435   3.733   4.003   1.563 -0.3024 -0.1113 -0.9010
19982TIP3   OH281436   6.501   5.141   5.241  0.8434  0.1353 -0.2109
19982TIP3    H181437   6.452   5.151   5.322  0.7074 -1.0216 -0.1271
19982TIP3    H281438   6.434   5.146   5.172  0.8356  0.2362 -0.1958
19983TIP3   OH281439   2.404   0.946   2.522  0.2134 -0.2859  0.0353
19983TIP3    H181440   2.422   0.947   2.615  0.7037  0.3053 -0.0578
19983TIP3    H281441   2.322   0.995   2.513  0.8425  0.8005  0.0363
19984TIP3   OH281442   2.164   5.773  14.338  0.1191  0.4257 -0.5627
19984TIP3    H181443   2.256   5.792  14.359  0.4168 -0.0110 -1.4173
19984TIP3    H281444   2.135   5.847  14.285  0.3367  0.0228 -1.2615
19985TIP3   OH281445   3.271   5.070   5.494 -0.3163  0.0472 -0.4520
19985TIP3    H181446   3.360   5.103   5.483  0.2242 -0.5403  1.7625
19985TIP3    H281447   3.262   5.002   5.427  0.7195  0.4400 -1.0099
19986TIP3   OH281448   3.821   4.644  17.187  0.2720  0.2545 -0.0119
19986TIP3    H181449   3.783   4.569  17.233 -0.8332  0.5877 -0.3454
19986TIP3    H281450   3.836   4.611  17.098  0.3820  0.2504  0.0081
19987TIP3   OH281451   2.459   1.794  11.338  0.0082  0.4413  0.3367
19987TIP3    H181452   2.481   1.833  11.423 -0.0254  1.4129 -0.0876
19987TIP3    H281453   2.534   1.815  11.282 -0.5396  0.9323 -0.2256
19988TIP3   OH281454   6.294   2.728   5.127  0.3423  0.5883  0.5686
19988TIP3    H181455   6.228   2.663   5.104  2.0099 -0.0918 -3.0138
19988TIP3    H281456   6.350   2.684   5.192  0.1396 -0.7192 -0.1138
19989TIP3   OH281457   3.542   4.551  11.123 -0.1092  0.3099 -0.3539
19989TIP3    H181458   3.501   4.545  11.036  0.4146  1.6876 -0.7268
19989TIP3    H281459   3.469   4.543  11.184 -0.5055 -0.5286 -0.9187
19990TIP3   OH281460   4.603   5.370  12.172  0.1194  0.0023 -0.0181
19990TIP3    H181461   4.646   5.454  12.154 -0.4822  0.6203  1.2673
19990TIP3    H281462   4.601   5.364  12.268 -2.0862 -0.2759 -0.0149
19991TIP3   OH281463   3.043   2.035   5.678  0.6952 -0.4520  0.2810
19991TIP3    H181464   3.128   1.995   5.662  0.6006 -1.0610  1.2649
19991TIP3    H281465   3.046   2.064   5.769  0.6503  1.5375 -0.2875
19992TIP3   OH281466   5.883   4.049   4.355 -0.2038 -0.2600 -0.0651
19992TIP3    H181467   5.967   4.016   4.323 -0.4835 -0.6586 -0.4010
19992TIP3    H281468   5.889   4.144   4.346  0.4314 -0.2438  0.4666
19993TIP3   OH281469   2.291   2.179  12.293 -0.1555 -0.5034  0.1285
19993TIP3    H181470   2.277   2.167  12.199  0.3576  2.0909 -0.3595
19993TIP3    H281471   2.381   2.150  12.308  0.3673  0.6754 -0.5723
19994TIP3   OH281472   1.513   1.181   3.986  0.4226  0.2892  0.2001
19994TIP3    H181473   1.578   1.139   4.041  0.9630  0.0495 -0.6005
19994TIP3    H281474   1.432   1.134   4.004  0.2908  1.0566  1.7358
19995TIP3   OH281475   2.950   0.021  16.076 -1.3049 -0.0947  0.1660
19995TIP3    H181476   3.023   0.031  16.016 -0.4157 -0.0751  1.2172
19995TIP3    H281477   2.925   0.110  16.100  0.0478 -0.0864  1.7791
19996TIP3   OH281478   5.735   0.615  12.828  0.2306 -0.0460 -0.0876
19996TIP3    H181479   5.708   0.570  12.908  0.5546  1.3386  0.8415
19996TIP3    H281480   5.780   0.694  12.858  1.8786 -0.3237 -1.6384
19997TIP3   OH281481   6.544   3.711   3.001 -0.1737 -0.6503 -0.3298
19997TIP3    H181482   6.615   3.671   3.051  0.6556  0.8508 -0.2610
19997TIP3    H281483   6.574   3.709   2.910  0.7200  1.3787 -0.1423
19998TIP3   OH281484   5.085   2.565   0.031  0.6004  0.6587 -0.4634
19998TIP3    H181485   5.036   2.515   0.095  1.0606 -0.6274 -1.0768
19998TIP3    H281486   5.147   2.617   0.082 -0.0144  0.7520  0.1943
19999TIP3   OH281487   3.781   6.311  12.446 -0.3909  0.5650 -0.0752
19999TIP3    H181488   3.713   6.328  12.511 -0.9032  1.8627 -0.9049
19999TIP3    H281489   3.821   6.396  12.430 -0.2994  0.2853 -1.4678
20000TIP3   OH281490   6.811   1.513   6.279  0.0237  0.3766  0.1763
20000TIP3    H181491   6.762   1.439   6.242 -2.2341  1.0294  1.6369
20000TIP3    H281492   6.802   1.582   6.214 -0.6100  0.3330  0.2075
20001TIP3   OH281493   3.088   2.438  12.530  0.1642  0.3387  1.1326
20001TIP3    H181494   3.162   2.491  12.559  0.1552  0.1571  1.4882
20001TIP3    H281495   3.036   2.497  12.475  1.1853  0.1353 -0.0864
20002TIP3   OH281496   0.291   3.311   5.064 -0.2226  0.2813  0.4620
20002TIP3    H181497   0.342   3.323   4.983  0.1719 -1.5862  0.3792
20002TIP3    H281498   0.282   3.399   5.099  0.7582  0.9927 -0.9276
20003TIP3   OH281499   5.225   1.896  16.498 -0.0396  0.0225  0.6248
20003TIP3    H181500   5.223   1.800  16.503 -0.6271  0.0762  1.5583
20003TIP3    H281501   5.140   1.924  16.531  1.2922  0.9764  3.5338
20004TIP3   OH281502   0.712   1.589  13.207 -0.2784 -0.4466 -0.1833
20004TIP3    H181503   0.751   1.522  13.262 -1.1012 -0.9113 -0.1514
20004TIP3    H281504   0.740   1.567  13.118  0.1160 -0.3551 -0.0831
20005TIP3   OH281505   2.129   6.308  15.492 -0.4042 -0.3081 -0.7559
20005TIP3    H181506   2.079   6.340  15.416 -2.2443  0.2194  0.6124
20005TIP3    H281507   2.193   6.377  15.509 -1.7488  0.8582 -0.2383
20006TIP3   OH281508   5.473   3.116   6.255 -0.0295  0.4246  0.1861
20006TIP3    H181509   5.530   3.183   6.293 -0.5829  0.7725  0.4255
20006TIP3    H281510   5.512   3.096   6.171  0.6390  0.4018  0.4957
20007TIP3   OH281511   5.857   5.989  11.430 -0.1562  0.1685  0.2110
20007TIP3    H181512   5.813   6.036  11.359  0.7970  0.9557  0.1189
20007TIP3    H281513   5.825   6.031  11.510  1.4806  1.7818  0.1037
20008TIP3   OH281514   3.563   1.140   3.004  0.0820  0.2544  0.2383
20008TIP3    H181515   3.513   1.220   3.020 -0.7452 -0.5583  2.0025
20008TIP3    H281516   3.641   1.150   3.058  0.1055 -0.0060  0.2528
20009TIP3   OH281517   1.207   3.656  12.041 -0.2516 -0.1232  0.0065
20009TIP3    H181518   1.165   3.571  12.045  0.1775 -0.4223 -1.3939
20009TIP3    H281519   1.170   3.699  11.964  1.8954 -0.3824 -1.2607
20010TIP3   OH281520   5.431   5.265   4.269 -0.1737 -0.8798 -0.3066
20010TIP3    H181521   5.492   5.191   4.261  0.0214 -0.7529  0.0209
20010TIP3    H281522   5.352   5.226   4.306  0.4454 -0.6562  1.3043
20011TIP3   OH281523   4.249   1.550   4.398  0.1608 -0.6865  0.1054
20011TIP3    H181524   4.162   1.561   4.436  1.0057  0.2710  1.8860
20011TIP3    H281525   4.238   1.574   4.306 -1.5289 -1.0030  0.1940
20012TIP3   OH281526   5.649   2.193   4.537 -0.0257 -1.1544 -0.2447
20012TIP3    H181527   5.716   2.127   4.519  1.5189  0.1433  0.5442
20012TIP3    H281528   5.666   2.221   4.627 -2.7661 -2.0128  0.6355
20013TIP3   OH281529   0.137   4.495   3.522  0.2861  0.1654 -0.4883
20013TIP3    H181530   0.073   4.464   3.586  0.1237  1.5154  0.0323
20013TIP3    H281531   0.123   4.440   3.446 -0.8486 -0.1899 -0.0469
20014TIP3   OH281532   5.782   4.655  11.906 -0.0012  0.1915  0.1130
20014TIP3    H181533   5.702   4.636  11.954 -0.7173 -0.2769 -1.2264
20014TIP3    H281534   5.753   4.687  11.821  1.2334  0.9568 -0.0585
20015TIP3   OH281535   2.621   2.522  12.141 -0.2461 -0.2621  0.2976
20015TIP3    H181536   2.677   2.595  12.114  2.0484 -2.0504 -0.1076
20015TIP3    H281537   2.678   2.466  12.193 -1.1734 -2.9491 -1.3466
20016TIP3   OH281538   3.277   0.450  17.031 -0.4318  1.0144  0.0136
20016TIP3    H181539   3.186   0.473  17.050 -0.9146  0.3871 -1.3978
20016TIP3    H281540   3.304   0.397  17.106 -1.6505  0.1497 -0.1209
20017TIP3   OH281541   1.959   0.281  14.656 -0.0816  0.8547  0.7528
20017TIP3    H181542   1.879   0.251  14.613  0.1538  2.0931 -0.6779
20017TIP3    H281543   1.946   0.263  14.748 -0.8912 -1.3673  0.2481
20018TIP3   OH281544   6.397   0.957  14.363  0.5127  0.2211  0.6120
20018TIP3    H181545   6.348   0.924  14.439  1.2550  0.1426  1.0664
20018TIP3    H281546   6.333   1.006  14.312 -0.2223 -0.5273  0.7939
20019TIP3   OH281547   2.506   5.588  10.782  0.1434 -0.0029  0.4420
20019TIP3    H181548   2.436   5.553  10.837 -1.4988  2.9727  0.4785
20019TIP3    H281549   2.461   5.613  10.700  1.3219  1.1018  0.1019
20020TIP3   OH281550   6.775   0.062   3.210  0.0043 -0.2003  0.9309
20020TIP3    H181551   6.691   0.048   3.167  0.9576  0.0510 -1.1406
20020TIP3    H281552   6.770   0.010   3.290 -1.5511 -1.4217  0.0953
20021TIP3   OH281553   3.704   6.356  12.807 -0.1464  0.1876  0.2237
20021TIP3    H181554   3.785   6.379  12.852  0.1032  0.0570 -0.1555
20021TIP3    H281555   3.656   6.302  12.869 -1.2599  2.5746  1.6082
20022TIP3   OH281556   4.033   0.743   3.737  0.5463 -0.5034 -0.0660
20022TIP3    H181557   4.126   0.730   3.718  1.0062  1.3561  0.7200
20022TIP3    H281558   4.031   0.814   3.801 -1.3149 -1.8393  1.4937
20023TIP3   OH281559   1.513   3.560   0.924  0.3546  0.0011  0.2803
20023TIP3    H181560   1.535   3.640   0.973 -1.1109  1.0308 -0.6678
20023TIP3    H281561   1.595   3.535   0.882  0.7872  1.1354  0.4169
20024TIP3   OH281562   6.312   4.648   0.159 -0.1564 -0.4818 -0.0308
20024TIP3    H181563   6.265   4.721   0.118  1.1197  1.0117  1.0642
20024TIP3    H281564   6.275   4.642   0.247  1.1670  0.2682  0.6094
20025TIP3   OH281565   5.266   6.531   4.658  0.2104  0.3249  0.2787
20025TIP3    H181566   5.190   6.508   4.712 -0.1463  3.5266  1.3430
20025TIP3    H281567   5.341   6.510   4.714  0.0481 -0.5725  0.1833
20026TIP3   OH281568   2.056   2.509  10.552 -0.3769 -0.3642 -0.0601
20026TIP3    H181569   1.976   2.550  10.582 -1.1990 -1.3294 -0.8689
20026TIP3    H281570   2.079   2.555  10.471 -1.7070 -1.8922 -1.3739
20027TIP3   OH281571   2.288   4.229   2.208 -0.3870  0.2854  0.0270
20027TIP3    H181572   2.215   4.220   2.147  0.0012 -1.9056 -0.1994
20027TIP3    H281573   2.289   4.322   2.232 -1.7538  0.8084 -1.7833
20028TIP3   OH281574   5.406   6.203   3.621  0.2278  0.1181 -0.3588
20028TIP3    H181575   5.473   6.138   3.602 -0.4725 -0.5550 -0.5696
20028TIP3    H281576   5.334   6.153   3.660 -0.2814  0.7758 -0.4345
20029TIP3   OH281577   0.120   5.465   6.737  0.0184  0.5762  0.3336
20029TIP3    H181578   0.098   5.389   6.791  2.7785  0.2720  1.2065
20029TIP3    H281579   0.186   5.433   6.676 -1.2441  1.5173 -1.6248
20030TIP3   OH281580   1.717   5.812  12.434 -0.1741 -0.5722 -0.1653
20030TIP3    H181581   1.701   5.780  12.345 -0.6124  0.2141 -0.3783
20030TIP3    H281582   1.692   5.904  12.431  2.3561  0.1951  0.0770
20031TIP3   OH281583   4.258   2.270  13.357  0.2761 -0.8262  0.2652
20031TIP3    H181584   4.336   2.241  13.309  0.8076  1.3695 -0.3119
20031TIP3    H281585   4.291   2.327  13.426 -0.8088  0.6870 -0.3949
20032TIP3   OH281586   2.510   3.996  16.985  0.1649 -0.3134  0.2529
20032TIP3    H181587   2.532   4.087  17.005  1.7376 -0.8902  1.3409
20032TIP3    H281588   2.418   3.987  17.008 -0.4797  1.4057 -1.4283
20033TIP3   OH281589   1.303   1.622   5.431  0.3866 -0.2625 -0.0070
20033TIP3    H181590   1.233   1.578   5.479  0.1746 -0.0259 -0.0947
20033TIP3    H281591   1.354   1.551   5.392 -0.7393 -0.4169 -1.2813
20034TIP3   OH281592   6.204   5.497  12.057  0.0702  0.0425  0.3831
20034TIP3    H181593   6.124   5.467  12.101  0.5442  1.2642  2.1917
20034TIP3    H281594   6.180   5.582  12.021 -0.1271 -0.6775 -1.3309
20035TIP3   OH281595   1.905   2.285   0.267 -0.0295 -0.0241 -0.2659
20035TIP3    H181596   1.943   2.277   0.355 -0.9493  1.6567  0.3198
20035TIP3    H281597   1.822   2.329   0.281 -0.8703 -1.0379 -1.8553
20036TIP3   OH281598   5.802   1.717  16.874 -0.7372 -0.0358 -0.4767
20036TIP3    H181599   5.834   1.742  16.787 -0.0460 -0.2520 -0.2850
20036TIP3    H281600   5.878   1.726  16.931 -1.5621  1.6620  0.4279
20037TIP3   OH281601   3.304   2.831  14.749 -0.1899 -0.0624  0.1425
20037TIP3    H181602   3.343   2.915  14.724  1.7430 -0.1646  2.4343
20037TIP3    H281603   3.289   2.785  14.666 -0.5442  2.1803 -1.1170
20038TIP3   OH281604   4.304   6.238   6.449  0.6119  0.1207 -0.2508
20038TIP3    H181605   4.258   6.194   6.377  1.1883 -0.6788 -0.1506
20038TIP3    H281606   4.302   6.175   6.521  1.2500  0.3502 -0.0229
20039TIP3   OH281607   5.699   3.810   4.666 -0.3879  0.4931  0.0150
20039TIP3    H181608   5.611   3.782   4.690 -0.9480  0.5593 -1.8185
20039TIP3    H281609   5.726   3.748   4.598  1.9774 -1.0038  2.1338
20040TIP3   OH281610   1.709   5.052  14.302  0.0329 -0.6373 -0.2373
20040TIP3    H181611   1.793   5.007  14.297  0.3720 -0.1835  0.9387
20040TIP3    H281612   1.697   5.070  14.396 -0.3061  1.2843 -0.6103
20041TIP3   OH281613   0.543   6.145   3.203  0.7120  0.8809 -0.0600
20041TIP3    H181614   0.479   6.207   3.238 -0.5740 -1.6487  2.3999
20041TIP3    H281615   0.612   6.143   3.269  0.4252 -0.7290  0.2142
20042TIP3   OH281616   0.596   1.058  11.937 -0.0948  0.1196  0.4406
20042TIP3    H181617   0.529   0.990  11.932 -0.0912  0.1995 -2.3993
20042TIP3    H281618   0.566   1.116  12.007 -1.9123 -0.9510  0.6088
20043TIP3   OH281619   0.056   5.578   4.594 -0.2411  0.9946 -0.4598
20043TIP3    H181620   0.068   5.538   4.680 -1.2825  2.8578  0.6209
20043TIP3    H281621   0.012   5.661   4.612 -2.0541  0.7026 -2.9488
20044TIP3   OH281622   1.794   6.567   2.713 -0.1547 -0.1460 -0.5109
20044TIP3    H181623   1.706   6.551   2.679 -2.1101  1.1658  3.3374
20044TIP3    H281624   1.797   6.662   2.727  2.2027 -0.0668 -1.1760
20045TIP3   OH281625   5.542   4.080   0.143  0.6224  0.0201  0.2606
20045TIP3    H181626   5.480   4.051   0.077  0.0717 -1.8255  1.5169
20045TIP3    H281627   5.616   4.021   0.134  1.0818  0.5519  0.4926
20046TIP3   OH281628   6.129   5.904   3.613 -0.3985  0.1657 -0.1349
20046TIP3    H181629   6.083   5.835   3.661 -0.5203  0.2375 -0.1475
20046TIP3    H281630   6.171   5.957   3.680  0.3630 -0.3870 -0.1623
20047TIP3   OH281631   3.199   5.775   3.200 -0.6894 -0.1376 -0.2691
20047TIP3    H181632   3.229   5.866   3.207 -0.2123 -0.3754  1.1728
20047TIP3    H281633   3.279   5.725   3.182 -0.9566 -0.2732 -1.1033
20048TIP3   OH281634   5.108   5.273  11.904  0.3780 -0.0215  0.5277
20048TIP3    H181635   5.203   5.285  11.897  0.2132  0.4709 -1.4951
20048TIP3    H281636   5.098   5.199  11.965  2.1422 -1.2032 -0.5079
20049TIP3   OH281637   6.072   2.678  14.173  0.0584 -0.0658 -0.1227
20049TIP3    H181638   6.013   2.744  14.211  0.7455 -0.2014  1.2221
20049TIP3    H281639   6.129   2.727  14.114 -0.6302  0.2442 -0.5432
20050TIP3   OH281640   3.847   3.455   2.304  0.6466 -0.0003 -0.2993
20050TIP3    H181641   3.795   3.529   2.272 -1.2148 -1.6197 -1.1734
20050TIP3    H281642   3.860   3.400   2.227  0.7015 -1.3491  0.6537
20051TIP3   OH281643   3.670   4.701  16.245  1.0895  0.4053 -0.0601
20051TIP3    H181644   3.682   4.796  16.244  1.0815  0.4264 -1.7420
20051TIP3    H281645   3.588   4.688  16.292  1.6661  1.1234  1.1975
20052TIP3   OH281646   1.580   1.582   0.594 -0.0520 -0.1698 -0.4010
20052TIP3    H181647   1.635   1.648   0.636 -0.3738 -0.6316  0.8043
20052TIP3    H281648   1.628   1.556   0.515  1.2229 -0.2238  0.3692
20053TIP3   OH281649   2.926   2.717  15.441  0.1319 -0.1661  0.1606
20053TIP3    H181650   2.912   2.637  15.389 -3.2681  1.8202 -2.3572
20053TIP3    H281651   2.865   2.708  15.514 -1.2507  0.5772 -0.8471
20054TIP3   OH281652   0.064   0.611   2.295  0.5445 -0.5196  0.1544
20054TIP3    H181653   0.044   0.590   2.387  4.0703  0.8728  1.3938
20054TIP3    H281654   0.068   0.706   2.292  0.8831 -0.5588 -1.3647
20055TIP3   OH281655   0.131   5.952  15.566 -0.5853  0.6411 -0.2303
20055TIP3    H181656   0.086   6.010  15.505 -2.9765 -1.2783 -0.4174
20055TIP3    H281657   0.074   5.875  15.574  0.8538 -0.2980  2.4848
20056TIP3   OH281658   0.402   5.309   3.345 -0.1737  0.8689 -0.2013
20056TIP3    H181659   0.410   5.397   3.310 -1.9029  0.9239 -0.5517
20056TIP3    H281660   0.360   5.320   3.430  1.9724  0.5541  0.9735
20057TIP3   OH281661   1.179   0.132  16.346 -0.5128 -0.6910  0.1377
20057TIP3    H181662   1.234   0.060  16.378  3.1177  1.0347 -1.6086
20057TIP3    H281663   1.150   0.177  16.426 -0.7751 -2.5712  1.1656
20058TIP3   OH281664   2.644   4.448   2.540 -0.1358 -0.2026 -0.3657
20058TIP3    H181665   2.644   4.544   2.533  1.1902 -0.2435 -1.1624
20058TIP3    H281666   2.687   4.430   2.623 -0.7774 -0.1112 -0.0056
20059TIP3   OH281667   4.110   4.051  14.994  0.0226 -0.3834 -0.0770
20059TIP3    H181668   4.067   4.124  14.950 -0.6761 -0.8611 -0.2096
20059TIP3    H281669   4.203   4.063  14.975  0.0287  0.9747  0.6800
20060TIP3   OH281670   0.431   4.532   3.498 -0.2443 -0.1744 -0.0643
20060TIP3    H181671   0.346   4.506   3.532  0.6100 -1.9931  0.7820
20060TIP3    H281672   0.418   4.541   3.404 -1.6271  0.7445  0.1857
20061TIP3   OH281673   5.423   5.864   2.019  1.0180 -0.1441  0.8541
20061TIP3    H181674   5.374   5.783   2.007  0.8387 -0.1079  1.3217
20061TIP3    H281675   5.378   5.928   1.964  2.1825 -0.7538 -0.8832
20062TIP3   OH281676   3.005   1.300  13.257  0.3255 -0.1405  0.3645
20062TIP3    H181677   3.027   1.255  13.339 -1.0452 -2.7149 -0.5478
20062TIP3    H281678   3.067   1.263  13.193  0.6612  1.0138  0.0110
20063TIP3   OH281679   5.306   2.554  12.696 -0.2343  0.1982 -0.7503
20063TIP3    H181680   5.286   2.597  12.613 -0.4288 -0.6114 -1.1360
20063TIP3    H281681   5.401   2.543  12.695 -0.3393 -0.7215 -1.3352
20064TIP3   OH281682   2.933   2.711  15.955 -0.0187 -0.0577  0.5289
20064TIP3    H181683   3.000   2.647  15.980 -0.2513 -0.7221 -0.4739
20064TIP3    H281684   2.982   2.787  15.924  0.3435 -1.1240 -1.6912
20065TIP3   OH281685   5.198   5.188  13.948  0.3544  0.4107 -0.6297
20065TIP3    H181686   5.284   5.212  13.914  1.0776  1.2068  1.6128
20065TIP3    H281687   5.162   5.269  13.983  0.1750 -0.5458  1.5200
20066TIP3   OH281688   6.478   2.714  13.996 -0.4532 -0.1191 -0.1999
20066TIP3    H181689   6.454   2.746  13.909  0.1796  1.5773  0.2149
20066TIP3    H281690   6.457   2.787  14.055  2.4753  0.1834  0.5921
20067TIP3   OH281691   5.971   4.686  16.150  0.7144 -0.1952 -0.1669
20067TIP3    H181692   5.977   4.760  16.090 -0.0289 -0.7629 -0.9862
20067TIP3    H281693   5.880   4.687  16.181  0.7316 -0.6832 -0.0924
20068TIP3   OH281694   3.736   4.179   1.918  0.3113  0.3279  0.2812
20068TIP3    H181695   3.708   4.195   2.008  0.6996 -0.2536  0.5084
20068TIP3    H281696   3.777   4.261   1.891 -0.6394  0.8301  0.3033
20069TIP3   OH281697   5.375   3.478   0.161  0.0726 -0.2156 -0.3836
20069TIP3    H181698   5.334   3.443   0.082 -0.1756  3.6587 -2.1935
20069TIP3    H281699   5.469   3.470   0.146  0.0469  1.3097 -1.5951
20070TIP3   OH281700   5.017   5.229   3.711  0.2721  0.1911  0.0446
20070TIP3    H181701   5.070   5.308   3.716  0.1148  0.2894  0.1728
20070TIP3    H281702   5.073   5.165   3.666 -0.2799  0.9400 -1.8265
20071TIP3   OH281703   6.049   1.482  10.672  0.1018 -0.2116  0.2021
20071TIP3    H181704   6.139   1.488  10.704  0.0216 -0.4230  0.4646
20071TIP3    H281705   6.052   1.525  10.586  0.0664  1.3871  0.9605
20072TIP3   OH281706   4.701   4.199   4.311 -0.7359 -0.2335  0.1023
20072TIP3    H181707   4.703   4.205   4.216  0.8524 -2.7001 -0.1125
20072TIP3    H281708   4.769   4.260   4.341  0.1661 -0.9268 -0.4942
20073TIP3   OH281709   0.619   4.844  14.718  0.7731 -0.0800 -0.1067
20073TIP3    H181710   0.673   4.914  14.755 -2.8661  3.2266 -0.4794
20073TIP3    H281711   0.647   4.838  14.627 -0.1192  2.4510 -0.6282
20074TIP3   OH281712   5.894   0.066  14.916  0.2530  0.2333 -0.1440
20074TIP3    H181713   5.962  -0.002  14.916 -0.7893 -0.8856 -2.1305
20074TIP3    H281714   5.819   0.025  14.957 -0.1057  0.4861 -0.5415
20075TIP3   OH281715   1.780   1.142  11.698 -0.2149 -0.7353  0.4163
20075TIP3    H181716   1.752   1.210  11.638  0.7680 -0.4273  0.2931
20075TIP3    H281717   1.698   1.108  11.736 -0.6758  1.5282  1.6092
20076TIP3   OH281718   2.070   6.211  16.174  0.1987 -0.1051  0.8190
20076TIP3    H181719   2.115   6.290  16.204  0.2245 -0.2522  1.1753
20076TIP3    H281720   2.115   6.187  16.093  0.1276  0.2997  0.6551
20077TIP3   OH281721   3.466   0.044   3.379 -0.7590 -0.0153 -0.4908
20077TIP3    H181722   3.430   0.069   3.464  0.3166  0.6936 -0.2229
20077TIP3    H281723   3.483   0.128   3.335  0.9975 -0.2950 -0.4015
20078TIP3   OH281724   4.451   4.967  13.432  0.7107 -0.2078  0.1129
20078TIP3    H181725   4.499   5.047  13.453  1.2729 -0.8676  1.4950
20078TIP3    H281726   4.361   4.985  13.459  0.4717  0.5009 -1.0806
20079TIP3   OH281727   0.284   4.995   3.577  0.0821 -0.2807 -0.3846
20079TIP3    H181728   0.251   4.931   3.641  0.2737  0.5996  0.6180
20079TIP3    H281729   0.303   4.943   3.499 -0.5481 -1.3181  0.1326
20080TIP3   OH281730   1.866   5.557   0.562  0.3689 -0.2191  0.1566
20080TIP3    H181731   1.867   5.519   0.650  2.2852  0.2023  0.3750
20080TIP3    H281732   1.776   5.585   0.548  0.3090  1.0305  2.5916
20081TIP3   OH281733   1.525   6.086  16.628  0.2604  0.0612 -0.3807
20081TIP3    H181734   1.583   6.079  16.552  1.4120 -0.5427  0.5192
20081TIP3    H281735   1.485   6.173  16.620  1.7572  0.7481 -0.7198
20082TIP3   OH281736   1.929   2.856   0.242 -0.2060 -0.1655 -0.1648
20082TIP3    H181737   1.913   2.776   0.293  1.0595 -1.0482 -1.0896
20082TIP3    H281738   1.862   2.918   0.273 -0.0907 -0.9761  1.8429
20083TIP3   OH281739   5.528   2.197  10.264 -0.1591  0.0312  0.4971
20083TIP3    H181740   5.589   2.208  10.191  0.4756  0.0595  1.0213
20083TIP3    H281741   5.566   2.250  10.335  1.2101 -2.7966  2.0455
20084TIP3   OH281742   3.383   0.993   4.258  0.7127  0.4922  0.0577
20084TIP3    H181743   3.402   0.902   4.280 -0.9938 -0.4975 -2.1650
20084TIP3    H281744   3.446   1.015   4.189  0.5051  0.6742 -0.0760
20085TIP3   OH281745   2.196   2.384   4.521 -0.1310  0.6126  0.6549
20085TIP3    H181746   2.166   2.405   4.432  1.4321 -0.8290 -0.2904
20085TIP3    H281747   2.175   2.461   4.573  0.6610  2.3088 -1.4153
20086TIP3   OH281748   6.686   5.164  13.346  0.1347 -0.2817 -0.4394
20086TIP3    H181749   6.766   5.197  13.306  0.9156 -0.1824  1.1218
20086TIP3    H281750   6.630   5.242  13.353  0.2841 -0.1534 -0.6483
20087TIP3   OH281751   6.826   3.908   4.087  0.0753  0.0608  0.0238
20087TIP3    H181752   6.901   3.954   4.125 -1.5763  1.8645  1.3168
20087TIP3    H281753   6.827   3.933   3.995  0.0391  1.5734  0.4083
20088TIP3   OH281754   0.935   1.639  13.432  0.3252  0.0458 -0.1622
20088TIP3    H181755   0.884   1.559  13.421  0.9236 -0.4247  0.4146
20088TIP3    H281756   0.999   1.637  13.361  0.4812 -0.0978 -0.0175
20089TIP3   OH281757   2.396   4.969   5.239  0.3964  0.1542 -0.6042
20089TIP3    H181758   2.420   5.054   5.201  1.3884  1.3935  2.5034
20089TIP3    H281759   2.359   4.990   5.324  1.0377 -2.5602  0.4527
20090TIP3   OH281760   0.255   2.189   5.126 -0.1924 -0.2871 -0.3038
20090TIP3    H181761   0.215   2.210   5.211  0.0586  0.6177 -0.3989
20090TIP3    H281762   0.181   2.175   5.068 -0.3692 -1.3179  0.1554
20091TIP3   OH281763   0.782   6.168  13.649 -0.1146  0.4638  0.5749
20091TIP3    H181764   0.848   6.103  13.624 -0.6955 -0.2017  0.7623
20091TIP3    H281765   0.811   6.249  13.606  0.4055 -0.0060  0.0271
20092TIP3   OH281766   1.639   4.957   5.275 -0.9129  0.0993  0.4995
20092TIP3    H181767   1.627   5.050   5.294  0.9186  0.5827 -0.5215
20092TIP3    H281768   1.717   4.932   5.324 -0.1687 -0.3581 -0.8623
20093TIP3   OH281769   6.328   3.234  15.171  0.1529 -0.0105  1.2342
20093TIP3    H181770   6.285   3.204  15.251 -1.8565 -0.1381  0.1589
20093TIP3    H281771   6.278   3.311  15.144  0.5145 -0.2346 -0.1517
20094TIP3   OH281772   4.462   5.901  14.700  0.2362 -0.0528 -0.5176
20094TIP3    H181773   4.403   5.964  14.660 -3.1715 -1.6891  1.4991
20094TIP3    H281774   4.499   5.947  14.775 -2.7604 -0.4606  1.3518
20095TIP3   OH281775   2.876   0.167  11.924 -0.4023 -0.3313  0.3985
20095TIP3    H181776   2.900   0.104  11.992  0.7596 -2.3496 -1.6938
20095TIP3    H281777   2.957   0.179  11.874 -1.1126  1.3503 -0.4025
20096TIP3   OH281778   3.055   6.175   3.188  0.6109 -0.6919  0.1251
20096TIP3    H181779   3.123   6.112   3.212  1.0014 -1.4780 -2.6821
20096TIP3    H281780   3.097   6.233   3.124 -0.8528 -0.1133 -0.3645
20097TIP3   OH281781   5.637   0.276   0.173  0.1859 -0.0177  0.4168
20097TIP3    H181782   5.603   0.362   0.150  1.2318  0.5859  1.0580
20097TIP3    H281783   5.730   0.281   0.154  0.3081 -0.9112  0.7375
20098TIP3   OH281784   1.632   0.514  11.024  0.2405 -0.1838  0.6812
20098TIP3    H181785   1.708   0.458  11.008 -0.0577 -1.1850  2.5098
20098TIP3    H281786   1.590   0.522  10.938 -0.2754 -3.6241  0.4681
20099TIP3   OH281787   3.756   2.862  13.366  0.1773  0.1105 -0.2999
20099TIP3    H181788   3.664   2.889  13.363  0.0621 -0.3220 -1.0399
20099TIP3    H281789   3.783   2.860  13.274  0.7160 -0.4662 -0.1368
20100TIP3   OH281790   5.205   3.659   4.524 -0.7808  0.2382 -0.9206
20100TIP3    H181791   5.296   3.681   4.509  0.0663 -1.6388  0.9864
20100TIP3    H281792   5.192   3.578   4.474 -0.9765 -0.2478 -0.1042
20101TIP3   OH281793   4.532   0.530  15.820 -0.0027  1.0656 -0.3016
20101TIP3    H181794   4.615   0.568  15.790  0.0528  2.7442  1.7740
20101TIP3    H281795   4.527   0.552  15.913 -1.2316 -1.8952  0.4719
20102TIP3   OH281796   0.906   5.400  16.539 -0.1824 -0.4617 -0.1524
20102TIP3    H181797   0.886   5.444  16.456  1.2817  1.0808  0.2615
20102TIP3    H281798   0.919   5.309  16.515  1.2033  0.1234 -1.8172
20103TIP3   OH281799   4.929   4.217   1.879 -0.0617  0.2974 -0.1921
20103TIP3    H181800   4.859   4.151   1.884 -0.6291  0.6881 -2.1664
20103TIP3    H281801   5.009   4.167   1.894 -0.7474  0.1920  4.4785
20104TIP3   OH281802   6.210   2.619   5.547 -0.1284  0.0473  0.9946
20104TIP3    H181803   6.264   2.595   5.472  1.3765 -2.2508  2.6847
20104TIP3    H281804   6.214   2.543   5.605 -2.7968  0.9712  2.5724
20105TIP3   OH281805   4.472   4.466  14.884 -0.5409  0.0507  0.1537
20105TIP3    H181806   4.388   4.487  14.843 -0.3198 -0.1318 -0.4058
20105TIP3    H281807   4.459   4.486  14.977 -0.9232  0.8788 -0.0659
20106TIP3   OH281808   5.548   5.935  11.751  0.2515 -0.2781 -0.0796
20106TIP3    H181809   5.458   5.914  11.776  0.2789  0.0016  0.2765
20106TIP3    H281810   5.564   5.886  11.671 -0.4544  0.2059 -0.5279
20107TIP3   OH281811   0.869   2.345  17.040 -0.9578  0.9625  0.1202
20107TIP3    H181812   0.788   2.302  17.067 -0.0761 -1.0759 -0.3136
20107TIP3    H281813   0.872   2.335  16.945 -0.1179  0.8347  0.1481
20108TIP3   OH281814   5.141   6.478  11.963  0.0267  0.2219  0.5141
20108TIP3    H181815   5.145   6.403  12.022  1.6731 -1.3775 -1.4528
20108TIP3    H281816   5.230   6.487  11.929 -0.4406  2.2069 -0.3830
20109TIP3   OH281817   2.266   3.317   3.382  0.0815 -0.1698  0.6889
20109TIP3    H181818   2.208   3.384   3.345  1.6391  0.5378 -0.5759
20109TIP3    H281819   2.246   3.238   3.332  0.0471  0.0110  0.4126
20110TIP3   OH281820   6.008   0.032  13.888 -0.2813 -0.1543  0.2261
20110TIP3    H181821   5.952  -0.039  13.856 -0.1834  0.0404 -0.3982
20110TIP3    H281822   5.959   0.071  13.959 -0.2300 -1.0054  0.7442
20111TIP3   OH281823   3.739   5.495  15.138  0.3704  0.6603 -0.1337
20111TIP3    H181824   3.704   5.483  15.226  0.8046  1.2416  0.1235
20111TIP3    H281825   3.830   5.523  15.152  0.5445  0.4280 -0.7699
20112TIP3   OH281826   6.161   2.753   3.318  0.2207  0.3703  0.2899
20112TIP3    H181827   6.085   2.810   3.329 -0.6231 -0.6566 -0.0858
20112TIP3    H281828   6.178   2.754   3.224  0.7228  0.6534  0.3814
20113TIP3   OH281829   5.005   6.028  11.613 -0.1873  0.1108  0.3808
20113TIP3    H181830   4.999   5.977  11.694  1.6869 -0.0069  0.4917
20113TIP3    H281831   4.973   6.115  11.638  1.7398  0.5163  1.7148
20114TIP3   OH281832   5.009   6.063   3.010  0.3917 -0.1420 -0.3041
20114TIP3    H181833   5.049   6.004   3.073 -0.0114  1.3998  1.4659
20114TIP3    H281834   4.929   6.018   2.981  0.7987 -1.0394 -0.0348
20115TIP3   OH281835   0.767   1.266   2.359 -0.0063  0.2477 -0.0326
20115TIP3    H181836   0.769   1.244   2.452  0.1669  2.1063  0.4449
20115TIP3    H281837   0.745   1.184   2.315 -4.0107  0.0225  1.8974
20116TIP3   OH281838   0.321   0.937   1.306  0.1143  0.2811  0.1125
20116TIP3    H181839   0.413   0.954   1.326  0.3219  1.8625 -1.9605
20116TIP3    H281840   0.277   0.945   1.391  1.6299  1.3730  0.8520
20117TIP3   OH281841   5.426   6.055   6.048  0.1230 -0.1758  0.0966
20117TIP3    H181842   5.395   6.038   6.137  1.0897  0.1409  0.5077
20117TIP3    H281843   5.372   6.128   6.017  1.0268  0.9712  1.1414
20118TIP3   OH281844   6.306   3.726  12.284  0.1536 -0.0092  0.4008
20118TIP3    H181845   6.331   3.753  12.372 -0.4058 -3.2186  1.6774
20118TIP3    H281846   6.280   3.634  12.293 -1.9591  0.1176 -2.7360
20119TIP3   OH281847   2.800   5.475  11.789  0.3579 -0.1176  0.5721
20119TIP3    H181848   2.757   5.497  11.872 -1.4423 -1.0132 -0.0757
20119TIP3    H281849   2.854   5.398  11.810 -3.0856 -2.9030  0.2441
20120TIP3   OH281850   1.420   1.943   0.097 -0.8014  0.1823  0.5023
20120TIP3    H181851   1.506   1.902   0.108 -0.8204  0.0904  0.3187
20120TIP3    H281852   1.363   1.894   0.157 -0.4686  1.0673  1.5800
20121TIP3   OH281853   6.578   3.952   3.138 -0.2545  0.1927  0.2888
20121TIP3    H181854   6.543   3.891   3.073  0.6607  0.7482 -0.7692
20121TIP3    H281855   6.506   4.013   3.156 -1.7171 -2.0141  2.5188
20122TIP3   OH281856   4.137   6.467   2.773 -0.1184 -0.1425 -0.2139
20122TIP3    H181857   4.199   6.493   2.842  0.1435  0.2019 -0.5734
20122TIP3    H281858   4.146   6.535   2.707 -1.9795  0.7396  0.3754
20123TIP3   OH281859   3.898   6.165  16.770 -0.0464  0.0126  0.1007
20123TIP3    H181860   3.815   6.156  16.818  0.5444 -1.3926  0.9038
20123TIP3    H281861   3.886   6.113  16.691  0.9532 -2.4251  1.4736
20124TIP3   OH281862   3.970   2.021  12.530 -0.3304 -0.6654 -0.6748
20124TIP3    H181863   4.051   1.978  12.501 -0.7609 -1.2612 -1.0201
20124TIP3    H281864   4.000   2.090  12.588  0.4929 -0.2411 -1.5615
20125TIP3   OH281865   5.789   5.544   0.651  0.3806 -0.0219 -0.3769
20125TIP3    H181866   5.802   5.464   0.701  0.8469  0.4144  0.2130
20125TIP3    H281867   5.791   5.614   0.716  3.4901  0.8019 -1.1713
20126TIP3   OH281868   0.015   3.578   2.147  0.1285 -0.4826 -0.3096
20126TIP3    H181869   0.052   3.649   2.200  0.6628 -1.5073  0.7384
20126TIP3    H281870  -0.044   3.532   2.207  1.6574 -2.3940 -0.1906
20127TIP3   OH281871   4.826   4.960   2.220 -0.4490  0.4190 -0.6175
20127TIP3    H181872   4.746   5.007   2.243 -0.2340  0.2238  0.5501
20127TIP3    H281873   4.796   4.890   2.162 -1.2855 -0.3171  0.6566
20128TIP3   OH281874   2.373   1.110  14.576 -0.0971 -0.0973  0.5632
20128TIP3    H181875   2.358   1.136  14.667  1.3786 -1.5829  1.2793
20128TIP3    H281876   2.307   1.042  14.560 -1.0389  0.8976  0.1628
20129TIP3   OH281877   3.979   1.587   2.938  0.5849 -0.1857  0.1536
20129TIP3    H181878   3.925   1.663   2.959  1.8351  0.9375 -0.4987
20129TIP3    H281879   3.950   1.560   2.851  1.1696  0.5501 -0.2881
20130TIP3   OH281880   6.247   2.450   3.165 -0.0863 -0.1777 -0.1072
20130TIP3    H181881   6.251   2.376   3.104  1.1234 -0.1092 -0.1308
20130TIP3    H281882   6.209   2.521   3.114 -1.4272 -0.8003 -0.0372
20131TIP3   OH281883   3.298   1.471   5.580 -0.0204 -0.3150  0.7992
20131TIP3    H181884   3.382   1.516   5.573  0.3130 -0.8112  1.4711
20131TIP3    H281885   3.290   1.451   5.674 -0.3986 -1.1830  0.5854
20132TIP3   OH281886   1.350   1.846   5.065  0.3965  0.0674  0.0443
20132TIP3    H181887   1.291   1.808   4.999 -0.5931 -0.6230  1.2675
20132TIP3    H281888   1.437   1.841   5.025  0.0825 -2.0290 -0.4962
20133TIP3   OH281889   1.696   4.053  11.258  0.3073  0.1087 -0.4751
20133TIP3    H181890   1.764   4.103  11.304  0.9526 -0.5743 -0.6640
20133TIP3    H281891   1.701   4.085  11.168 -1.2455  1.7543 -0.0338
20134TIP3   OH281892   6.491   1.178  13.822 -0.3296 -0.0395 -0.1124
20134TIP3    H181893   6.412   1.141  13.860 -0.2812  1.3837  1.4758
20134TIP3    H281894   6.563   1.129  13.863 -0.3421 -0.2543 -0.3457
20135TIP3   OH281895   2.104   3.143  10.949  0.3676  0.1936  0.1409
20135TIP3    H181896   2.173   3.079  10.967  1.5120  1.0397 -1.0434
20135TIP3    H281897   2.096   3.144  10.854 -0.1318  1.2864  0.1800
20136TIP3   OH281898   6.607   0.941   2.530 -0.4945  0.1440 -0.5881
20136TIP3    H181899   6.691   0.964   2.491 -1.4248  1.3779 -1.9329
20136TIP3    H281900   6.625   0.939   2.624  1.7446 -2.6417 -0.9209
20137TIP3   OH281901   0.272   3.628  13.253 -0.4368 -0.7166  0.2190
20137TIP3    H181902   0.282   3.582  13.336 -0.4564 -1.1436 -0.0124
20137TIP3    H281903   0.190   3.595  13.216 -0.7354 -0.0889  0.3040
20138TIP3   OH281904   2.927   1.627   1.183 -0.0415 -0.2321  0.1126
20138TIP3    H181905   2.905   1.719   1.172  0.9311  0.2145  1.6163
20138TIP3    H281906   2.935   1.593   1.094 -1.2467  0.9124 -0.4577
20139TIP3   OH281907   4.861   3.670   6.122  0.4135  0.5106 -0.2711
20139TIP3    H181908   4.766   3.666   6.130  0.3372  0.2466 -1.2576
20139TIP3    H281909   4.893   3.631   6.203 -0.3280 -1.3779 -0.8440
20140TIP3   OH281910   4.363   4.965   6.509  0.0411  0.4491 -0.2758
20140TIP3    H181911   4.277   5.005   6.519 -0.1181 -0.2597  1.5364
20140TIP3    H281912   4.413   4.995   6.585  0.3361 -1.6685  0.4280
20141TIP3   OH281913   1.534   3.352  13.966 -0.0176  0.5103  0.1007
20141TIP3    H181914   1.487   3.364  13.883 -1.0329  0.6175  0.6730
20141TIP3    H281915   1.569   3.439  13.986  3.0675 -0.1390 -1.8110
20142TIP3   OH281916   0.718   5.880  15.355 -0.2649 -0.1935  0.3447
20142TIP3    H181917   0.688   5.971  15.344  0.4118  0.0588  0.5162
20142TIP3    H281918   0.652   5.839  15.410 -0.1768  0.4174  0.9204
20143TIP3   OH281919   6.026   5.627   5.745  0.4589  0.4400  0.4276
20143TIP3    H181920   6.029   5.714   5.705  0.8229  0.4915  0.5567
20143TIP3    H281921   6.054   5.642   5.836  1.1071  0.1023  0.2900
20144TIP3   OH281922   4.283   1.607   5.430 -0.2035  0.2213 -0.4072
20144TIP3    H181923   4.295   1.532   5.488  1.6419  1.3731  0.8132
20144TIP3    H281924   4.331   1.585   5.351  0.6755  0.2406  0.1060
20145TIP3   OH281925   5.215   5.585   0.169 -0.0780 -0.1308  0.0895
20145TIP3    H181926   5.259   5.668   0.148  3.2850 -1.8491 -0.3879
20145TIP3    H281927   5.235   5.570   0.262 -2.4236  0.4675  0.7607
20146TIP3   OH281928   1.316   1.912  12.854  0.3987 -0.1227  0.0184
20146TIP3    H181929   1.375   1.845  12.888 -0.6819 -0.2103  1.8486
20146TIP3    H281930   1.315   1.980  12.922 -1.8957 -0.3192  0.2603
20147TIP3   OH281931   0.325   1.149   5.334 -0.1054 -0.3317 -0.6500
20147TIP3    H181932   0.359   1.225   5.286  2.5106 -0.3095  1.0595
20147TIP3    H281933   0.331   1.077   5.272  0.2192  0.2850 -1.3491
20148TIP3   OH281934   6.205   2.670  13.343  0.2838 -0.3932  0.2930
20148TIP3    H181935   6.232   2.608  13.276 -0.7412 -2.9339  2.0591
20148TIP3    H281936   6.269   2.658  13.414  0.8792  1.6535  0.1979
20149TIP3   OH281937   3.740   3.219  16.312 -0.0192 -0.4072  0.3279
20149TIP3    H181938   3.702   3.131  16.312 -0.7410 -0.1138 -0.2323
20149TIP3    H281939   3.682   3.270  16.254 -0.0406  0.6154  1.2026
20150TIP3   OH281940   1.369   1.686  11.688  0.1288  0.3370  0.3936
20150TIP3    H181941   1.314   1.641  11.752 -0.7005  0.8243  0.0365
20150TIP3    H281942   1.456   1.686  11.728 -0.0800 -0.5940  0.8933
20151TIP3   OH281943   3.726   1.888  13.711 -0.5760  0.4959  0.0639
20151TIP3    H181944   3.761   1.901  13.799 -0.6778 -0.7104  0.3030
20151TIP3    H281945   3.657   1.954  13.703  0.1123  1.2859  0.4926
20152TIP3   OH281946   6.636   0.527  14.153  0.0462 -0.2522  0.6358
20152TIP3    H181947   6.677   0.575  14.081 -0.7989 -2.2417 -1.3091
20152TIP3    H281948   6.601   0.595  14.210  3.0275  1.4525  0.6275
20153TIP3   OH281949   2.546   1.190   2.975  0.0562  0.6337  0.6688
20153TIP3    H181950   2.455   1.217   2.964 -0.6285 -1.2846  1.1184
20153TIP3    H281951   2.591   1.227   2.900 -1.1786  1.3091  0.2306
20154TIP3   OH281952   3.636   4.752  14.849  0.5023 -0.6573 -0.4072
20154TIP3    H181953   3.649   4.723  14.758 -0.6842 -0.8438 -0.5343
20154TIP3    H281954   3.585   4.682  14.889  1.7520 -0.9928  0.6713
20155TIP3   OH281955   0.622   5.116  13.335  0.1868  0.3366 -0.0800
20155TIP3    H181956   0.602   5.207  13.312  2.2411  0.9881  0.4190
20155TIP3    H281957   0.643   5.120  13.428  0.0632 -0.7045 -0.0026
20156TIP3   OH281958   1.290   6.602   6.643 -0.2798 -0.0320  0.8154
20156TIP3    H181959   1.310   6.617   6.736  0.0872 -2.2464  1.1434
20156TIP3    H281960   1.215   6.543   6.643 -1.1463  0.9875 -0.3634
20157TIP3   OH281961   5.643   3.985   1.668 -0.3614 -0.0364  0.0168
20157TIP3    H181962   5.658   3.902   1.714  0.9345 -0.3001 -0.8301
20157TIP3    H281963   5.726   4.003   1.624 -0.8068  1.4467 -0.2498
20158TIP3   OH281964   5.370   3.414   3.299 -0.0181 -0.2841 -0.9867
20158TIP3    H181965   5.397   3.498   3.336 -0.0590 -0.3369 -0.8365
20158TIP3    H281966   5.281   3.429   3.268 -0.7934 -0.8127  0.8449
20159TIP3   OH281967   0.035   5.099  14.619 -0.1572  0.0338  0.1300
20159TIP3    H181968   0.084   5.144  14.551 -1.4461  0.0819 -0.7971
20159TIP3    H281969   0.099   5.086  14.689  1.6321 -1.3513 -1.6427
20160TIP3   OH281970   0.034   5.180   3.625  0.4144  0.3504  0.1665
20160TIP3    H181971   0.091   5.145   3.556  1.2667  0.1138  0.9774
20160TIP3    H281972  -0.043   5.212   3.578 -0.1331 -2.0241 -0.7036
20161TIP3   OH281973   3.853   4.878  14.949  0.3288  0.7425  0.7454
20161TIP3    H181974   3.792   4.821  14.902 -0.8073  1.3707  1.4412
20161TIP3    H281975   3.940   4.847  14.920 -0.2977  0.2828 -0.7813
20162TIP3   OH281976   2.804   1.654  13.321 -0.1217  0.4284  0.7552
20162TIP3    H181977   2.886   1.702  13.330  0.8416 -0.8276 -0.7241
20162TIP3    H281978   2.769   1.682  13.237  1.1534 -2.2570 -0.8355
20163TIP3   OH281979   6.811   2.173   6.610  0.1316 -0.0906  0.2541
20163TIP3    H181980   6.898   2.206   6.590  1.2240 -2.0255  1.4440
20163TIP3    H281981   6.799   2.193   6.703  0.2013 -1.5832  0.6096
20164TIP3   OH281982   1.663   4.191   3.150  0.4136 -0.2300  0.1517
20164TIP3    H181983   1.728   4.213   3.084 -0.5119 -1.5963 -1.2895
20164TIP3    H281984   1.625   4.108   3.120  0.8195 -1.6219  3.0587
20165TIP3   OH281985   3.483   5.389  11.849 -0.3337 -0.5896 -0.2628
20165TIP3    H181986   3.452   5.309  11.891 -0.0549 -1.0387 -0.8892
20165TIP3    H281987   3.540   5.430  11.914 -0.4344 -0.9262  0.0409
20166TIP3   OH281988   3.932   2.122   5.788 -0.3107  0.0374  0.4024
20166TIP3    H181989   3.881   2.202   5.772  1.6386  1.0496 -1.4695
20166TIP3    H281990   3.931   2.076   5.704  1.7009  0.0698  0.3055
20167TIP3   OH281991   4.142   0.718  11.595 -0.2439  0.5685 -0.3337
20167TIP3    H181992   4.176   0.629  11.582  1.1759  1.2177 -1.3107
20167TIP3    H281993   4.047   0.708  11.585 -0.4418 -1.2614  2.2326
20168TIP3   OH281994   3.327   5.031   6.385  0.3710 -0.1717 -0.5869
20168TIP3    H181995   3.350   4.983   6.464 -1.0361 -1.6771 -1.0344
20168TIP3    H281996   3.238   5.062   6.401  0.2037 -0.1866 -1.4194
20169TIP3   OH281997   3.734   0.834  12.344 -0.4188 -0.1466 -0.1423
20169TIP3    H181998   3.653   0.825  12.294 -0.9311 -1.0127  0.8100
20169TIP3    H281999   3.800   0.788  12.292 -0.6693  0.0237 -0.6127
20170TIP3   OH282000   1.797   4.500   0.420 -0.4720 -0.2748 -0.2049
20170TIP3    H182001   1.716   4.459   0.389 -2.5568  2.4149  1.1945
20170TIP3    H282002   1.810   4.464   0.508  0.4740 -1.4436 -0.8012
20171TIP3   OH282003   2.466   5.298  16.127  0.4279  0.3400 -0.0235
20171TIP3    H182004   2.417   5.273  16.049 -0.7243 -1.6129  1.2141
20171TIP3    H282005   2.535   5.233  16.134  2.3900  2.2314 -0.9581
20172TIP3   OH282006   3.537   6.067   5.524 -0.0419 -0.3762 -0.2069
20172TIP3    H182007   3.632   6.073   5.519  0.0877 -2.0174 -0.3654
20172TIP3    H282008   3.520   5.973   5.533 -1.6577 -0.1262 -0.4489
20173TIP3   OH282009   4.380   4.028  11.291 -0.0141 -0.6126 -1.0122
20173TIP3    H182010   4.308   3.983  11.334  0.0279 -2.3495 -2.6199
20173TIP3    H282011   4.443   4.045  11.360 -1.0706 -0.9290  0.0577
20174TIP3   OH282012   4.644   2.683   3.023  0.0164 -0.4365 -0.4614
20174TIP3    H182013   4.673   2.766   3.060 -2.1730  0.4895 -0.6991
20174TIP3    H282014   4.549   2.692   3.013  0.0528 -1.8730 -3.1793
20175TIP3   OH282015   0.062   5.029  15.757  0.1005 -0.1524 -0.0016
20175TIP3    H182016   0.022   5.068  15.679  0.0984  0.3898  0.2720
20175TIP3    H282017  -0.011   4.990  15.804  0.0045  0.1248  0.0813
20176TIP3   OH282018   6.811   4.897   3.503 -0.0149 -0.5800 -0.2742
20176TIP3    H182019   6.812   4.949   3.423 -2.5706  0.1210  0.0621
20176TIP3    H282020   6.895   4.915   3.544  0.6000  0.4724 -1.9002
20177TIP3   OH282021   4.616   4.745  13.584 -0.6659 -0.2791 -0.0271
20177TIP3    H182022   4.552   4.801  13.539 -0.1119 -0.3246 -0.8834
20177TIP3    H282023   4.670   4.806  13.634 -1.1464 -0.2116  0.4270
20178TIP3   OH282024   5.973   5.381  12.708  0.3262 -0.2144 -0.3063
20178TIP3    H182025   5.962   5.469  12.672 -0.7303 -0.5378 -0.8051
20178TIP3    H282026   6.018   5.395  12.791 -0.8995  0.9191  0.2098
20179TIP3   OH282027   4.245   6.230  11.783  0.3233  0.1535 -0.1630
20179TIP3    H182028   4.290   6.288  11.722  0.1391  0.7205  0.2308
20179TIP3    H282029   4.283   6.144  11.767 -0.3521  0.0957 -1.7274
20180TIP3   OH282030   2.855   3.836   4.135 -0.4800  0.8293 -0.0069
20180TIP3    H182031   2.951   3.839   4.135 -0.4256 -0.3791  0.2134
20180TIP3    H282032   2.830   3.897   4.204  0.1986  0.1785  0.8531
20181TIP3   OH282033   5.677   3.144   0.670  0.2043 -0.4906 -0.2322
20181TIP3    H182034   5.650   3.058   0.636 -0.1116 -1.7535  2.8933
20181TIP3    H282035   5.762   3.129   0.710 -0.4467  0.2764  1.5457
20182TIP3   OH282036   6.510   3.881  15.911  0.4195  0.1696  0.0538
20182TIP3    H182037   6.451   3.832  15.968 -0.8439  0.7399 -0.7029
20182TIP3    H282038   6.463   3.887  15.827  0.8394  1.9855 -0.1057
20183TIP3   OH282039   6.494   1.260  10.981  0.2928  0.3465  0.4443
20183TIP3    H182040   6.488   1.330  10.916  0.8606 -0.1951 -0.2012
20183TIP3    H282041   6.572   1.211  10.957  0.3431 -0.0440  1.3652
20184TIP3   OH282042   1.022   1.771  12.038 -0.2207  0.0071 -0.0628
20184TIP3    H182043   0.931   1.746  12.049 -0.4118  0.8613  0.3642
20184TIP3    H282044   1.071   1.708  12.090 -0.5049 -0.8995 -0.8742
20185TIP3   OH282045   4.032   0.749   3.350  0.2202 -0.5527  0.3177
20185TIP3    H182046   4.127   0.735   3.353  0.4889  1.1058  0.6826
20185TIP3    H282047   4.021   0.840   3.377 -1.3795 -0.2981 -1.0494
20186TIP3   OH282048   3.160   1.668  15.032  0.0956  0.2253 -0.3329
20186TIP3    H182049   3.130   1.583  15.063  1.2898  0.0993  0.5579
20186TIP3    H282050   3.254   1.669  15.050  0.1538  1.6446 -0.5341
20187TIP3   OH282051   1.107   2.661   3.461 -0.4142  0.3863  0.1418
20187TIP3    H182052   1.042   2.615   3.408 -0.6374  1.5639 -0.6550
20187TIP3    H282053   1.146   2.724   3.400  0.8823  0.2656  0.8318
20188TIP3   OH282054   3.159   2.407  16.725  0.2904 -0.6908 -0.5509
20188TIP3    H182055   3.253   2.416  16.738  0.5381 -1.1741 -1.8941
20188TIP3    H282056   3.148   2.319  16.688 -0.6730 -0.5769 -0.5628
20189TIP3   OH282057   0.518   5.970   3.487 -0.0884 -0.2134  0.2885
20189TIP3    H182058   0.600   5.922   3.496  0.5526  1.0144  1.2894
20189TIP3    H282059   0.539   6.041   3.427 -1.1313 -1.3396 -1.4964
20190TIP3   OH282060   3.844   1.085   5.282  0.0329  0.4929 -0.5408
20190TIP3    H182061   3.789   1.083   5.360  0.4628 -1.0386 -0.2317
20190TIP3    H282062   3.835   1.173   5.247 -0.8138  0.9449  0.7812
20191TIP3   OH282063   3.431   6.477   0.793 -0.2211 -0.0670  0.7223
20191TIP3    H182064   3.413   6.569   0.774  0.7139 -0.0786 -0.3286
20191TIP3    H282065   3.461   6.477   0.884  1.9394  1.0164  0.0713
20192TIP3   OH282066   0.517   0.364   0.983  0.5960 -0.5712  0.5801
20192TIP3    H182067   0.608   0.338   0.991  0.7591 -0.1098  0.2955
20192TIP3    H282068   0.492   0.394   1.070  1.0122  0.2106  0.4432
20193TIP3   OH282069   5.737   1.811  15.312 -0.1222  0.1246 -0.2367
20193TIP3    H182070   5.753   1.789  15.220 -0.2729  0.9593 -0.4764
20193TIP3    H282071   5.793   1.887  15.328 -3.1388  2.7126 -0.8935
20194TIP3   OH282072   0.273   2.502   2.022 -0.2577  0.1696  0.3706
20194TIP3    H182073   0.190   2.512   2.068 -0.2249 -0.4593  0.5666
20194TIP3    H282074   0.303   2.592   2.008 -1.4151  0.4318 -0.5320
20195TIP3   OH282075   0.268   0.010  15.680 -0.3744 -0.1012  1.0727
20195TIP3    H182076   0.350  -0.024  15.716  0.7964  1.3554 -0.0462
20195TIP3    H282077   0.212  -0.067  15.669  0.8010 -1.1202  1.9445
20196TIP3   OH282078   2.813   4.397   0.765 -0.2441  0.1904 -0.2054
20196TIP3    H182079   2.758   4.357   0.697 -0.0839 -1.6354  0.6885
20196TIP3    H282080   2.827   4.327   0.829 -0.2114  1.7804  1.6196
20197TIP3   OH282081   4.827   1.627   1.653 -0.4799  0.0636 -0.0009
20197TIP3    H182082   4.858   1.538   1.672 -0.3468  0.1378  0.1265
20197TIP3    H282083   4.894   1.664   1.596  0.8097  1.0031  2.0457
20198TIP3   OH282084   5.976   2.021   3.847  0.5563  0.6520 -0.8207
20198TIP3    H182085   5.967   2.000   3.940  0.8239 -0.0268 -0.9413
20198TIP3    H282086   6.061   1.984   3.823  0.6432  1.1263 -1.2603
20199TIP3   OH282087   4.843   5.814  11.288 -0.2836 -0.9679  0.5637
20199TIP3    H182088   4.809   5.828  11.376 -0.4038 -0.9623  0.5176
20199TIP3    H282089   4.880   5.899  11.263 -1.6618 -0.4975  0.0039
20200TIP3   OH282090   5.766   6.547   0.754  0.0732 -0.2131 -0.0731
20200TIP3    H182091   5.775   6.548   0.658  2.7464  2.1007  0.0893
20200TIP3    H282092   5.770   6.639   0.779  0.6535 -0.8482  2.3756
20201TIP3   OH282093   0.677   5.289   0.802 -0.2557 -0.3104  0.0288
20201TIP3    H182094   0.705   5.343   0.876 -1.6802 -0.5921  0.8120
20201TIP3    H282095   0.712   5.334   0.725  1.1594  0.0546  0.8549
20202TIP3   OH282096   5.568   6.442  12.715  0.1208 -0.2060 -0.1953
20202TIP3    H182097   5.487   6.412  12.674  0.1971 -0.7604  0.0419
20202TIP3    H282098   5.631   6.447  12.643  0.4985 -2.0300 -0.0624
20203TIP3   OH282099   2.596   2.204   5.777  0.0278 -0.7225  0.1408
20203TIP3    H182100   2.649   2.126   5.796  0.4677  0.1619  2.9339
20203TIP3    H282101   2.551   2.223   5.858  0.9176  2.6675 -0.0102
20204TIP3   OH282102   4.155   3.506  14.598 -0.1249 -0.1332  0.6590
20204TIP3    H182103   4.127   3.423  14.558  0.5649  0.1273 -0.4052
20204TIP3    H282104   4.170   3.564  14.523  3.7024 -0.3922  1.0628
20205TIP3   OH282105   1.768   6.405   1.723  0.1802 -0.0053  0.4005
20205TIP3    H182106   1.799   6.483   1.678  1.5145 -0.7558 -0.0307
20205TIP3    H282107   1.692   6.377   1.672 -0.1198  0.8162  0.3744
20206TIP3   OH282108   1.076   3.821  13.687  0.2521 -0.2479 -0.1587
20206TIP3    H182109   1.133   3.842  13.613  1.7644 -1.1312  0.6946
20206TIP3    H282110   1.121   3.750  13.733 -0.0264  1.0137  2.2558
20207TIP3   OH282111   5.784   0.624  15.506 -0.1510 -0.1221  0.4651
20207TIP3    H182112   5.783   0.716  15.530 -0.4700 -0.0248  0.0933
20207TIP3    H282113   5.858   0.587  15.555  0.1866  0.4003  0.3568
20208TIP3   OH282114   0.981   0.530  12.835 -0.2280 -0.0864  0.1321
20208TIP3    H182115   0.988   0.543  12.929  0.8897 -2.1858  0.3998
20208TIP3    H282116   0.906   0.583  12.809 -0.6661  0.4091  2.2313
20209TIP3   OH282117   1.999   3.318   1.927 -0.3749  0.1331 -0.3239
20209TIP3    H182118   1.962   3.284   1.845 -0.5083 -0.5815  0.0298
20209TIP3    H282119   1.924   3.352   1.975 -0.8421 -2.4239  0.9400
20210TIP3   OH282120   5.514   4.856  13.353 -0.0124  0.0768  0.1477
20210TIP3    H182121   5.586   4.912  13.326  0.3726 -0.1074  0.7675
20210TIP3    H282122   5.509   4.866  13.448  0.7799 -1.7228  0.4381
20211TIP3   OH282123   4.578   3.667   5.701 -0.2680  0.5244  1.1232
20211TIP3    H182124   4.537   3.647   5.617 -0.6238  0.8333  1.2217
20211TIP3    H282125   4.516   3.633   5.766 -0.9685  2.0644  1.3002
20212TIP3   OH282126   1.608   2.501   2.794 -0.0887  0.0892  0.1083
20212TIP3    H182127   1.599   2.409   2.770  0.8669  0.6724 -2.9090
20212TIP3    H282128   1.673   2.536   2.733 -0.7306  2.8753  0.8538
20213TIP3   OH282129   4.872   0.598   5.578 -0.2767 -0.0481 -0.1873
20213TIP3    H182130   4.966   0.595   5.558 -0.5100 -2.1247 -1.1748
20213TIP3    H282131   4.853   0.513   5.619 -1.6763  0.4721  0.3135
20214TIP3   OH282132   1.236   0.440   5.280  0.3783 -0.1413  0.2900
20214TIP3    H182133   1.311   0.380   5.279  0.2160 -0.3403 -0.5498
20214TIP3    H282134   1.191   0.420   5.362  1.3424  0.1094  0.8948
20215TIP3   OH282135   4.440   1.367   4.837  0.9832  0.5292 -0.3210
20215TIP3    H182136   4.477   1.373   4.924  0.1658  1.5397 -0.0219
20215TIP3    H282137   4.423   1.457   4.811 -0.8540  0.1413 -0.6048
20216TIP3   OH282138   2.074   2.173  16.173  0.4715  0.0261 -0.1444
20216TIP3    H182139   2.084   2.085  16.209  3.5472 -0.4062 -1.7365
20216TIP3    H282140   2.042   2.159  16.083 -0.6125  0.6693  0.1245
20217TIP3   OH282141   5.828   6.055  14.964 -0.0971  0.1142 -0.4097
20217TIP3    H182142   5.877   6.120  15.014 -0.1458 -0.1803  0.0275
20217TIP3    H282143   5.737   6.068  14.991  0.1780 -1.9048  1.7563
20218TIP3   OH282144   3.176   1.237   0.955 -0.5277  0.2301 -0.0119
20218TIP3    H182145   3.168   1.149   0.992 -0.8204  0.7203  1.1638
20218TIP3    H282146   3.269   1.257   0.962 -0.3778 -0.1748 -0.7637
20219TIP3   OH282147   2.114   2.974   3.991  0.0506  0.7948  0.4228
20219TIP3    H182148   2.198   2.968   3.945 -1.0026 -1.8420 -1.3586
20219TIP3    H282149   2.122   2.911   4.063 -0.7633 -0.3265 -0.4443
20220TIP3   OH282150   0.245   0.246   6.444  0.0022 -0.0339  0.3315
20220TIP3    H182151   0.254   0.196   6.525  0.6002 -0.4404  0.0159
20220TIP3    H282152   0.239   0.337   6.474  2.8045  0.1008  0.7556
20221TIP3   OH282153   2.658   0.984   5.474  0.3714  0.2071  0.4123
20221TIP3    H182154   2.587   0.957   5.533  0.6557  1.1836  1.2354
20221TIP3    H282155   2.622   1.058   5.425 -0.7794 -2.1301 -2.6148
20222TIP3   OH282156   0.397   4.994  16.970 -0.2078 -0.0968 -0.0267
20222TIP3    H182157   0.392   5.087  16.991  1.4718  0.1959 -0.7289
20222TIP3    H282158   0.477   4.964  17.015 -0.0141 -0.8860 -0.8632
20223TIP3   OH282159   0.434   5.711   0.603 -0.1203 -0.7017 -0.1778
20223TIP3    H182160   0.514   5.758   0.580 -0.5872  0.6139  0.7737
20223TIP3    H282161   0.444   5.625   0.562  1.0225  0.0119 -1.4684
20224TIP3   OH282162   4.286   5.989   3.564  0.7037 -0.7946  0.5150
20224TIP3    H182163   4.320   6.020   3.648  0.4147 -1.4695  0.8870
20224TIP3    H282164   4.316   5.899   3.557  1.6882 -0.4056 -0.6510
20225TIP3   OH282165   0.252   0.361   1.638 -0.1129  0.0976 -0.1729
20225TIP3    H182166   0.317   0.385   1.705  0.1331 -0.9859 -0.0067
20225TIP3    H282167   0.168   0.384   1.678  0.1134  0.7552 -0.0609
20226TIP3   OH282168   3.992   4.342   3.745  0.0928  0.5535 -0.2206
20226TIP3    H182169   4.086   4.341   3.729 -0.0480  2.3004 -1.4747
20226TIP3    H282170   3.968   4.250   3.755  1.4610 -0.2160 -3.0850
20227TIP3   OH282171   2.679   0.037   1.848 -0.2564 -0.0192  0.6038
20227TIP3    H182172   2.757   0.038   1.903  0.8491  1.9601 -0.8678
20227TIP3    H282173   2.682   0.119   1.799 -1.2954 -1.4843 -2.1811
20228TIP3   OH282174   5.646   1.944   4.837 -0.6365 -0.1206  0.1891
20228TIP3    H182175   5.636   1.900   4.753 -1.0016  0.6371 -0.1722
20228TIP3    H282176   5.557   1.967   4.864 -0.4090  1.0778 -0.0118
20229TIP3   OH282177   0.937   3.425   2.467  0.1715 -0.1126  0.0038
20229TIP3    H182178   0.848   3.437   2.435  0.0577  0.9515  0.6668
20229TIP3    H282179   0.991   3.422   2.388 -0.2782  0.8445 -0.3513
20230TIP3   OH282180   5.826   3.298   4.853 -0.2800 -0.5388  1.0403
20230TIP3    H182181   5.901   3.326   4.904  0.1572 -1.4348  0.9107
20230TIP3    H282182   5.757   3.359   4.876  0.4647  0.2475  1.2233
20231TIP3   OH282183   4.474   4.309  10.531 -0.1920 -0.5360 -0.2141
20231TIP3    H182184   4.470   4.402  10.551 -0.6984 -0.1222 -1.9940
20231TIP3    H282185   4.519   4.305  10.447  1.2408 -2.0486  0.5766
20232TIP3   OH282186   5.365   5.346   2.785  0.1555 -0.1646 -0.4516
20232TIP3    H182187   5.385   5.267   2.835 -1.6821  0.6688  1.7656
20232TIP3    H282188   5.369   5.417   2.849 -0.1391  1.2945 -1.9696
20233TIP3   OH282189   1.376   5.546   3.533  0.2470 -0.0865 -0.1116
20233TIP3    H182190   1.356   5.635   3.502  0.8788 -0.2825 -1.1508
20233TIP3    H282191   1.374   5.493   3.453  1.9115 -0.6319  0.1885
20234TIP3   OH282192   1.019   6.305  15.951  0.4235  0.0020 -0.3051
20234TIP3    H182193   0.988   6.392  15.927  0.3931  0.3013  0.7464
20234TIP3    H282194   1.097   6.321  16.004  0.1038 -0.5688  0.3703
20235TIP3   OH282195   5.580   3.915  14.093  0.2818 -0.0592  0.3967
20235TIP3    H182196   5.498   3.965  14.094  0.2002 -0.0895 -1.4243
20235TIP3    H282197   5.564   3.843  14.154  0.0187  1.4713  2.2532
20236TIP3   OH282198   4.619   3.071   4.936 -0.2658 -0.2843 -0.4708
20236TIP3    H182199   4.631   2.978   4.916  0.1866 -0.5502  0.9069
20236TIP3    H282200   4.525   3.084   4.937 -0.3343 -0.7523 -0.5807
20237TIP3   OH282201   2.073   2.459  13.846  0.5065 -0.1392  0.1617
20237TIP3    H182202   2.068   2.484  13.754 -1.7955  0.8530  0.4841
20237TIP3    H282203   2.022   2.527  13.892  2.1081 -0.2493  2.2580
20238TIP3   OH282204   1.002   0.681   5.362  0.4503 -0.2322  0.1061
20238TIP3    H182205   0.927   0.715   5.412  0.8859 -0.9592  1.2949
20238TIP3    H282206   1.030   0.603   5.411  1.4052 -0.4975 -0.8379
20239TIP3   OH282207   0.831   5.561   1.829  0.4320 -0.3288 -0.0201
20239TIP3    H182208   0.843   5.478   1.875 -1.1699 -0.1166  0.8660
20239TIP3    H282209   0.856   5.628   1.892  1.3468 -0.1081 -0.5980
20240TIP3   OH282210   4.728   0.856   1.985  0.5314 -0.2026  0.2626
20240TIP3    H182211   4.667   0.788   2.015 -0.3256  0.3349 -0.1923
20240TIP3    H282212   4.749   0.906   2.063 -1.8728  1.3456  0.0106
20241TIP3   OH282213   5.050   0.387   6.309 -0.0790 -0.1112  0.2375
20241TIP3    H182214   5.104   0.420   6.237 -1.5135  0.7433 -0.5021
20241TIP3    H282215   5.007   0.465   6.344 -2.4441 -0.9489 -0.6082
20242TIP3   OH282216   5.931   4.738   4.105  0.1116 -0.5418 -0.1645
20242TIP3    H182217   5.843   4.760   4.075  0.4813  1.4483  0.1061
20242TIP3    H282218   5.964   4.819   4.144  2.1231 -1.2044 -0.3941
20243TIP3   OH282219   2.627   6.785  15.838 -0.0349 -0.3742  0.4892
20243TIP3    H182220   2.666   6.712  15.790 -1.7435 -0.5778 -0.6754
20243TIP3    H282221   2.564   6.823  15.777 -0.2472  1.1597  1.5975
20244TIP3   OH282222   6.360   0.289  15.235 -0.3913 -0.1900  0.0546
20244TIP3    H182223   6.291   0.238  15.193 -1.1402 -0.3989  1.4824
20244TIP3    H282224   6.409   0.225  15.286  0.6901  0.0116 -0.6957
20245TIP3   OH282225   2.551   2.457   5.953 -0.3309 -0.4366  0.0367
20245TIP3    H182226   2.607   2.381   5.970 -0.0030  0.0352  1.1796
20245TIP3    H282227   2.463   2.426   5.970 -0.1359 -0.3887  1.2714
20246TIP3   OH282228   2.710   1.005   3.758 -0.0606  0.5336 -0.6189
20246TIP3    H182229   2.720   0.945   3.685  0.4151 -0.5451  0.3097
20246TIP3    H282230   2.706   1.092   3.717  0.6626 -0.0064 -1.8814
20247TIP3   OH282231   5.809   5.944   3.907 -0.1476  0.3409 -0.0602
20247TIP3    H182232   5.727   5.986   3.881  0.0727  1.3925  0.9022
20247TIP3    H282233   5.851   6.006   3.966 -0.0757 -1.4385  1.8980
20248TIP3   OH282234   5.849   3.419   5.506 -0.2101  0.1176 -0.7074
20248TIP3    H182235   5.865   3.391   5.596 -1.7147  2.1585  0.2691
20248TIP3    H282236   5.771   3.371   5.480 -0.4424  0.3708 -0.4902
20249TIP3   OH282237   5.453   5.212  17.140  0.1406 -0.1080  0.2413
20249TIP3    H182238   5.470   5.183  17.050  1.0438 -0.3311  0.4816
20249TIP3    H282239   5.472   5.305  17.139  2.6421 -0.5606  0.7927
20250TIP3   OH282240   0.494   5.676  15.889 -0.1139 -0.1504 -0.0654
20250TIP3    H182241   0.426   5.612  15.912  0.3025 -0.3499  0.6433
20250TIP3    H282242   0.525   5.710  15.973  0.1485  0.4861 -0.4118
20251TIP3   OH282243   6.111   4.232   0.904 -0.0248 -0.0101  0.8937
20251TIP3    H182244   6.125   4.149   0.860  0.2335 -0.1089  1.1577
20251TIP3    H282245   6.016   4.245   0.903 -0.2689 -1.3183  2.6881
20252TIP3   OH282246   5.262   4.109   6.206 -0.2594  0.2626  0.6767
20252TIP3    H182247   5.233   4.027   6.247  0.2981  1.4017  3.6534
20252TIP3    H282248   5.283   4.166   6.280  1.6228  2.3180 -1.2856
20253TIP3   OH282249   4.883   5.385  14.517  0.5740  0.5036  0.0071
20253TIP3    H182250   4.943   5.453  14.486 -1.0786  1.0672 -2.2540
20253TIP3    H282251   4.881   5.321  14.446 -0.9020  0.1348  0.3377
20254TIP3   OH282252   6.194   1.247   0.970  1.0090 -0.4822 -0.7848
20254TIP3    H182253   6.258   1.226   1.038 -2.5755 -1.4307  2.7011
20254TIP3    H282254   6.180   1.165   0.924 -0.1005 -1.2640  0.8369
20255TIP3   OH282255   5.612   2.889   3.061  0.0800  0.0254  0.2729
20255TIP3    H182256   5.706   2.905   3.052 -0.0377 -0.0044 -1.1279
20255TIP3    H282257   5.596   2.812   3.007 -0.8630  0.4042  0.0101
20256TIP3   OH282258   3.621   1.191   5.637  0.2280 -0.0632  0.4127
20256TIP3    H182259   3.577   1.250   5.698 -0.1561  0.6497 -0.5327
20256TIP3    H282260   3.704   1.169   5.679  0.4335  1.2535  0.7171
20257TIP3   OH282261   0.736   4.820  14.486 -0.4908 -0.4093 -0.6502
20257TIP3    H182262   0.815   4.768  14.497 -0.4154 -0.4173 -1.2105
20257TIP3    H282263   0.685   4.772  14.420  0.6522  1.4405 -3.0249
20258TIP3   OH282264   4.738   6.790   3.007 -0.0804 -0.3437 -0.5991
20258TIP3    H182265   4.804   6.854   2.982 -0.1397 -0.3988 -0.9078
20258TIP3    H282266   4.691   6.830   3.080  0.9529 -0.7328  0.2990
20259TIP3   OH282267   4.490   1.813  11.896  0.3482  0.0394 -0.2534
20259TIP3    H182268   4.422   1.848  11.953 -3.7727  0.2763 -4.6374
20259TIP3    H282269   4.483   1.718  11.905  1.5183  0.0559  1.2729
20260TIP3   OH282270   2.403   6.541  13.534 -0.5307  0.5582  0.4482
20260TIP3    H182271   2.324   6.587  13.505  0.2942  1.7290  0.0046
20260TIP3    H282272   2.470   6.609  13.537  0.6468 -0.5664  0.1140
20261TIP3   OH282273   6.297   2.527  16.972  0.2503  0.4028  0.1259
20261TIP3    H182274   6.346   2.599  17.012  1.9055 -0.8072  0.3970
20261TIP3    H282275   6.267   2.474  17.046 -1.2170  0.9444 -0.0599
20262TIP3   OH282276   3.574   0.366  11.315  0.7541  0.4619  0.5614
20262TIP3    H182277   3.637   0.297  11.335  1.2761 -0.1356 -2.6337
20262TIP3    H282278   3.628   0.443  11.297  0.4262  0.5433 -0.0792
20263TIP3   OH282279   1.876   2.897   4.891 -0.4832 -0.2543  0.3225
20263TIP3    H182280   1.830   2.912   4.808  0.5908 -0.1910 -0.2739
20263TIP3    H282281   1.867   2.979   4.939  0.1154  0.2046 -0.3382
20264TIP3   OH282282   4.730   4.184   0.916 -0.1433 -0.5820 -0.6738
20264TIP3    H182283   4.710   4.196   1.009 -1.5428  0.2830 -1.0524
20264TIP3    H282284   4.820   4.213   0.907  0.3022 -1.5092  0.5637
20265TIP3   OH282285   5.103   5.846  14.707  0.2394  0.4259 -0.3800
20265TIP3    H182286   5.054   5.832  14.625  1.4095 -0.3556 -0.9663
20265TIP3    H282287   5.174   5.905  14.682 -0.1742  1.2638  0.3873
20266TIP3   OH282288   1.933   2.684  11.672 -0.1835  0.1168  0.1910
20266TIP3    H182289   1.965   2.733  11.596 -1.4187  1.1942  0.3260
20266TIP3    H282290   1.919   2.751  11.739  1.8908 -0.9325  1.7773
20267TIP3   OH282291   4.199   3.101  16.238 -0.3198  0.3535 -0.4334
20267TIP3    H182292   4.140   3.111  16.312  1.7775 -1.7317  1.6734
20267TIP3    H282293   4.172   3.019  16.196  0.1004  0.1963 -0.4029
20268TIP3   OH282294   2.112   0.367  11.986  0.3070  0.2830 -0.3374
20268TIP3    H182295   2.071   0.289  12.024  1.7232  0.0848  0.8773
20268TIP3    H282296   2.092   0.437  12.048 -1.2673  1.0184 -1.6034
20269TIP3   OH282297   0.521   4.754  13.595 -0.2319  0.0965 -0.1430
20269TIP3    H182298   0.513   4.784  13.505  1.2658 -1.7370 -0.9554
20269TIP3    H282299   0.568   4.824  13.640  0.1752  0.4670 -1.1170
20270TIP3   OH282300   1.587   1.187   2.891  0.7602  0.3445 -0.2921
20270TIP3    H182301   1.562   1.188   2.983  0.9760 -0.6466 -0.2165
20270TIP3    H282302   1.682   1.179   2.891  0.7399  0.0815 -0.6033
20271TIP3   OH282303   6.404   5.609  15.953 -0.0751  0.3699  0.2528
20271TIP3    H182304   6.356   5.549  16.010  0.7272  1.2085  1.8394
20271TIP3    H282305   6.485   5.563  15.931  0.5021  0.8174  1.4011
20272TIP3   OH282306   5.696   5.013  15.478  1.0030  0.4223 -0.2262
20272TIP3    H182307   5.740   5.097  15.467  0.6378  0.6804  0.3004
20272TIP3    H282308   5.606   5.028  15.450  0.5109  0.6349  1.3933
20273TIP3   OH282309   4.738   3.975   5.341  0.3072  0.3273 -0.1856
20273TIP3    H182310   4.738   4.061   5.382  0.0133 -1.1061  3.2339
20273TIP3    H282311   4.831   3.953   5.332  0.4229  0.0950  1.2703
20274TIP3   OH282312   5.333   6.242  16.026  0.2658  0.4943 -0.5960
20274TIP3    H182313   5.360   6.251  16.118  2.6297 -0.8956 -1.0559
20274TIP3    H282314   5.308   6.150  16.018 -1.1623  0.9097 -1.0889
20275TIP3   OH282315   2.074   1.211  11.100  0.0344  0.0243  0.3234
20275TIP3    H182316   2.099   1.121  11.118  0.0334 -0.1239 -0.3804
20275TIP3    H282317   2.156   1.255  11.079  0.0741  0.2646  0.9667
20276TIP3   OH282318   3.216   3.184  15.835  0.0613 -0.3558 -0.4692
20276TIP3    H182319   3.270   3.150  15.906  1.6156  0.4221 -1.2220
20276TIP3    H282320   3.134   3.208  15.876  1.4198  1.4636  1.3919
20277LIG      O82321   5.177   5.563   1.436 -0.1618 -0.3386  0.0315
20277LIG     C182322   5.054   5.552   1.362  0.0099 -0.6700 -0.6182
20277LIG     C282323   5.050   5.670   1.265  0.5500 -0.3068 -0.0026
20277LIG     C382324   5.052   5.427   1.283 -0.1060 -0.2401  0.0518
20277LIG     H182325   4.969   5.579   1.428 -0.0443  4.9644 -2.4670
20277LIG     H282326   5.070   5.764   1.321  1.6543  1.5431 -3.2698
20277LIG     H382327   4.950   5.677   1.218  0.1046 -1.0664  0.7995
20277LIG     H482328   5.122   5.661   1.182 -0.7679 -0.6390 -1.1461
20277LIG     H582329   5.148   5.406   1.230  0.4760 -0.6407  1.2464
20277LIG     H682330   4.967   5.424   1.212 -0.0457  1.0738 -0.1050
20277LIG     H782331   5.037   5.335   1.343  3.2468  0.8828  2.9507
20277LIG     H882332   5.167   5.490   1.497 -1.0193 -1.2591 -1.1680
   6.83683   6.83683  17.21016
