;;
;; Generated by CHARMM-GUI (http://www.charmm-gui.org) v1.7
;;
;; psf2itp_mol.py
;;
;; Correspondance:
;; jul316@lehigh.edu or wonpil@lehigh.edu
;;
;; GROMACS topology file for LIG
;;


[ moleculetype ]
; name	nrexcl
LIG	     3

[ atoms ]
; nr	type	resnr	residu	atom	cgnr	charge	mass
     1      SG311      1      LIG      S      1     -0.353    32.0600   ; qtot -0.353
     2      OG311      1      LIG     O1      2     -0.644    15.9994   ; qtot -0.997
     3      OG2D3      1      LIG     O2      3     -0.426    15.9994   ; qtot -1.423
     4      OG301      1      LIG     O3      4     -0.389    15.9994   ; qtot -1.812
     5      OG301      1      LIG     O4      5     -0.389    15.9994   ; qtot -2.201
     6      NG3P0      1      LIG      N      6     -0.454    14.0070   ; qtot -2.655
     7      CG311      1      LIG     C1      7      0.005    12.0110   ; qtot -2.650
     8      CG324      1      LIG     C2      8     -0.194    12.0110   ; qtot -2.844
     9      CG324      1      LIG     C3      9     -0.194    12.0110   ; qtot -3.038
    10      CG321      1      LIG     C4     10     -0.204    12.0110   ; qtot -3.242
    11      CG321      1      LIG     C5     11     -0.204    12.0110   ; qtot -3.446
    12      CG324      1      LIG     C6     12     -0.133    12.0110   ; qtot -3.579
    13      CG311      1      LIG     C7     13      0.138    12.0110   ; qtot -3.441
    14      CG334      1      LIG     C8     14     -0.418    12.0110   ; qtot -3.859
    15      CG321      1      LIG     C9     15     -0.152    12.0110   ; qtot -4.011
    16     CG2R61      1      LIG    C10     16      0.093    12.0110   ; qtot -3.918
    17      CG2O5      1      LIG    C11     17      0.515    12.0110   ; qtot -3.403
    18     CG3C51      1      LIG    C12     18      0.103    12.0110   ; qtot -3.300
    19     CG2R61      1      LIG    C13     19     -0.114    12.0110   ; qtot -3.414
    20     CG2R61      1      LIG    C14     20     -0.114    12.0110   ; qtot -3.528
    21     CG3C52      1      LIG    C15     21     -0.166    12.0110   ; qtot -3.694
    22     CG2RC0      1      LIG    C16     22      0.027    12.0110   ; qtot -3.667
    23     CG2R61      1      LIG    C17     23     -0.115    12.0110   ; qtot -3.782
    24     CG2R61      1      LIG    C18     24     -0.115    12.0110   ; qtot -3.897
    25     CG2RC0      1      LIG    C19     25      0.442    12.0110   ; qtot -3.455
    26     CG2R61      1      LIG    C20     26     -0.115    12.0110   ; qtot -3.570
    27     CG2R61      1      LIG    C21     27     -0.329    12.0110   ; qtot -3.899
    28     CG2R61      1      LIG    C22     28     -0.234    12.0110   ; qtot -4.133
    29     CG2R61      1      LIG    C23     29      0.184    12.0110   ; qtot -3.949
    30     CG2R61      1      LIG    C24     30      0.149    12.0110   ; qtot -3.800
    31      CG331      1      LIG    C25     31     -0.101    12.0110   ; qtot -3.901
    32      CG331      1      LIG    C26     32     -0.101    12.0110   ; qtot -4.002
    33       HGA1      1      LIG     H1     33      0.090     1.0080   ; qtot -3.912
    34       HGP5      1      LIG     H2     34      0.250     1.0080   ; qtot -3.662
    35       HGP5      1      LIG     H3     35      0.250     1.0080   ; qtot -3.412
    36       HGP5      1      LIG     H4     36      0.250     1.0080   ; qtot -3.162
    37       HGP5      1      LIG     H5     37      0.250     1.0080   ; qtot -2.912
    38       HGA2      1      LIG     H6     38      0.090     1.0080   ; qtot -2.822
    39       HGA2      1      LIG     H7     39      0.090     1.0080   ; qtot -2.732
    40       HGA2      1      LIG     H8     40      0.090     1.0080   ; qtot -2.642
    41       HGA2      1      LIG     H9     41      0.090     1.0080   ; qtot -2.552
    42       HGP5      1      LIG    H10     42      0.250     1.0080   ; qtot -2.302
    43       HGP5      1      LIG    H11     43      0.250     1.0080   ; qtot -2.052
    44       HGA1      1      LIG    H12     44      0.090     1.0080   ; qtot -1.962
    45       HGP5      1      LIG    H13     45      0.250     1.0080   ; qtot -1.712
    46       HGP5      1      LIG    H14     46      0.250     1.0080   ; qtot -1.462
    47       HGP5      1      LIG    H15     47      0.250     1.0080   ; qtot -1.212
    48       HGA2      1      LIG    H16     48      0.090     1.0080   ; qtot -1.122
    49       HGA2      1      LIG    H17     49      0.090     1.0080   ; qtot -1.032
    50       HGP1      1      LIG    H18     50      0.420     1.0080   ; qtot -0.612
    51       HGA1      1      LIG    H19     51      0.064     1.0080   ; qtot -0.548
    52      HGR61      1      LIG    H20     52      0.115     1.0080   ; qtot -0.433
    53      HGR61      1      LIG    H21     53      0.115     1.0080   ; qtot -0.318
    54       HGA2      1      LIG    H22     54      0.090     1.0080   ; qtot -0.228
    55       HGA2      1      LIG    H23     55      0.090     1.0080   ; qtot -0.138
    56      HGR61      1      LIG    H24     56      0.115     1.0080   ; qtot -0.023
    57      HGR61      1      LIG    H25     57      0.115     1.0080   ; qtot  0.092
    58      HGR61      1      LIG    H26     58      0.115     1.0080   ; qtot  0.207
    59      HGR61      1      LIG    H27     59      0.117     1.0080   ; qtot  0.324
    60      HGR61      1      LIG    H28     60      0.136     1.0080   ; qtot  0.460
    61       HGA3      1      LIG    H29     61      0.090     1.0080   ; qtot  0.550
    62       HGA3      1      LIG    H30     62      0.090     1.0080   ; qtot  0.640
    63       HGA3      1      LIG    H31     63      0.090     1.0080   ; qtot  0.730
    64       HGA3      1      LIG    H32     64      0.090     1.0080   ; qtot  0.820
    65       HGA3      1      LIG    H33     65      0.090     1.0080   ; qtot  0.910
    66       HGA3      1      LIG    H34     66      0.090     1.0080   ; qtot  1.000

[ bonds ]
; ai	aj	funct	b0	Kb
    1    18     1
    1    25     1
    2    13     1
    2    50     1
    3    17     1
    4    29     1
    4    31     1
    5    30     1
    5    32     1
    6     8     1
    6     9     1
    6    12     1
    6    14     1
    7    10     1
    7    11     1
    7    13     1
    7    33     1
    8    10     1
    8    34     1
    8    35     1
    9    11     1
    9    36     1
    9    37     1
   10    38     1
   10    39     1
   11    40     1
   11    41     1
   12    16     1
   12    42     1
   12    43     1
   13    15     1
   13    44     1
   14    45     1
   14    46     1
   14    47     1
   15    17     1
   15    48     1
   15    49     1
   16    19     1
   16    20     1
   17    18     1
   18    21     1
   18    51     1
   19    23     1
   19    52     1
   20    24     1
   20    53     1
   21    22     1
   21    54     1
   21    55     1
   22    25     1
   22    27     1
   23    26     1
   23    56     1
   24    26     1
   24    57     1
   25    28     1
   26    58     1
   27    29     1
   27    59     1
   28    30     1
   28    60     1
   29    30     1
   31    61     1
   31    62     1
   31    63     1
   32    64     1
   32    65     1
   32    66     1

[ pairs ]
; ai	aj	funct	c6	c12
    1     3     1 
    1    15     1 
    1    27     1 
    1    30     1 
    1    54     1 
    1    55     1 
    1    60     1 
    2    10     1 
    2    11     1 
    2    17     1 
    2    33     1 
    2    48     1 
    2    49     1 
    3    13     1 
    3    21     1 
    3    48     1 
    3    49     1 
    3    51     1 
    4     5     1 
    4    22     1 
    4    28     1 
    4    59     1 
    5    25     1 
    5    27     1 
    5    60     1 
    6     7     1 
    6    19     1 
    6    20     1 
    6    38     1 
    6    39     1 
    6    40     1 
    6    41     1 
    7    17     1 
    7    34     1 
    7    35     1 
    7    36     1 
    7    37     1 
    7    48     1 
    7    49     1 
    7    50     1 
    8    11     1 
    8    13     1 
    8    16     1 
    8    33     1 
    8    36     1 
    8    37     1 
    8    42     1 
    8    43     1 
    8    45     1 
    8    46     1 
    8    47     1 
    9    10     1 
    9    13     1 
    9    16     1 
    9    33     1 
    9    34     1 
    9    35     1 
    9    42     1 
    9    43     1 
    9    45     1 
    9    46     1 
    9    47     1 
   10    12     1 
   10    14     1 
   10    15     1 
   10    40     1 
   10    41     1 
   10    44     1 
   11    12     1 
   11    14     1 
   11    15     1 
   11    38     1 
   11    39     1 
   11    44     1 
   12    23     1 
   12    24     1 
   12    34     1 
   12    35     1 
   12    36     1 
   12    37     1 
   12    45     1 
   12    46     1 
   12    47     1 
   12    52     1 
   12    53     1 
   13    18     1 
   13    38     1 
   13    39     1 
   13    40     1 
   13    41     1 
   14    16     1 
   14    34     1 
   14    35     1 
   14    36     1 
   14    37     1 
   14    42     1 
   14    43     1 
   15    21     1 
   15    33     1 
   15    50     1 
   15    51     1 
   16    26     1 
   16    56     1 
   16    57     1 
   17    22     1 
   17    25     1 
   17    44     1 
   17    54     1 
   17    55     1 
   18    27     1 
   18    28     1 
   18    48     1 
   18    49     1 
   19    24     1 
   19    42     1 
   19    43     1 
   19    53     1 
   19    58     1 
   20    23     1 
   20    42     1 
   20    43     1 
   20    52     1 
   20    58     1 
   21    28     1 
   21    29     1 
   21    59     1 
   22    30     1 
   22    51     1 
   22    60     1 
   23    57     1 
   24    56     1 
   25    29     1 
   25    51     1 
   25    54     1 
   25    55     1 
   25    59     1 
   26    52     1 
   26    53     1 
   27    28     1 
   27    31     1 
   27    54     1 
   27    55     1 
   28    32     1 
   29    32     1 
   29    60     1 
   29    61     1 
   29    62     1 
   29    63     1 
   30    31     1 
   30    59     1 
   30    64     1 
   30    65     1 
   30    66     1 
   33    38     1 
   33    39     1 
   33    40     1 
   33    41     1 
   33    44     1 
   34    38     1 
   34    39     1 
   35    38     1 
   35    39     1 
   36    40     1 
   36    41     1 
   37    40     1 
   37    41     1 
   44    48     1 
   44    49     1 
   44    50     1 
   51    54     1 
   51    55     1 
   52    56     1 
   53    57     1 
   56    58     1 
   57    58     1 

[ angles ] 
; ai	aj	ak	funct	th0	cth	S0	Kub
   18     1    25     5
   13     2    50     5
   29     4    31     5
   30     5    32     5
    8     6     9     5
    8     6    12     5
    8     6    14     5
    9     6    12     5
    9     6    14     5
   12     6    14     5
   10     7    11     5
   10     7    13     5
   10     7    33     5
   11     7    13     5
   11     7    33     5
   13     7    33     5
    6     8    10     5
    6     8    34     5
    6     8    35     5
   10     8    34     5
   10     8    35     5
   34     8    35     5
    6     9    11     5
    6     9    36     5
    6     9    37     5
   11     9    36     5
   11     9    37     5
   36     9    37     5
    7    10     8     5
    7    10    38     5
    7    10    39     5
    8    10    38     5
    8    10    39     5
   38    10    39     5
    7    11     9     5
    7    11    40     5
    7    11    41     5
    9    11    40     5
    9    11    41     5
   40    11    41     5
    6    12    16     5
    6    12    42     5
    6    12    43     5
   16    12    42     5
   16    12    43     5
   42    12    43     5
    2    13     7     5
    2    13    15     5
    2    13    44     5
    7    13    15     5
    7    13    44     5
   15    13    44     5
    6    14    45     5
    6    14    46     5
    6    14    47     5
   45    14    46     5
   45    14    47     5
   46    14    47     5
   13    15    17     5
   13    15    48     5
   13    15    49     5
   17    15    48     5
   17    15    49     5
   48    15    49     5
   12    16    19     5
   12    16    20     5
   19    16    20     5
    3    17    15     5
    3    17    18     5
   15    17    18     5
    1    18    17     5
    1    18    21     5
    1    18    51     5
   17    18    21     5
   17    18    51     5
   21    18    51     5
   16    19    23     5
   16    19    52     5
   23    19    52     5
   16    20    24     5
   16    20    53     5
   24    20    53     5
   18    21    22     5
   18    21    54     5
   18    21    55     5
   22    21    54     5
   22    21    55     5
   54    21    55     5
   21    22    25     5
   21    22    27     5
   25    22    27     5
   19    23    26     5
   19    23    56     5
   26    23    56     5
   20    24    26     5
   20    24    57     5
   26    24    57     5
    1    25    22     5
    1    25    28     5
   22    25    28     5
   23    26    24     5
   23    26    58     5
   24    26    58     5
   22    27    29     5
   22    27    59     5
   29    27    59     5
   25    28    30     5
   25    28    60     5
   30    28    60     5
    4    29    27     5
    4    29    30     5
   27    29    30     5
    5    30    28     5
    5    30    29     5
   28    30    29     5
    4    31    61     5
    4    31    62     5
    4    31    63     5
   61    31    62     5
   61    31    63     5
   62    31    63     5
    5    32    64     5
    5    32    65     5
    5    32    66     5
   64    32    65     5
   64    32    66     5
   65    32    66     5

[ dihedrals ]
; ai	aj	ak	al	funct	phi0	cp	mult
   25     1    18    51     9
   18     1    25    22     9
   18     1    25    28     9
   29     4    31    61     9
   29     4    31    62     9
   29     4    31    63     9
   30     5    32    64     9
   30     5    32    65     9
   30     5    32    66     9
    9     6     8    10     9
    9     6     8    34     9
    9     6     8    35     9
   12     6     8    34     9
   12     6     8    35     9
   14     6     8    34     9
   14     6     8    35     9
    8     6     9    11     9
    8     6     9    36     9
    8     6     9    37     9
   12     6     9    36     9
   12     6     9    37     9
   14     6     9    36     9
   14     6     9    37     9
    8     6    12    16     9
    8     6    12    42     9
    8     6    12    43     9
    9     6    12    16     9
    9     6    12    42     9
    9     6    12    43     9
   14     6    12    16     9
   14     6    12    42     9
   14     6    12    43     9
    8     6    14    45     9
    8     6    14    46     9
    8     6    14    47     9
    9     6    14    45     9
    9     6    14    46     9
    9     6    14    47     9
   12     6    14    45     9
   12     6    14    46     9
   12     6    14    47     9
   11     7    10    38     9
   11     7    10    39     9
   13     7    10    38     9
   13     7    10    39     9
   33     7    10    38     9
   33     7    10    39     9
   10     7    11    40     9
   10     7    11    41     9
   13     7    11    40     9
   13     7    11    41     9
   33     7    11    40     9
   33     7    11    41     9
   10     7    13    15     9
   10     7    13    44     9
   11     7    13    15     9
   11     7    13    44     9
   33     7    13    44     9
   10     8     6    12     9
   10     8     6    14     9
    6     8    10     7     9
    6     8    10    38     9
    6     8    10    39     9
   34     8    10    38     9
   34     8    10    39     9
   35     8    10    38     9
   35     8    10    39     9
   11     9     6    12     9
   11     9     6    14     9
    6     9    11     7     9
    6     9    11    40     9
    6     9    11    41     9
   36     9    11    40     9
   36     9    11    41     9
   37     9    11    40     9
   37     9    11    41     9
    8    10     7    11     9
    8    10     7    13     9
    8    10     7    33     9
    7    10     8    34     9
    7    10     8    35     9
    9    11     7    10     9
    9    11     7    13     9
    9    11     7    33     9
    7    11     9    36     9
    7    11     9    37     9
    6    12    16    19     9
    6    12    16    20     9
    7    13     2    50     9
   15    13     2    50     9
   44    13     2    50     9
    2    13     7    10     9
    2    13     7    11     9
    2    13     7    33     9
   15    13     7    33     9
    2    13    15    17     9
    2    13    15    48     9
    2    13    15    49     9
    7    13    15    17     9
    7    13    15    48     9
    7    13    15    49     9
   44    13    15    48     9
   44    13    15    49     9
   17    15    13    44     9
   13    15    17    18     9
   19    16    12    42     9
   19    16    12    43     9
   20    16    12    42     9
   20    16    12    43     9
   12    16    19    23     9
   12    16    19    52     9
   20    16    19    23     9
   20    16    19    52     9
   12    16    20    24     9
   12    16    20    53     9
   19    16    20    24     9
   19    16    20    53     9
    3    17    15    13     9
    3    17    15    48     9
    3    17    15    49     9
   18    17    15    48     9
   18    17    15    49     9
    3    17    18    21     9
    3    17    18    51     9
   15    17    18    21     9
   15    17    18    51     9
   17    18     1    25     9
   21    18     1    25     9
    1    18    17     3     9
    1    18    17    15     9
    1    18    21    22     9
    1    18    21    54     9
    1    18    21    55     9
   17    18    21    22     9
   17    18    21    54     9
   17    18    21    55     9
   51    18    21    54     9
   51    18    21    55     9
   16    19    23    26     9
   16    19    23    56     9
   52    19    23    56     9
   16    20    24    26     9
   16    20    24    57     9
   53    20    24    57     9
   22    21    18    51     9
   18    21    22    25     9
   18    21    22    27     9
   25    22    21    54     9
   25    22    21    55     9
   27    22    21    54     9
   27    22    21    55     9
   21    22    25    28     9
   27    22    25    28     9
   21    22    27    29     9
   21    22    27    59     9
   25    22    27    29     9
   25    22    27    59     9
   26    23    19    52     9
   19    23    26    24     9
   19    23    26    58     9
   56    23    26    58     9
   26    24    20    53     9
   20    24    26    23     9
   20    24    26    58     9
   57    24    26    58     9
    1    25    22    21     9
    1    25    22    27     9
    1    25    28    30     9
    1    25    28    60     9
   22    25    28    30     9
   22    25    28    60     9
   24    26    23    56     9
   23    26    24    57     9
   22    27    29    30     9
   25    28    30    29     9
   27    29     4    31     9
   30    29     4    31     9
    4    29    27    22     9
    4    29    27    59     9
   30    29    27    59     9
    4    29    30     5     9
    4    29    30    28     9
   27    29    30    28     9
   28    30     5    32     9
   29    30     5    32     9
    5    30    28    25     9
    5    30    28    60     9
   29    30    28    60     9
    5    30    29    27     9

[ dihedrals ]
; ai	aj	ak	al	funct	q0	cq
   17    15    18     3     2
