;;
;; Generated by CHARMM-GUI (http://www.charmm-gui.org) v1.7
;;
;; psf2itp_mol.py
;;
;; Correspondance:
;; jul316@lehigh.edu or wonpil@lehigh.edu
;;
;; GROMACS topology file for LIG
;;


[ moleculetype ]
; name	nrexcl
LIG	     3

[ atoms ]
; nr	type	resnr	residu	atom	cgnr	charge	mass
     1      SG311      1      LIG     S1      1     -0.184    32.0600   ; qtot -0.184
     2      SG311      1      LIG     S2      2     -0.165    32.0600   ; qtot -0.349
     3      OG2D1      1      LIG     O1      3     -0.469    15.9994   ; qtot -0.818
     4      OG2D1      1      LIG     O2      4     -0.532    15.9994   ; qtot -1.350
     5      OG311      1      LIG     O3      5     -0.671    15.9994   ; qtot -2.021
     6      OG2D1      1      LIG    OXT      6     -0.461    15.9994   ; qtot -2.482
     7     OG3R60      1      LIG     O4      7     -0.156    15.9994   ; qtot -2.638
     8     NG2R43      1      LIG     N1      8     -0.125    14.0070   ; qtot -2.763
     9      NG2S1      1      LIG     N2      9     -0.547    14.0070   ; qtot -3.310
    10     NG2R51      1      LIG     N3     10      0.247    14.0070   ; qtot -3.063
    11     NG2R50      1      LIG     N4     11     -0.583    14.0070   ; qtot -3.646
    12     NG2R50      1      LIG     N5     12     -0.321    14.0070   ; qtot -3.967
    13     NG2R50      1      LIG     N6     13     -0.093    14.0070   ; qtot -4.060
    14     CG3RC1      1      LIG     C1     14     -0.015    12.0110   ; qtot -4.075
    15     CG3C41      1      LIG    CA1     15      0.313    12.0110   ; qtot -3.762
    16     CG2R53      1      LIG     C2     16      0.254    12.0110   ; qtot -3.508
    17     CG2D1O      1      LIG    CA2     17      0.381    12.0110   ; qtot -3.127
    18     CG2DC1      1      LIG     C3     18      0.107    12.0110   ; qtot -3.020
    19      CG321      1      LIG     C4     19     -0.079    12.0110   ; qtot -3.099
    20      CG2O1      1      LIG     C5     20      0.539    12.0110   ; qtot -2.560
    21      CG321      1      LIG     C6     21     -0.146    12.0110   ; qtot -2.706
    22     CG2R51      1      LIG     C7     22      0.521    12.0110   ; qtot -2.185
    23     CG3C52      1      LIG     C8     23     -0.172    12.0110   ; qtot -2.357
    24      CG321      1      LIG     C9     24     -0.080    12.0110   ; qtot -2.437
    25     CG3C52      1      LIG    C10     25     -0.540    12.0110   ; qtot -2.977
    26     CG2RC0      1      LIG    C11     26      0.302    12.0110   ; qtot -2.675
    27      CG2O2      1      LIG    C12     27      0.393    12.0110   ; qtot -2.282
    28     CG2RC0      1      LIG    C13     28     -0.055    12.0110   ; qtot -2.337
    29     CG2R61      1      LIG    C14     29     -0.342    12.0110   ; qtot -2.679
    30     CG2R61      1      LIG    C15     30     -0.318    12.0110   ; qtot -2.997
    31     CG2R61      1      LIG    C16     31     -0.226    12.0110   ; qtot -3.223
    32     CG2R53      1      LIG    C17     32      0.670    12.0110   ; qtot -2.553
    33      CG331      1      LIG    C18     33     -0.180    12.0110   ; qtot -2.733
    34       HGA1      1      LIG     H1     34      0.090     1.0080   ; qtot -2.643
    35       HGA1      1      LIG     HA     35      0.090     1.0080   ; qtot -2.553
    36       HGP1      1      LIG     H2     36      0.316     1.0080   ; qtot -2.237
    37       HGA2      1      LIG     H3     37      0.090     1.0080   ; qtot -2.147
    38       HGA2      1      LIG     H4     38      0.090     1.0080   ; qtot -2.057
    39       HGA2      1      LIG     H5     39      0.090     1.0080   ; qtot -1.967
    40       HGA2      1      LIG     H6     40      0.090     1.0080   ; qtot -1.877
    41       HGA2      1      LIG     H7     41      0.090     1.0080   ; qtot -1.787
    42       HGA2      1      LIG     H8     42      0.090     1.0080   ; qtot -1.697
    43       HGA2      1      LIG     H9     43      0.090     1.0080   ; qtot -1.607
    44       HGA2      1      LIG    H10     44      0.090     1.0080   ; qtot -1.517
    45       HGA2      1      LIG    H11     45      0.090     1.0080   ; qtot -1.427
    46       HGA2      1      LIG    H12     46      0.090     1.0080   ; qtot -1.337
    47      HGR61      1      LIG    H13     47      0.195     1.0080   ; qtot -1.142
    48      HGR62      1      LIG    H14     48      0.179     1.0080   ; qtot -0.963
    49       HGP1      1      LIG    H15     49      0.439     1.0080   ; qtot -0.524
    50      HGR62      1      LIG    H16     50      0.254     1.0080   ; qtot -0.270
    51       HGA3      1      LIG    H17     51      0.090     1.0080   ; qtot -0.180
    52       HGA3      1      LIG    H18     52      0.090     1.0080   ; qtot -0.090
    53       HGA3      1      LIG    H19     53      0.090     1.0080   ; qtot -0.000

[ bonds ]
; ai	aj	funct	b0	Kb
    1    14     1
    1    19     1
    2    24     1
    2    32     1
    3    16     1
    4    20     1
    5    27     1
    5    49     1
    6    27     1
    7    30     1
    7    31     1
    8    14     1
    8    16     1
    8    17     1
    9    15     1
    9    20     1
    9    36     1
   10    12     1
   10    32     1
   10    33     1
   11    13     1
   11    32     1
   12    13     1
   14    15     1
   14    34     1
   15    16     1
   15    35     1
   17    18     1
   17    27     1
   18    19     1
   18    24     1
   19    37     1
   19    38     1
   20    21     1
   21    22     1
   21    39     1
   21    40     1
   22    23     1
   22    26     1
   23    25     1
   23    41     1
   23    42     1
   24    43     1
   24    44     1
   25    28     1
   25    45     1
   25    46     1
   26    28     1
   26    29     1
   28    30     1
   29    31     1
   29    47     1
   30    48     1
   31    50     1
   33    51     1
   33    52     1
   33    53     1

[ pairs ]
; ai	aj	funct	c6	c12
    1     9     1 
    1    16     1 
    1    17     1 
    1    24     1 
    1    35     1 
    2    12     1 
    2    13     1 
    2    17     1 
    2    19     1 
    2    33     1 
    3     9     1 
    3    14     1 
    3    17     1 
    3    35     1 
    4    15     1 
    4    22     1 
    4    36     1 
    4    39     1 
    4    40     1 
    5     8     1 
    5    18     1 
    6     8     1 
    6    18     1 
    6    49     1 
    7    25     1 
    7    26     1 
    7    47     1 
    8     9     1 
    8    14     1 
    8    16     1 
    8    19     1 
    8    24     1 
    8    35     1 
    9    22     1 
    9    34     1 
    9    39     1 
    9    40     1 
   10    24     1 
   11    24     1 
   11    33     1 
   12    51     1 
   12    52     1 
   12    53     1 
   13    33     1 
   14    15     1 
   14    18     1 
   14    20     1 
   14    27     1 
   14    36     1 
   14    37     1 
   14    38     1 
   15    16     1 
   15    17     1 
   15    19     1 
   15    21     1 
   16    18     1 
   16    20     1 
   16    27     1 
   16    34     1 
   16    36     1 
   17    34     1 
   17    37     1 
   17    38     1 
   17    43     1 
   17    44     1 
   17    49     1 
   18    32     1 
   19    27     1 
   19    34     1 
   19    43     1 
   19    44     1 
   20    23     1 
   20    26     1 
   20    35     1 
   21    25     1 
   21    28     1 
   21    29     1 
   21    36     1 
   21    41     1 
   21    42     1 
   22    30     1 
   22    31     1 
   22    45     1 
   22    46     1 
   22    47     1 
   23    29     1 
   23    30     1 
   23    39     1 
   23    40     1 
   24    27     1 
   24    37     1 
   24    38     1 
   25    29     1 
   25    48     1 
   26    39     1 
   26    40     1 
   26    41     1 
   26    42     1 
   26    45     1 
   26    46     1 
   26    48     1 
   26    50     1 
   28    31     1 
   28    41     1 
   28    42     1 
   28    47     1 
   29    30     1 
   30    45     1 
   30    46     1 
   30    50     1 
   31    48     1 
   32    43     1 
   32    44     1 
   32    51     1 
   32    52     1 
   32    53     1 
   34    35     1 
   35    36     1 
   41    45     1 
   41    46     1 
   42    45     1 
   42    46     1 
   47    50     1 

[ angles ] 
; ai	aj	ak	funct	th0	cth	S0	Kub
   14     1    19     5
   24     2    32     5
   27     5    49     5
   30     7    31     5
   14     8    16     5
   14     8    17     5
   16     8    17     5
   15     9    20     5
   15     9    36     5
   20     9    36     5
   12    10    32     5
   12    10    33     5
   32    10    33     5
   13    11    32     5
   10    12    13     5
   11    13    12     5
    1    14     8     5
    1    14    15     5
    1    14    34     5
    8    14    15     5
    8    14    34     5
   15    14    34     5
    9    15    14     5
    9    15    16     5
    9    15    35     5
   14    15    16     5
   14    15    35     5
   16    15    35     5
    3    16     8     5
    3    16    15     5
    8    16    15     5
    8    17    18     5
    8    17    27     5
   18    17    27     5
   17    18    19     5
   17    18    24     5
   19    18    24     5
    1    19    18     5
    1    19    37     5
    1    19    38     5
   18    19    37     5
   18    19    38     5
   37    19    38     5
    4    20     9     5
    4    20    21     5
    9    20    21     5
   20    21    22     5
   20    21    39     5
   20    21    40     5
   22    21    39     5
   22    21    40     5
   39    21    40     5
   21    22    23     5
   21    22    26     5
   23    22    26     5
   22    23    25     5
   22    23    41     5
   22    23    42     5
   25    23    41     5
   25    23    42     5
   41    23    42     5
    2    24    18     5
    2    24    43     5
    2    24    44     5
   18    24    43     5
   18    24    44     5
   43    24    44     5
   23    25    28     5
   23    25    45     5
   23    25    46     5
   28    25    45     5
   28    25    46     5
   45    25    46     5
   22    26    28     5
   22    26    29     5
   28    26    29     5
    5    27     6     5
    5    27    17     5
    6    27    17     5
   25    28    26     5
   25    28    30     5
   26    28    30     5
   26    29    31     5
   26    29    47     5
   31    29    47     5
    7    30    28     5
    7    30    48     5
   28    30    48     5
    7    31    29     5
    7    31    50     5
   29    31    50     5
    2    32    10     5
    2    32    11     5
   10    32    11     5
   10    33    51     5
   10    33    52     5
   10    33    53     5
   51    33    52     5
   51    33    53     5
   52    33    53     5

[ dihedrals ]
; ai	aj	ak	al	funct	phi0	cp	mult
   19     1    14    34     9
   14     1    19    18     9
   14     1    19    37     9
   14     1    19    38     9
   32     2    24    43     9
   32     2    24    44     9
   31     7    30    48     9
   30     7    31    50     9
   16     8    14    34     9
   17     8    14    34     9
   14     8    16    15     9
   14     8    17    18     9
   14     8    17    27     9
   16     8    17    18     9
   16     8    17    27     9
   20     9    15    35     9
   15     9    20    21     9
   12    10    33    51     9
   12    10    33    52     9
   12    10    33    53     9
   32    10    33    51     9
   32    10    33    52     9
   32    10    33    53     9
   13    12    10    32     9
   13    12    10    33     9
   10    12    13    11     9
   12    13    11    32     9
    8    14     1    19     9
   15    14     1    19     9
    1    14     8    16     9
    1    14     8    17     9
   15    14     8    16     9
   15    14     8    17     9
    1    14    15     9     9
    1    14    15    16     9
    1    14    15    35     9
    8    14    15     9     9
    8    14    15    16     9
    8    14    15    35     9
   34    14    15    35     9
   14    15     9    20     9
   14    15     9    36     9
   16    15     9    20     9
   16    15     9    36     9
   35    15     9    36     9
    9    15    14    34     9
   16    15    14    34     9
    3    16     8    14     9
    3    16     8    17     9
   15    16     8    17     9
    3    16    15     9     9
    3    16    15    14     9
    3    16    15    35     9
    8    16    15     9     9
    8    16    15    14     9
    8    16    15    35     9
    8    17    18    19     9
    8    17    18    24     9
   19    18    17    27     9
   24    18    17    27     9
   17    18    19    37     9
   17    18    19    38     9
   24    18    19    37     9
   24    18    19    38     9
   17    18    24    43     9
   17    18    24    44     9
   19    18    24    43     9
   19    18    24    44     9
    1    19    18    17     9
    1    19    18    24     9
    4    20     9    15     9
    4    20     9    36     9
   21    20     9    36     9
    4    20    21    22     9
    4    20    21    39     9
    4    20    21    40     9
    9    20    21    22     9
    9    20    21    39     9
    9    20    21    40     9
   20    21    22    23     9
   20    21    22    26     9
   23    22    21    39     9
   23    22    21    40     9
   26    22    21    39     9
   26    22    21    40     9
   21    22    23    25     9
   21    22    23    41     9
   21    22    23    42     9
   26    22    23    41     9
   26    22    23    42     9
   21    22    26    28     9
   21    22    26    29     9
   23    22    26    28     9
   23    22    26    29     9
   25    23    22    26     9
   22    23    25    28     9
   22    23    25    45     9
   22    23    25    46     9
   41    23    25    45     9
   41    23    25    46     9
   42    23    25    45     9
   42    23    25    46     9
   18    24     2    32     9
    2    24    18    17     9
    2    24    18    19     9
   28    25    23    41     9
   28    25    23    42     9
   23    25    28    26     9
   23    25    28    30     9
   22    26    28    25     9
   22    26    28    30     9
   29    26    28    30     9
   22    26    29    31     9
   22    26    29    47     9
   28    26    29    31     9
   28    26    29    47     9
    6    27     5    49     9
   17    27     5    49     9
    5    27    17     8     9
    5    27    17    18     9
    6    27    17     8     9
    6    27    17    18     9
   26    28    25    45     9
   26    28    25    46     9
   30    28    25    45     9
   30    28    25    46     9
   25    28    26    29     9
   25    28    30    48     9
   26    28    30    48     9
   26    29    31    50     9
   47    29    31    50     9
   28    30     7    31     9
    7    30    28    25     9
    7    30    28    26     9
   29    31     7    30     9
    7    31    29    26     9
    7    31    29    47     9
   10    32     2    24     9
   11    32     2    24     9
    2    32    10    12     9
    2    32    10    33     9
   11    32    10    12     9
   11    32    10    33     9
    2    32    11    13     9
   10    32    11    13     9

[ dihedrals ]
; ai	aj	ak	al	funct	q0	cq
   16    15     8     3     2
   17    18    27     8     2
   20    21     9     4     2
   27    17     6     5     2
