;;
;; Generated by CHARMM-GUI FF-Converter
;;
;; Correspondance:
;; jul316@lehigh.edu or wonpil@lehigh.edu
;;
;; The main GROMACS topology file
;;

; Include forcefield parameters
#include "toppar/forcefield.itp"
#include "toppar/CHL1.itp"
#include "toppar/SLPC.itp"
#include "toppar/POPC.itp"
#include "toppar/OSM.itp"
#include "toppar/SAPC.itp"
#include "toppar/SOPE.itp"
#include "toppar/SAPE.itp"
#include "toppar/SAPS.itp"
#include "toppar/SAPI.itp"
#include "toppar/POT.itp"
#include "toppar/CLA.itp"
#include "toppar/TIP3.itp"

[ system ]
; Name
Title

[ molecules ]
; Compound	#mols
CHL1  	          56
SLPC  	          16
POPC  	           8
OSM   	          36
SAPC  	          16
SOPE  	          12
SAPE  	          28
SAPS  	          16
SAPI  	           4
POT   	          37
CLA   	          17
TIP3  	        6954
