;;
;; Generated by CHARMM-GUI (http://www.charmm-gui.org) v1.7
;;
;; psf2itp_mol.py
;;
;; Correspondance:
;; jul316@lehigh.edu or wonpil@lehigh.edu
;;
;; GROMACS topology file for LIG
;;


[ moleculetype ]
; name	nrexcl
LIG	     3

[ atoms ]
; nr	type	resnr	residu	atom	cgnr	charge	mass
     1      OG302      1      LIG     O1      1     -0.487    15.9994   ; qtot -0.487
     2      OG2D1      1      LIG     O2      2     -0.621    15.9994   ; qtot -1.108
     3      OG311      1      LIG     O3      3     -0.650    15.9994   ; qtot -1.758
     4      OG301      1      LIG     O4      4     -0.393    15.9994   ; qtot -2.151
     5      NG3P0      1      LIG      N      5     -0.587    14.0070   ; qtot -2.738
     6     CG3RC1      1      LIG     C1      6      0.314    12.0110   ; qtot -2.424
     7     CG3RC1      1      LIG     C2      7      0.314    12.0110   ; qtot -2.110
     8     CG3C52      1      LIG     C3      8     -0.181    12.0110   ; qtot -2.291
     9     CG3C52      1      LIG     C4      9     -0.181    12.0110   ; qtot -2.472
    10      CG321      1      LIG     C5     10     -0.194    12.0110   ; qtot -2.666
    11      CG321      1      LIG     C6     11     -0.194    12.0110   ; qtot -2.860
    12      CG311      1      LIG     C7     12      0.170    12.0110   ; qtot -2.690
    13      CG324      1      LIG     C8     13     -0.111    12.0110   ; qtot -2.801
    14      CG334      1      LIG     C9     14     -0.350    12.0110   ; qtot -3.151
    15      CG321      1      LIG    C10     15     -0.177    12.0110   ; qtot -3.328
    16     CG2R61      1      LIG    C11     16     -0.003    12.0110   ; qtot -3.331
    17      CG2O2      1      LIG    C12     17      0.908    12.0110   ; qtot -2.423
    18     CG2R61      1      LIG    C13     18     -0.117    12.0110   ; qtot -2.540
    19     CG2R61      1      LIG    C14     19     -0.117    12.0110   ; qtot -2.657
    20      CG311      1      LIG    C15     20     -0.068    12.0110   ; qtot -2.725
    21     CG2R61      1      LIG    C16     21     -0.108    12.0110   ; qtot -2.833
    22     CG2R61      1      LIG    C17     22     -0.108    12.0110   ; qtot -2.941
    23      CG321      1      LIG    C18     23     -0.031    12.0110   ; qtot -2.972
    24     CG2R61      1      LIG    C19     24     -0.062    12.0110   ; qtot -3.034
    25     CG2R61      1      LIG    C20     25      0.222    12.0110   ; qtot -2.812
    26     CG2R61      1      LIG    C21     26     -0.079    12.0110   ; qtot -2.891
    27     CG2R61      1      LIG    C22     27     -0.079    12.0110   ; qtot -2.970
    28     CG2R61      1      LIG    C23     28     -0.115    12.0110   ; qtot -3.085
    29     CG2R61      1      LIG    C24     29     -0.115    12.0110   ; qtot -3.200
    30      CG321      1      LIG    C25     30     -0.008    12.0110   ; qtot -3.208
    31     CG2R61      1      LIG    C26     31     -0.115    12.0110   ; qtot -3.323
    32      CG321      1      LIG    C27     32     -0.181    12.0110   ; qtot -3.504
    33      CG321      1      LIG    C28     33     -0.177    12.0110   ; qtot -3.681
    34      CG331      1      LIG    C29     34     -0.273    12.0110   ; qtot -3.954
    35       HGP5      1      LIG     H1     35      0.090     1.0080   ; qtot -3.864
    36       HGP5      1      LIG     H2     36      0.090     1.0080   ; qtot -3.774
    37       HGA2      1      LIG     H3     37      0.090     1.0080   ; qtot -3.684
    38       HGA2      1      LIG     H4     38      0.090     1.0080   ; qtot -3.594
    39       HGA2      1      LIG     H5     39      0.090     1.0080   ; qtot -3.504
    40       HGA2      1      LIG     H6     40      0.090     1.0080   ; qtot -3.414
    41       HGA2      1      LIG     H7     41      0.090     1.0080   ; qtot -3.324
    42       HGA2      1      LIG     H8     42      0.090     1.0080   ; qtot -3.234
    43       HGA2      1      LIG     H9     43      0.090     1.0080   ; qtot -3.144
    44       HGA2      1      LIG    H10     44      0.090     1.0080   ; qtot -3.054
    45       HGA1      1      LIG    H11     45      0.090     1.0080   ; qtot -2.964
    46       HGP5      1      LIG    H12     46      0.250     1.0080   ; qtot -2.714
    47       HGP5      1      LIG    H13     47      0.250     1.0080   ; qtot -2.464
    48       HGP5      1      LIG    H14     48      0.250     1.0080   ; qtot -2.214
    49       HGP5      1      LIG    H15     49      0.250     1.0080   ; qtot -1.964
    50       HGP5      1      LIG    H16     50      0.250     1.0080   ; qtot -1.714
    51       HGA2      1      LIG    H17     51      0.090     1.0080   ; qtot -1.624
    52       HGA2      1      LIG    H18     52      0.090     1.0080   ; qtot -1.534
    53      HGR61      1      LIG    H19     53      0.115     1.0080   ; qtot -1.419
    54      HGR61      1      LIG    H20     54      0.115     1.0080   ; qtot -1.304
    55       HGA1      1      LIG    H21     55      0.090     1.0080   ; qtot -1.214
    56      HGR61      1      LIG    H22     56      0.115     1.0080   ; qtot -1.099
    57      HGR61      1      LIG    H23     57      0.115     1.0080   ; qtot -0.984
    58       HGA2      1      LIG    H24     58      0.090     1.0080   ; qtot -0.894
    59       HGA2      1      LIG    H25     59      0.090     1.0080   ; qtot -0.804
    60      HGR61      1      LIG    H26     60      0.115     1.0080   ; qtot -0.689
    61      HGR61      1      LIG    H27     61      0.115     1.0080   ; qtot -0.574
    62       HGP1      1      LIG    H28     62      0.419     1.0080   ; qtot -0.155
    63      HGR61      1      LIG    H29     63      0.115     1.0080   ; qtot -0.040
    64      HGR61      1      LIG    H30     64      0.115     1.0080   ; qtot  0.075
    65       HGA2      1      LIG    H31     65      0.090     1.0080   ; qtot  0.165
    66       HGA2      1      LIG    H32     66      0.090     1.0080   ; qtot  0.255
    67      HGR61      1      LIG    H33     67      0.115     1.0080   ; qtot  0.370
    68       HGA2      1      LIG    H34     68      0.090     1.0080   ; qtot  0.460
    69       HGA2      1      LIG    H35     69      0.090     1.0080   ; qtot  0.550
    70       HGA2      1      LIG    H36     70      0.090     1.0080   ; qtot  0.640
    71       HGA2      1      LIG    H37     71      0.090     1.0080   ; qtot  0.730
    72       HGA3      1      LIG    H38     72      0.090     1.0080   ; qtot  0.820
    73       HGA3      1      LIG    H39     73      0.090     1.0080   ; qtot  0.910
    74       HGA3      1      LIG    H40     74      0.090     1.0080   ; qtot  1.000

[ bonds ]
; ai	aj	funct	b0	Kb
    1    12     1
    1    17     1
    2    17     1
    3    23     1
    3    62     1
    4    25     1
    4    30     1
    5     6     1
    5     7     1
    5    13     1
    5    14     1
    6     8     1
    6    10     1
    6    35     1
    7     9     1
    7    11     1
    7    36     1
    8     9     1
    8    37     1
    8    38     1
    9    39     1
    9    40     1
   10    12     1
   10    41     1
   10    42     1
   11    12     1
   11    43     1
   11    44     1
   12    45     1
   13    15     1
   13    46     1
   13    47     1
   14    48     1
   14    49     1
   14    50     1
   15    16     1
   15    51     1
   15    52     1
   16    18     1
   16    19     1
   17    20     1
   18    21     1
   18    53     1
   19    22     1
   19    54     1
   20    23     1
   20    24     1
   20    55     1
   21    25     1
   21    56     1
   22    25     1
   22    57     1
   23    58     1
   23    59     1
   24    26     1
   24    27     1
   26    28     1
   26    60     1
   27    29     1
   27    61     1
   28    31     1
   28    63     1
   29    31     1
   29    64     1
   30    32     1
   30    65     1
   30    66     1
   31    67     1
   32    33     1
   32    68     1
   32    69     1
   33    34     1
   33    70     1
   33    71     1
   34    72     1
   34    73     1
   34    74     1

[ pairs ]
; ai	aj	funct	c6	c12
    1     6     1 
    1     7     1 
    1    23     1 
    1    24     1 
    1    41     1 
    1    42     1 
    1    43     1 
    1    44     1 
    1    55     1 
    2    12     1 
    2    23     1 
    2    24     1 
    2    55     1 
    3    17     1 
    3    24     1 
    3    55     1 
    4    18     1 
    4    19     1 
    4    33     1 
    4    56     1 
    4    57     1 
    4    68     1 
    4    69     1 
    5    12     1 
    5    16     1 
    5    37     1 
    5    38     1 
    5    39     1 
    5    40     1 
    5    41     1 
    5    42     1 
    5    43     1 
    5    44     1 
    5    51     1 
    5    52     1 
    6    11     1 
    6    15     1 
    6    36     1 
    6    39     1 
    6    40     1 
    6    45     1 
    6    46     1 
    6    47     1 
    6    48     1 
    6    49     1 
    6    50     1 
    7    10     1 
    7    15     1 
    7    35     1 
    7    37     1 
    7    38     1 
    7    45     1 
    7    46     1 
    7    47     1 
    7    48     1 
    7    49     1 
    7    50     1 
    8    11     1 
    8    12     1 
    8    13     1 
    8    14     1 
    8    36     1 
    8    41     1 
    8    42     1 
    9    10     1 
    9    12     1 
    9    13     1 
    9    14     1 
    9    35     1 
    9    43     1 
    9    44     1 
   10    13     1 
   10    14     1 
   10    17     1 
   10    37     1 
   10    38     1 
   10    43     1 
   10    44     1 
   11    13     1 
   11    14     1 
   11    17     1 
   11    39     1 
   11    40     1 
   11    41     1 
   11    42     1 
   12    20     1 
   12    35     1 
   12    36     1 
   13    18     1 
   13    19     1 
   13    35     1 
   13    36     1 
   13    48     1 
   13    49     1 
   13    50     1 
   14    15     1 
   14    35     1 
   14    36     1 
   14    46     1 
   14    47     1 
   15    21     1 
   15    22     1 
   15    53     1 
   15    54     1 
   16    25     1 
   16    46     1 
   16    47     1 
   16    56     1 
   16    57     1 
   17    26     1 
   17    27     1 
   17    45     1 
   17    58     1 
   17    59     1 
   18    22     1 
   18    51     1 
   18    52     1 
   18    54     1 
   19    21     1 
   19    51     1 
   19    52     1 
   19    53     1 
   20    28     1 
   20    29     1 
   20    60     1 
   20    61     1 
   20    62     1 
   21    30     1 
   21    57     1 
   22    30     1 
   22    56     1 
   23    26     1 
   23    27     1 
   24    31     1 
   24    58     1 
   24    59     1 
   24    63     1 
   24    64     1 
   25    32     1 
   25    53     1 
   25    54     1 
   25    65     1 
   25    66     1 
   26    29     1 
   26    55     1 
   26    61     1 
   26    67     1 
   27    28     1 
   27    55     1 
   27    60     1 
   27    67     1 
   28    64     1 
   29    63     1 
   30    34     1 
   30    70     1 
   30    71     1 
   31    60     1 
   31    61     1 
   32    72     1 
   32    73     1 
   32    74     1 
   33    65     1 
   33    66     1 
   34    68     1 
   34    69     1 
   35    37     1 
   35    38     1 
   35    41     1 
   35    42     1 
   36    39     1 
   36    40     1 
   36    43     1 
   36    44     1 
   37    39     1 
   37    40     1 
   38    39     1 
   38    40     1 
   41    45     1 
   42    45     1 
   43    45     1 
   44    45     1 
   46    51     1 
   46    52     1 
   47    51     1 
   47    52     1 
   53    56     1 
   54    57     1 
   55    58     1 
   55    59     1 
   58    62     1 
   59    62     1 
   60    63     1 
   61    64     1 
   63    67     1 
   64    67     1 
   65    68     1 
   65    69     1 
   66    68     1 
   66    69     1 
   68    70     1 
   68    71     1 
   69    70     1 
   69    71     1 
   70    72     1 
   70    73     1 
   70    74     1 
   71    72     1 
   71    73     1 
   71    74     1 

[ angles ] 
; ai	aj	ak	funct	th0	cth	S0	Kub
   12     1    17     5
   23     3    62     5
   25     4    30     5
    6     5     7     5
    6     5    13     5
    6     5    14     5
    7     5    13     5
    7     5    14     5
   13     5    14     5
    5     6     8     5
    5     6    10     5
    5     6    35     5
    8     6    10     5
    8     6    35     5
   10     6    35     5
    5     7     9     5
    5     7    11     5
    5     7    36     5
    9     7    11     5
    9     7    36     5
   11     7    36     5
    6     8     9     5
    6     8    37     5
    6     8    38     5
    9     8    37     5
    9     8    38     5
   37     8    38     5
    7     9     8     5
    7     9    39     5
    7     9    40     5
    8     9    39     5
    8     9    40     5
   39     9    40     5
    6    10    12     5
    6    10    41     5
    6    10    42     5
   12    10    41     5
   12    10    42     5
   41    10    42     5
    7    11    12     5
    7    11    43     5
    7    11    44     5
   12    11    43     5
   12    11    44     5
   43    11    44     5
    1    12    10     5
    1    12    11     5
    1    12    45     5
   10    12    11     5
   10    12    45     5
   11    12    45     5
    5    13    15     5
    5    13    46     5
    5    13    47     5
   15    13    46     5
   15    13    47     5
   46    13    47     5
    5    14    48     5
    5    14    49     5
    5    14    50     5
   48    14    49     5
   48    14    50     5
   49    14    50     5
   13    15    16     5
   13    15    51     5
   13    15    52     5
   16    15    51     5
   16    15    52     5
   51    15    52     5
   15    16    18     5
   15    16    19     5
   18    16    19     5
    1    17     2     5
    1    17    20     5
    2    17    20     5
   16    18    21     5
   16    18    53     5
   21    18    53     5
   16    19    22     5
   16    19    54     5
   22    19    54     5
   17    20    23     5
   17    20    24     5
   17    20    55     5
   23    20    24     5
   23    20    55     5
   24    20    55     5
   18    21    25     5
   18    21    56     5
   25    21    56     5
   19    22    25     5
   19    22    57     5
   25    22    57     5
    3    23    20     5
    3    23    58     5
    3    23    59     5
   20    23    58     5
   20    23    59     5
   58    23    59     5
   20    24    26     5
   20    24    27     5
   26    24    27     5
    4    25    21     5
    4    25    22     5
   21    25    22     5
   24    26    28     5
   24    26    60     5
   28    26    60     5
   24    27    29     5
   24    27    61     5
   29    27    61     5
   26    28    31     5
   26    28    63     5
   31    28    63     5
   27    29    31     5
   27    29    64     5
   31    29    64     5
    4    30    32     5
    4    30    65     5
    4    30    66     5
   32    30    65     5
   32    30    66     5
   65    30    66     5
   28    31    29     5
   28    31    67     5
   29    31    67     5
   30    32    33     5
   30    32    68     5
   30    32    69     5
   33    32    68     5
   33    32    69     5
   68    32    69     5
   32    33    34     5
   32    33    70     5
   32    33    71     5
   34    33    70     5
   34    33    71     5
   70    33    71     5
   33    34    72     5
   33    34    73     5
   33    34    74     5
   72    34    73     5
   72    34    74     5
   73    34    74     5

[ dihedrals ]
; ai	aj	ak	al	funct	phi0	cp	mult
   17     1    12    45     9
   12     1    17    20     9
   25     4    30    32     9
   25     4    30    65     9
   25     4    30    66     9
    7     5     6     8     9
    7     5     6    10     9
    7     5     6    35     9
   13     5     6    35     9
   14     5     6    35     9
    6     5     7     9     9
    6     5     7    11     9
    6     5     7    36     9
   13     5     7    36     9
   14     5     7    36     9
    6     5    13    15     9
    6     5    13    46     9
    6     5    13    47     9
    7     5    13    15     9
    7     5    13    46     9
    7     5    13    47     9
   14     5    13    15     9
   14     5    13    46     9
   14     5    13    47     9
    6     5    14    48     9
    6     5    14    49     9
    6     5    14    50     9
    7     5    14    48     9
    7     5    14    49     9
    7     5    14    50     9
   13     5    14    48     9
   13     5    14    49     9
   13     5    14    50     9
    8     6     5    13     9
    8     6     5    14     9
   10     6     5    13     9
   10     6     5    14     9
    5     6     8     9     9
    5     6     8    37     9
    5     6     8    38     9
   10     6     8    37     9
   10     6     8    38     9
   35     6     8    37     9
   35     6     8    38     9
    5     6    10    12     9
    5     6    10    41     9
    5     6    10    42     9
    8     6    10    12     9
    8     6    10    41     9
    8     6    10    42     9
   35     6    10    41     9
   35     6    10    42     9
    9     7     5    13     9
    9     7     5    14     9
   11     7     5    13     9
   11     7     5    14     9
    5     7     9     8     9
    5     7     9    39     9
    5     7     9    40     9
   11     7     9    39     9
   11     7     9    40     9
   36     7     9    39     9
   36     7     9    40     9
    5     7    11    12     9
    5     7    11    43     9
    5     7    11    44     9
    9     7    11    12     9
    9     7    11    43     9
    9     7    11    44     9
   36     7    11    43     9
   36     7    11    44     9
    9     8     6    10     9
    9     8     6    35     9
    6     8     9     7     9
    6     8     9    39     9
    6     8     9    40     9
   37     8     9    39     9
   37     8     9    40     9
   38     8     9    39     9
   38     8     9    40     9
    8     9     7    11     9
    8     9     7    36     9
    7     9     8    37     9
    7     9     8    38     9
   12    10     6    35     9
    6    10    12    11     9
    6    10    12    45     9
   41    10    12    45     9
   42    10    12    45     9
   12    11     7    36     9
    7    11    12    10     9
    7    11    12    45     9
   43    11    12    45     9
   44    11    12    45     9
   10    12     1    17     9
   11    12     1    17     9
    1    12    10     6     9
    1    12    10    41     9
    1    12    10    42     9
   11    12    10    41     9
   11    12    10    42     9
    1    12    11     7     9
    1    12    11    43     9
    1    12    11    44     9
   10    12    11    43     9
   10    12    11    44     9
    5    13    15    16     9
    5    13    15    51     9
    5    13    15    52     9
   46    13    15    51     9
   46    13    15    52     9
   47    13    15    51     9
   47    13    15    52     9
   16    15    13    46     9
   16    15    13    47     9
   13    15    16    18     9
   13    15    16    19     9
   18    16    15    51     9
   18    16    15    52     9
   19    16    15    51     9
   19    16    15    52     9
   15    16    18    21     9
   15    16    18    53     9
   19    16    18    21     9
   19    16    18    53     9
   15    16    19    22     9
   15    16    19    54     9
   18    16    19    22     9
   18    16    19    54     9
    2    17     1    12     9
    1    17    20    23     9
    1    17    20    24     9
    1    17    20    55     9
    2    17    20    23     9
    2    17    20    24     9
    2    17    20    55     9
   16    18    21    25     9
   16    18    21    56     9
   53    18    21    56     9
   16    19    22    25     9
   16    19    22    57     9
   54    19    22    57     9
   17    20    23    58     9
   17    20    23    59     9
   24    20    23    58     9
   24    20    23    59     9
   55    20    23    58     9
   55    20    23    59     9
   17    20    24    26     9
   17    20    24    27     9
   23    20    24    26     9
   23    20    24    27     9
   25    21    18    53     9
   18    21    25    22     9
   25    22    19    54     9
   19    22    25    21     9
   20    23     3    62     9
   58    23     3    62     9
   59    23     3    62     9
    3    23    20    17     9
    3    23    20    24     9
    3    23    20    55     9
   26    24    20    55     9
   27    24    20    55     9
   20    24    26    28     9
   20    24    26    60     9
   27    24    26    28     9
   27    24    26    60     9
   20    24    27    29     9
   20    24    27    61     9
   26    24    27    29     9
   26    24    27    61     9
   21    25     4    30     9
   22    25     4    30     9
    4    25    21    18     9
    4    25    21    56     9
   22    25    21    56     9
    4    25    22    19     9
    4    25    22    57     9
   21    25    22    57     9
   24    26    28    31     9
   24    26    28    63     9
   60    26    28    63     9
   24    27    29    31     9
   24    27    29    64     9
   61    27    29    64     9
   31    28    26    60     9
   26    28    31    29     9
   26    28    31    67     9
   63    28    31    67     9
   31    29    27    61     9
   27    29    31    28     9
   27    29    31    67     9
   64    29    31    67     9
    4    30    32    33     9
    4    30    32    68     9
    4    30    32    69     9
   65    30    32    68     9
   65    30    32    69     9
   66    30    32    68     9
   66    30    32    69     9
   29    31    28    63     9
   28    31    29    64     9
   33    32    30    65     9
   33    32    30    66     9
   30    32    33    34     9
   30    32    33    70     9
   30    32    33    71     9
   68    32    33    70     9
   68    32    33    71     9
   69    32    33    70     9
   69    32    33    71     9
   34    33    32    68     9
   34    33    32    69     9
   32    33    34    72     9
   32    33    34    73     9
   32    33    34    74     9
   70    33    34    72     9
   70    33    34    73     9
   70    33    34    74     9
   71    33    34    72     9
   71    33    34    73     9
   71    33    34    74     9

[ dihedrals ]
; ai	aj	ak	al	funct	q0	cq
   17    20     2     1     2
